 -0.119999997         0.00000000    
 -0.119000003         0.00000000    
 -0.118000001         0.00000000    
 -0.116999999         0.00000000    
 -0.115999997         0.00000000    
 -0.115000002         0.00000000    
 -0.114000000         0.00000000    
 -0.112999998         0.00000000    
 -0.112000003         0.00000000    
 -0.111000001         0.00000000    
 -0.109999999         0.00000000    
 -0.108999997         0.00000000    
 -0.108000003         0.00000000    
 -0.107000001         0.00000000    
 -0.105999999         0.00000000    
 -0.104999997         0.00000000    
 -0.104000002         0.00000000    
 -0.103000000         0.00000000    
 -0.101999998         0.00000000    
 -0.101000004         0.00000000    
 -0.100000001         0.00000000    
  -9.89999995E-02     0.00000000    
  -9.79999974E-02     0.00000000    
  -9.70000029E-02     0.00000000    
  -9.60000008E-02     0.00000000    
  -9.49999988E-02     0.00000000    
  -9.39999968E-02     0.00000000    
  -9.30000022E-02     0.00000000    
  -9.20000002E-02     0.00000000    
  -9.09999982E-02     0.00000000    
  -9.00000036E-02     0.00000000    
  -8.90000015E-02     0.00000000    
  -8.79999995E-02     0.00000000    
  -8.69999975E-02     0.00000000    
  -8.60000029E-02     0.00000000    
  -8.50000009E-02     0.00000000    
  -8.39999989E-02     0.00000000    
  -8.29999968E-02     0.00000000    
  -8.20000023E-02     0.00000000    
  -8.10000002E-02     0.00000000    
  -7.99999982E-02     0.00000000    
  -7.90000036E-02     0.00000000    
  -7.80000016E-02     0.00000000    
  -7.69999996E-02     0.00000000    
  -7.59999976E-02     0.00000000    
  -7.50000030E-02     0.00000000    
  -7.40000010E-02     0.00000000    
  -7.29999989E-02     0.00000000    
  -7.19999969E-02     0.00000000    
  -7.10000023E-02     0.00000000    
  -7.00000003E-02     0.00000000    
  -6.89999983E-02     0.00000000    
  -6.80000037E-02     0.00000000    
  -6.70000017E-02     0.00000000    
  -6.59999996E-02     0.00000000    
  -6.49999976E-02     0.00000000    
  -6.40000030E-02     0.00000000    
  -6.30000010E-02     0.00000000    
  -6.19999990E-02     0.00000000    
  -6.10000007E-02     0.00000000    
  -5.99999987E-02     0.00000000    
  -5.90000004E-02     0.00000000    
  -5.79999983E-02     0.00000000    
  -5.70000000E-02     0.00000000    
  -5.60000017E-02     0.00000000    
  -5.49999997E-02     0.00000000    
  -5.40000014E-02     0.00000000    
  -5.29999994E-02     0.00000000    
  -5.20000011E-02     0.00000000    
  -5.09999990E-02     0.00000000    
  -5.00000007E-02     0.00000000    
  -4.89999987E-02     0.00000000    
  -4.80000004E-02     0.00000000    
  -4.69999984E-02     0.00000000    
  -4.60000001E-02     0.00000000    
  -4.50000018E-02     0.00000000    
  -4.39999998E-02     0.00000000    
  -4.30000015E-02     0.00000000    
  -4.19999994E-02     0.00000000    
  -4.10000011E-02     0.00000000    
  -3.99999991E-02     0.00000000    
  -3.90000008E-02     0.00000000    
  -3.79999988E-02     0.00000000    
  -3.70000005E-02     0.00000000    
  -3.59999985E-02     0.00000000    
  -3.50000001E-02     0.00000000    
  -3.40000018E-02     0.00000000    
  -3.29999998E-02     0.00000000    
  -3.20000015E-02     0.00000000    
  -3.09999995E-02     0.00000000    
  -2.99999993E-02     0.00000000    
  -2.89999992E-02     0.00000000    
  -2.80000009E-02     0.00000000    
  -2.70000007E-02     0.00000000    
  -2.60000005E-02     0.00000000    
  -2.50000004E-02     0.00000000    
  -2.40000002E-02     0.00000000    
  -2.30000000E-02     0.00000000    
  -2.19999999E-02     0.00000000    
  -2.09999997E-02     0.00000000    
  -1.99999996E-02     0.00000000    
  -1.89999994E-02     0.00000000    
  -1.79999992E-02     0.00000000    
  -1.70000009E-02     0.00000000    
  -1.60000008E-02     0.00000000    
  -1.49999997E-02     0.00000000    
  -1.40000004E-02     0.00000000    
  -1.30000003E-02     0.00000000    
  -1.20000001E-02     0.00000000    
  -1.09999999E-02     0.00000000    
  -9.99999978E-03     0.00000000    
  -8.99999961E-03     0.00000000    
  -8.00000038E-03     0.00000000    
  -7.00000022E-03     0.00000000    
  -6.00000005E-03     0.00000000    
  -4.99999989E-03     0.00000000    
  -4.00000019E-03     0.00000000    
  -3.00000003E-03     0.00000000    
  -2.00000009E-03     0.00000000    
  -1.00000005E-03     0.00000000    
   0.00000000         0.00000000    
   1.00000005E-03     0.00000000    
   2.00000009E-03     0.00000000    
   3.00000003E-03     0.00000000    
   4.00000019E-03     0.00000000    
   4.99999989E-03     0.00000000    
   6.00000005E-03     0.00000000    
   7.00000022E-03     0.00000000    
   8.00000038E-03     0.00000000    
   8.99999961E-03     0.00000000    
   9.99999978E-03     0.00000000    
   1.09999999E-02     0.00000000    
   1.20000001E-02     0.00000000    
   1.30000003E-02     0.00000000    
   1.40000004E-02     0.00000000    
   1.49999997E-02     0.00000000    
   1.60000008E-02     0.00000000    
   1.70000009E-02     0.00000000    
   1.79999992E-02     0.00000000    
   1.89999994E-02     0.00000000    
   1.99999996E-02     0.00000000    
   2.09999997E-02     0.00000000    
   2.19999999E-02     0.00000000    
   2.30000000E-02     0.00000000    
   2.40000002E-02     0.00000000    
   2.50000004E-02     0.00000000    
   2.60000005E-02     0.00000000    
   2.70000007E-02     0.00000000    
   2.80000009E-02     0.00000000    
   2.89999992E-02     0.00000000    
   2.99999993E-02     0.00000000    
   3.09999995E-02     0.00000000    
   3.20000015E-02     0.00000000    
   3.29999998E-02     0.00000000    
   3.40000018E-02     0.00000000    
   3.50000001E-02     0.00000000    
   3.59999985E-02     0.00000000    
   3.70000005E-02     0.00000000    
   3.79999988E-02     0.00000000    
   3.90000008E-02     0.00000000    
   3.99999991E-02     0.00000000    
   4.10000011E-02     0.00000000    
   4.19999994E-02     0.00000000    
   4.30000015E-02     0.00000000    
   4.39999998E-02     0.00000000    
   4.50000018E-02     0.00000000    
   4.60000001E-02     0.00000000    
   4.69999984E-02     0.00000000    
   4.80000004E-02     0.00000000    
   4.89999987E-02     0.00000000    
   5.00000007E-02     0.00000000    
   5.09999990E-02     0.00000000    
   5.20000011E-02     0.00000000    
   5.29999994E-02     0.00000000    
   5.40000014E-02     0.00000000    
   5.49999997E-02     0.00000000    
   5.60000017E-02     0.00000000    
   5.70000000E-02     0.00000000    
   5.79999983E-02     0.00000000    
   5.90000004E-02     0.00000000    
   5.99999987E-02     0.00000000    
   6.10000007E-02     0.00000000    
   6.19999990E-02     0.00000000    
   6.30000010E-02     0.00000000    
   6.40000030E-02     0.00000000    
   6.49999976E-02     0.00000000    
   6.59999996E-02     0.00000000    
   6.70000017E-02     0.00000000    
   6.80000037E-02     0.00000000    
   6.89999983E-02     0.00000000    
   7.00000003E-02     0.00000000    
   7.10000023E-02     0.00000000    
   7.19999969E-02     0.00000000    
   7.29999989E-02     0.00000000    
   7.40000010E-02     0.00000000    
   7.50000030E-02     0.00000000    
   7.59999976E-02     0.00000000    
   7.69999996E-02     0.00000000    
   7.80000016E-02     0.00000000    
   7.90000036E-02     0.00000000    
   7.99999982E-02     0.00000000    
   8.10000002E-02     0.00000000    
   8.20000023E-02     0.00000000    
   8.29999968E-02     0.00000000    
   8.39999989E-02     0.00000000    
   8.50000009E-02     0.00000000    
   8.60000029E-02     0.00000000    
   8.69999975E-02     0.00000000    
   8.79999995E-02     0.00000000    
   8.90000015E-02     0.00000000    
   9.00000036E-02     0.00000000    
   9.09999982E-02     0.00000000    
   9.20000002E-02     0.00000000    
   9.30000022E-02     0.00000000    
   9.39999968E-02     0.00000000    
   9.49999988E-02     0.00000000    
   9.60000008E-02     0.00000000    
   9.70000029E-02     0.00000000    
   9.79999974E-02     0.00000000    
   9.89999995E-02     0.00000000    
  0.100000001         0.00000000    
  0.101000004         0.00000000    
  0.101999998         0.00000000    
  0.103000000         0.00000000    
  0.104000002         0.00000000    
  0.104999997         0.00000000    
  0.105999999         0.00000000    
  0.107000001         0.00000000    
  0.108000003         0.00000000    
  0.108999997         0.00000000    
  0.109999999         0.00000000    
  0.111000001         0.00000000    
  0.112000003         0.00000000    
  0.112999998         0.00000000    
  0.114000000         0.00000000    
  0.115000002         0.00000000    
  0.115999997         0.00000000    
  0.116999999         0.00000000    
  0.118000001         0.00000000    
  0.119000003         0.00000000    
  0.119999997         0.00000000    
  0.120999999         0.00000000    
  0.122000001         0.00000000    
  0.123000003         0.00000000    
  0.123999998         0.00000000    
  0.125000000         0.00000000    
  0.126000002         0.00000000    
  0.127000004         0.00000000    
  0.128000006         0.00000000    
  0.128999993         0.00000000    
  0.129999995         0.00000000    
  0.130999997         0.00000000    
  0.131999999         0.00000000    
  0.133000001         0.00000000    
  0.134000003         0.00000000    
  0.135000005         0.00000000    
  0.136000007         0.00000000    
  0.136999995         0.00000000    
  0.137999997         0.00000000    
  0.138999999         0.00000000    
  0.140000001         0.00000000    
  0.141000003         0.00000000    
  0.142000005         0.00000000    
  0.143000007         0.00000000    
  0.143999994         0.00000000    
  0.144999996         0.00000000    
  0.145999998         0.00000000    
  0.147000000         0.00000000    
  0.148000002         0.00000000    
  0.149000004         0.00000000    
  0.150000006         0.00000000    
  0.150999993         0.00000000    
  0.151999995         0.00000000    
  0.152999997         0.00000000    
  0.153999999         0.00000000    
  0.155000001         0.00000000    
  0.156000003         0.00000000    
  0.157000005         0.00000000    
  0.158000007         0.00000000    
  0.158999994         0.00000000    
  0.159999996         0.00000000    
  0.160999998         0.00000000    
  0.162000000         0.00000000    
  0.163000003         0.00000000    
  0.164000005         0.00000000    
  0.165000007         0.00000000    
  0.165999994         0.00000000    
  0.166999996         0.00000000    
  0.167999998         0.00000000    
  0.169000000         0.00000000    
  0.170000002         0.00000000    
  0.171000004         0.00000000    
  0.172000006         0.00000000    
  0.172999993         0.00000000    
  0.173999995         0.00000000    
  0.174999997         0.00000000    
  0.175999999         0.00000000    
  0.177000001         0.00000000    
  0.178000003         0.00000000    
  0.179000005         0.00000000    
  0.180000007         0.00000000    
  0.180999994         0.00000000    
  0.181999996         0.00000000    
  0.182999998         0.00000000    
  0.184000000         0.00000000    
  0.185000002         0.00000000    
  0.186000004         0.00000000    
  0.187000006         0.00000000    
  0.187999994         0.00000000    
  0.188999996         0.00000000    
  0.189999998         0.00000000    
  0.191000000         0.00000000    
  0.192000002         0.00000000    
  0.193000004         0.00000000    
  0.194000006         0.00000000    
  0.194999993         0.00000000    
  0.195999995         0.00000000    
  0.196999997         0.00000000    
  0.197999999         0.00000000    
  0.199000001         0.00000000    
  0.200000003         0.00000000    
  0.201000005         1.28768847E-38
  0.202000007         2.80464338E-38
  0.202999994         3.99301146E-38
  0.203999996         4.63244834E-38
  0.204999998         3.35730905E-38
  0.206000000        -0.00000000    
  0.207000002        -5.21511048E-38
  0.208000004        -6.73478559E-38
  0.209000006        -0.00000000    
  0.209999993         1.27794519E-37
  0.210999995         2.69485770E-37
  0.211999997         2.96772437E-37
  0.213000000         1.01132618E-37
  0.214000002        -3.13534097E-37
  0.215000004        -7.65479173E-37
  0.216000006        -9.36447092E-37
  0.216999993        -5.67377946E-37
  0.217999995         3.45937207E-37
  0.218999997         1.50718210E-36
  0.219999999         2.34102455E-36
  0.221000001         2.23313901E-36
  0.222000003         8.56760518E-37
  0.223000005        -1.56468009E-36
  0.224000007        -4.18662243E-36
  0.224999994        -5.77523015E-36
  0.225999996        -5.15435045E-36
  0.226999998        -1.77529619E-36
  0.228000000         3.81237592E-36
  0.229000002         9.82269597E-36
  0.230000004         1.36000607E-35
  0.231000006         1.24994037E-35
  0.231999993         5.09975676E-36
  0.232999995        -7.66231686E-36
  0.233999997        -2.19800985E-35
  0.234999999        -3.17802302E-35
  0.236000001        -3.06318847E-35
  0.237000003        -1.46427652E-35
  0.238000005         1.46652520E-35
  0.238999993         4.88633888E-35
  0.239999995         7.38322779E-35
  0.240999997         7.41256693E-35
  0.241999999         3.98222158E-35
  0.243000001        -2.65722909E-35
  0.244000003        -1.06449944E-34
  0.245000005        -1.67630419E-34
  0.246000007        -1.74320784E-34
  0.246999994        -1.02619532E-34
  0.247999996         4.37476724E-35
  0.248999998         2.24803193E-34
  0.250000000         3.69542340E-34
  0.250999987         3.97612939E-34
  0.252000004         2.53320135E-34
  0.252999991        -5.95650251E-35
  0.254000008        -4.58136939E-34
  0.254999995        -7.90392391E-34
  0.256000012        -8.80815825E-34
  0.256999999        -6.02846492E-34
  0.257999986         4.58849858E-35
  0.259000003         8.99360075E-34
  0.259999990         1.64104411E-33
  0.261000007         1.89681221E-33
  0.261999995         1.38578781E-33
  0.263000011         7.95483143E-35
  0.263999999        -1.70032337E-33
  0.264999986        -3.31138926E-33
  0.266000003        -3.97483276E-33
  0.266999990        -3.08238092E-33
  0.268000007        -5.26170878E-34
  0.268999994         3.09056824E-33
  0.270000011         6.49584350E-33
  0.270999998         8.10603345E-33
  0.272000015         6.63663025E-33
  0.273000002         1.77129825E-33
  0.273999989        -5.39365848E-33
  0.275000006        -1.23991894E-32
  0.275999993        -1.60983246E-32
  0.277000010        -1.38455661E-32
  0.277999997        -4.82553839E-33
  0.279000014         9.03080221E-33
  0.280000001         2.30758034E-32
  0.280999988         3.11907787E-32
  0.282000005         2.80550123E-32
  0.282999992         1.17318546E-32
  0.284000009        -1.44834966E-32
  0.284999996        -4.19899101E-32
  0.286000013        -5.91279947E-32
  0.287000000        -5.54253991E-32
  0.287999988        -2.65370759E-32
  0.289000005         2.21017021E-32
  0.289999992         7.48850733E-32
  0.291000009         1.10001257E-31
  0.291999996         1.07230182E-31
  0.293000013         5.72184747E-32
  0.294000000        -3.14267709E-32
  0.294999987        -1.30934401E-31
  0.296000004        -2.01197707E-31
  0.296999991        -2.03841441E-31
  0.298000008        -1.19351832E-31
  0.298999995         3.93701182E-32
  0.300000012         2.23890437E-31
  0.300999999         3.61698037E-31
  0.301999986         3.81127877E-31
  0.303000003         2.42499406E-31
  0.303999990        -3.63800485E-32
  0.305000007        -3.72845461E-31
  0.305999994        -6.38026689E-31
  0.307000011        -7.00199009E-31
  0.307999998        -4.80505697E-31
  0.308999985        -2.48909574E-34
  0.310000002         6.02704260E-31
  0.310999990         1.10324386E-30
  0.312000006         1.26300774E-30
  0.312999994         9.28568315E-31
  0.314000010         1.17900308E-31
  0.314999998        -9.44652369E-31
  0.316000015        -1.87249498E-30
  0.317000002        -2.24061035E-30
  0.317999989        -1.75595910E-30
  0.319000006        -4.13502378E-31
  0.319999993         1.43168103E-30
  0.321000010         3.12683134E-30
  0.321999997         3.92433429E-30
  0.323000014         3.27288811E-30
  0.324000001         1.09547760E-30
  0.324999988        -2.06566049E-30
  0.326000005        -5.12898203E-30
  0.326999992        -6.79745764E-30
  0.328000009        -6.04759908E-30
  0.328999996        -2.61799481E-30
  0.330000013         2.70588041E-30
  0.331000000         8.17513477E-30
  0.331999987         1.15779385E-29
  0.333000004         1.10439075E-29
  0.333999991         5.88853419E-30
  0.335000008        -2.84091820E-30
  0.335999995        -1.24078977E-29
  0.337000012        -1.91285484E-29
  0.338000000        -1.96614577E-29
  0.338999987        -1.24366904E-29
  0.340000004         1.32817452E-30
  0.340999991         1.75255307E-29
  0.342000008         3.02023551E-29
  0.342999995         3.35680712E-29
  0.344000012         2.43530637E-29
  0.344999999         3.63775253E-30
  0.345999986        -2.26929722E-29
  0.347000003        -4.53308689E-29
  0.347999990        -5.45745291E-29
  0.349000007        -4.41212284E-29
  0.349999994        -1.42512797E-29
  0.351000011         2.69895038E-29
  0.351999998         6.54736255E-29
  0.352999985         8.54268134E-29
  0.354000002         7.53769679E-29
  0.354999989         3.35384961E-29
  0.356000006        -2.96177933E-29
  0.356999993        -9.31656333E-29
  0.358000010        -1.32007837E-28
  0.358999997        -1.25999886E-28
  0.360000014        -6.88374006E-29
  0.361000001         2.68431331E-29
  0.361999989         1.30859609E-28
  0.363000005         2.04021222E-28
  0.363999993         2.11763292E-28
  0.365000010         1.38469392E-28
  0.365999997        -2.98456154E-30
  0.367000014        -1.71029633E-28
  0.368000001        -3.06269950E-28
  0.368999988        -3.51133934E-28
  0.370000005        -2.72229379E-28
  0.370999992        -7.72424658E-29
  0.372000009         1.81035585E-28
  0.372999996         4.17230093E-28
  0.374000013         5.40350172E-28
  0.375000000         4.87198550E-28
  0.375999987         2.50466082E-28
  0.377000004        -1.10056316E-28
  0.377999991        -4.80027687E-28
  0.379000008        -7.25676055E-28
  0.379999995        -7.41432328E-28
  0.381000012        -4.93687826E-28
  0.381999999        -4.33142276E-29
  0.382999986         4.64820399E-28
  0.384000003         8.46107343E-28
  0.384999990         9.42037721E-28
  0.386000007         6.85248522E-28
  0.386999995         1.38350670E-28
  0.388000011        -5.12520532E-28
  0.388999999        -1.01374732E-27
  0.389999986        -1.13549892E-27
  0.391000003        -7.67888924E-28
  0.391999990         1.49787697E-29
  0.393000007         9.53410241E-28
  0.393999994         1.67383900E-27
  0.395000011         1.81800757E-27
  0.395999998         1.18894945E-27
  0.397000015        -1.39954873E-28
  0.398000002        -1.80110715E-27
  0.398999989        -3.21750787E-27
  0.400000006        -3.78225485E-27
  0.400999993        -3.08076222E-27
  0.402000010        -1.07963935E-27
  0.402999997         1.79298107E-27
  0.404000014         4.72181092E-27
  0.405000001         6.72925854E-27
  0.405999988         6.99076285E-27
  0.407000005         5.13949043E-27
  0.407999992         1.45008167E-27
  0.409000009        -3.17858290E-27
  0.409999996        -7.45810901E-27
  0.411000013        -1.01021289E-26
  0.412000000        -1.02502753E-26
  0.412999988        -7.77548532E-27
  0.414000005        -3.35375123E-27
  0.414999992         1.74775870E-27
  0.416000009         6.10628068E-27
  0.416999996         8.65355299E-27
  0.418000013         9.06718650E-27
  0.419000000         7.87628079E-27
  0.419999987         6.20974048E-27
  0.421000004         5.25263804E-27
  0.421999991         5.60634047E-27
  0.423000008         6.81969713E-27
  0.423999995         7.33400902E-27
  0.425000012         4.95790682E-27
  0.425999999        -2.20787627E-27
  0.426999986        -1.46774104E-26
  0.428000003        -3.07300119E-26
  0.428999990        -4.62132622E-26
  0.430000007        -5.52492725E-26
  0.430999994        -5.18125568E-26
  0.432000011        -3.18235148E-26
  0.432999998         4.85575357E-27
  0.433999985         5.32249198E-26
  0.435000002         1.03312712E-25
  0.435999990         1.41924360E-25
  0.437000006         1.55714733E-25
  0.437999994         1.34880867E-25
  0.439000010         7.64842309E-26
  0.439999998        -1.35917206E-26
  0.441000015        -1.20744616E-25
  0.442000002        -2.23981425E-25
  0.442999989        -3.00027172E-25
  0.444000006        -3.28269675E-25
  0.444999993        -2.95364018E-25
  0.446000010        -1.98432907E-25
  0.446999997        -4.62121837E-26
  0.448000014         1.41939015E-25
  0.449000001         3.38719444E-25
  0.449999988         5.12516619E-25
  0.451000005         6.31267845E-25
  0.451999992         6.66132933E-25
  0.453000009         5.94974672E-25
  0.453999996         4.05937764E-25
  0.455000013         1.01389075E-25
  0.456000000        -2.97952715E-25
  0.456999987        -7.49606792E-25
  0.458000004        -1.18830565E-24
  0.458999991        -1.52941848E-24
  0.460000008        -1.67856624E-24
  0.460999995        -1.54797288E-24
  0.462000012        -1.07813758E-24
  0.463000000        -2.61133864E-25
  0.463999987         8.40081742E-25
  0.465000004         2.08280480E-24
  0.465999991         3.25181600E-24
  0.467000008         4.08575123E-24
  0.467999995         4.32155477E-24
  0.469000012         3.75120794E-24
  0.469999999         2.28063553E-24
  0.470999986        -2.19773320E-26
  0.472000003        -2.90135369E-24
  0.472999990        -5.92393085E-24
  0.474000007        -8.52510147E-24
  0.474999994        -1.00926194E-23
  0.476000011        -1.00763980E-23
  0.476999998        -8.10842514E-24
  0.477999985        -4.11218951E-24
  0.479000002         1.62022800E-24
  0.479999989         8.40311597E-24
  0.481000006         1.51983756E-23
  0.481999993         2.07288933E-23
  0.483000010         2.36592749E-23
  0.483999997         2.28272396E-23
  0.485000014         1.74969380E-23
  0.486000001         7.59488932E-24
  0.486999989        -6.11767154E-24
  0.488000005        -2.19832926E-23
  0.488999993        -3.75376085E-23
  0.490000010        -4.97724341E-23
  0.490999997        -5.55688389E-23
  0.492000014        -5.22622338E-23
  0.493000001        -3.82646985E-23
  0.493999988        -1.36377106E-23
  0.495000005         1.95105844E-23
  0.495999992         5.69273710E-23
  0.497000009         9.25117315E-23
  0.497999996         1.19045245E-22
  0.499000013         1.29318094E-22
  0.500000000         1.17523109E-22
  0.500999987         8.07061630E-23
  0.501999974         2.00014957E-23
  0.503000021        -5.86387700E-23
  0.504000008        -1.44476770E-22
  0.504999995        -2.22946380E-22
  0.505999982        -2.77556204E-22
  0.507000029        -2.92581795E-22
  0.508000016        -2.56207431E-22
  0.509000003        -1.63621641E-22
  0.509999990        -1.94754943E-23
  0.510999978         1.60893117E-22
  0.512000024         3.51962448E-22
  0.513000011         5.20536116E-22
  0.513999999         6.30227566E-22
  0.514999986         6.47518690E-22
  0.515999973         5.48616737E-22
  0.517000020         3.26017608E-22
  0.518000007        -6.50153915E-24
  0.518999994        -4.11729857E-22
  0.519999981        -8.30738034E-22
  0.521000028        -1.18900286E-21
  0.522000015        -1.40678542E-21
  0.523000002        -1.41278147E-21
  0.523999989        -1.15923234E-21
  0.524999976        -6.36001876E-22
  0.526000023         1.19240857E-22
  0.527000010         1.01750485E-21
  0.527999997         1.92376644E-21
  0.528999984         2.67202299E-21
  0.529999971         3.08944467E-21
  0.531000018         3.02709471E-21
  0.532000005         2.39289053E-21
  0.532999992         1.18110547E-21
  0.533999979        -5.07885110E-22
  0.535000026        -2.46344019E-21
  0.536000013        -4.38023194E-21
  0.537000000        -5.89490627E-21
  0.537999988        -6.64147999E-21
  0.538999975        -6.31910614E-21
  0.540000021        -4.76212887E-21
  0.541000009        -1.99976992E-21
  0.541999996         1.70799024E-21
  0.542999983         5.87015951E-21
  0.544000030         9.80777470E-21
  0.545000017         1.27413829E-20
  0.546000004         1.39159842E-20
  0.546999991         1.27479187E-20
  0.547999978         8.97066308E-21
  0.549000025         2.75180533E-21
  0.550000012        -5.24709622E-21
  0.550999999        -1.38913400E-20
  0.551999986        -2.16879729E-20
  0.552999973        -2.69931474E-20
  0.554000020        -2.82924365E-20
  0.555000007        -2.45164378E-20
  0.555999994        -1.53390612E-20
  0.556999981        -1.39766927E-21
  0.558000028         1.56241267E-20
  0.559000015         3.30969083E-20
  0.560000002         4.77499217E-20
  0.560999990         5.61657252E-20
  0.561999977         5.54113558E-20
  0.563000023         4.37140558E-20
  0.564000010         2.10602171E-20
  0.564999998        -1.04160683E-20
  0.565999985        -4.63780168E-20
  0.566999972        -8.06508787E-20
  0.568000019        -1.06030570E-19
  0.569000006        -1.15479312E-19
  0.569999993        -1.03562702E-19
  0.570999980        -6.79016926E-20
  0.572000027        -1.03569637E-20
  0.573000014         6.23507355E-20
  0.574000001         1.38840482E-19
  0.574999988         2.04247682E-19
  0.575999975         2.42380024E-19
  0.577000022         2.38664122E-19
  0.578000009         1.83493346E-19
  0.578999996         7.54138690E-20
  0.579999983        -7.65221553E-20
  0.580999970        -2.51909971E-19
  0.582000017        -4.20200332E-19
  0.583000004        -5.44246638E-19
  0.583999991        -5.86090758E-19
  0.584999979        -5.14424709E-19
  0.586000025        -3.12695054E-19
  0.587000012         1.35751535E-20
  0.588000000         4.31889790E-19
  0.588999987         8.81908846E-19
  0.589999974         1.27984321E-18
  0.591000021         1.52866689E-18
  0.592000008         1.53372055E-18
  0.592999995         1.22213785E-18
  0.593999982         5.63374672E-19
  0.595000029        -4.12808646E-19
  0.596000016        -1.60505278E-18
  0.597000003        -2.83977329E-18
  0.597999990        -3.88423915E-18
  0.598999977        -4.47463311E-18
  0.600000024        -4.35791255E-18
  0.601000011        -3.34339228E-18
  0.601999998        -1.35707251E-18
  0.602999985         1.51067323E-18
  0.603999972         4.97475561E-18
  0.605000019         8.55279276E-18
  0.606000006         1.15984751E-17
  0.606999993         1.33747098E-17
  0.607999980         1.31641799E-17
  0.609000027         1.04075352E-17
  0.610000014         4.85177329E-18
  0.611000001        -3.31519969E-18
  0.611999989        -1.33718817E-17
  0.612999976        -2.40405420E-17
  0.614000022        -3.35580094E-17
  0.615000010        -3.98530524E-17
  0.615999997        -4.08283215E-17
  0.616999984        -3.47260281E-17
  0.617999971        -2.05362460E-17
  0.619000018         1.61167116E-18
  0.620000005         3.01471500E-17
  0.620999992         6.19227539E-17
  0.621999979         9.23138262E-17
  0.623000026         1.15600767E-16
  0.624000013         1.25645916E-16
  0.625000000         1.16830407E-16
  0.625999987         8.51626314E-17
  0.626999974         2.94177487E-17
  0.628000021        -4.78757018E-17
  0.629000008        -1.39809366E-16
  0.629999995        -2.35031314E-16
  0.630999982        -3.18407785E-16
  0.632000029        -3.72496291E-16
  0.633000016        -3.79804571E-16
  0.634000003        -3.25674824E-16
  0.634999990        -2.01487737E-16
  0.635999978        -7.74954662E-18
  0.637000024         2.43470383E-16
  0.638000011         5.27318297E-16
  0.638999999         8.06671510E-16
  0.639999986         1.03476922E-15
  0.640999973         1.16009992E-15
  0.642000020         1.13336576E-15
  0.643000007         9.15968935E-16
  0.643999994         4.89080106E-16
  0.644999981        -1.37987782E-16
  0.646000028        -9.21600752E-16
  0.647000015        -1.78136704E-15
  0.648000002        -2.60280477E-15
  0.648999989        -3.24603651E-15
  0.649999976        -3.56073296E-15
  0.651000023        -3.40662739E-15
  0.652000010        -2.67788704E-15
  0.652999997        -1.32861004E-15
  0.653999984         6.04147997E-16
  0.654999971         2.98394567E-15
  0.656000018         5.56929838E-15
  0.657000005         8.02239727E-15
  0.657999992         9.93457500E-15
  0.658999979         1.08689913E-14
  0.660000026         1.04185857E-14
  0.661000013         8.27460642E-15
  0.662000000         4.29829198E-15
  0.662999988        -1.41404464E-15
  0.663999975        -8.48373800E-15
  0.665000021        -1.62317178E-14
  0.666000009        -2.36996837E-14
  0.666999996        -2.97172971E-14
  0.667999983        -3.30172121E-14
  0.669000030        -3.23933114E-14
  0.670000017        -2.68902078E-14
  0.671000004        -1.60047062E-14
  0.671999991         1.26474764E-16
  0.672999978         2.05826618E-14
  0.674000025         4.35898571E-14
  0.675000012         6.65540079E-14
  0.675999999         8.62173560E-14
  0.676999986         9.89460182E-14
  0.677999973         1.01141006E-13
  0.679000020         8.97459394E-14
  0.680000007         6.28052840E-14
  0.680999994         2.00089934E-14
  0.681999981        -3.68537395E-14
  0.683000028        -1.03615142E-13
  0.684000015        -1.73703405E-13
  0.685000002        -2.38435357E-13
  0.685999990        -2.87663746E-13
  0.686999977        -3.10776958E-13
  0.688000023        -2.98001343E-13
  0.689000010        -2.41905020E-13