 -0.12000000000000000          0.0000000000000000     
 -0.11889999999999999          0.0000000000000000     
 -0.11780000000000000          0.0000000000000000     
 -0.11670000000000000          0.0000000000000000     
 -0.11559999999999999          0.0000000000000000     
 -0.11449999999999999          0.0000000000000000     
 -0.11340000000000000          0.0000000000000000     
 -0.11230000000000000          0.0000000000000000     
 -0.11119999999999999          0.0000000000000000     
 -0.11009999999999999          0.0000000000000000     
 -0.10900000000000000          0.0000000000000000     
 -0.10790000000000000          0.0000000000000000     
 -0.10679999999999999          0.0000000000000000     
 -0.10569999999999999          0.0000000000000000     
 -0.10460000000000000          0.0000000000000000     
 -0.10349999999999999          0.0000000000000000     
 -0.10239999999999999          0.0000000000000000     
 -0.10130000000000000          0.0000000000000000     
 -0.10020000000000000          0.0000000000000000     
  -9.9099999999999994E-002     0.0000000000000000     
  -9.7999999999999990E-002     0.0000000000000000     
  -9.6899999999999986E-002     0.0000000000000000     
  -9.5799999999999996E-002     0.0000000000000000     
  -9.4699999999999993E-002     0.0000000000000000     
  -9.3599999999999989E-002     0.0000000000000000     
  -9.2499999999999999E-002     0.0000000000000000     
  -9.1399999999999995E-002     0.0000000000000000     
  -9.0299999999999991E-002     0.0000000000000000     
  -8.9200000000000002E-002     0.0000000000000000     
  -8.8099999999999984E-002     0.0000000000000000     
  -8.6999999999999994E-002     0.0000000000000000     
  -8.5899999999999990E-002     0.0000000000000000     
  -8.4799999999999986E-002     0.0000000000000000     
  -8.3699999999999997E-002     0.0000000000000000     
  -8.2599999999999993E-002     0.0000000000000000     
  -8.1499999999999989E-002     0.0000000000000000     
  -8.0399999999999999E-002     0.0000000000000000     
  -7.9299999999999995E-002     0.0000000000000000     
  -7.8199999999999992E-002     0.0000000000000000     
  -7.7100000000000002E-002     0.0000000000000000     
  -7.5999999999999984E-002     0.0000000000000000     
  -7.4899999999999994E-002     0.0000000000000000     
  -7.3799999999999991E-002     0.0000000000000000     
  -7.2699999999999987E-002     0.0000000000000000     
  -7.1599999999999997E-002     0.0000000000000000     
  -7.0499999999999993E-002     0.0000000000000000     
  -6.9399999999999989E-002     0.0000000000000000     
  -6.8300000000000000E-002     0.0000000000000000     
  -6.7199999999999996E-002     0.0000000000000000     
  -6.6099999999999992E-002     0.0000000000000000     
  -6.5000000000000002E-002     0.0000000000000000     
  -6.3899999999999985E-002     0.0000000000000000     
  -6.2799999999999995E-002     0.0000000000000000     
  -6.1699999999999991E-002     0.0000000000000000     
  -6.0599999999999994E-002     0.0000000000000000     
  -5.9499999999999990E-002     0.0000000000000000     
  -5.8399999999999994E-002     0.0000000000000000     
  -5.7299999999999990E-002     0.0000000000000000     
  -5.6199999999999986E-002     0.0000000000000000     
  -5.5099999999999996E-002     0.0000000000000000     
  -5.3999999999999992E-002     0.0000000000000000     
  -5.2899999999999989E-002     0.0000000000000000     
  -5.1799999999999985E-002     0.0000000000000000     
  -5.0699999999999995E-002     0.0000000000000000     
  -4.9599999999999991E-002     0.0000000000000000     
  -4.8499999999999988E-002     0.0000000000000000     
  -4.7399999999999998E-002     0.0000000000000000     
  -4.6299999999999994E-002     0.0000000000000000     
  -4.5199999999999990E-002     0.0000000000000000     
  -4.4099999999999986E-002     0.0000000000000000     
  -4.2999999999999997E-002     0.0000000000000000     
  -4.1899999999999993E-002     0.0000000000000000     
  -4.0799999999999989E-002     0.0000000000000000     
  -3.9699999999999985E-002     0.0000000000000000     
  -3.8599999999999995E-002     0.0000000000000000     
  -3.7499999999999992E-002     0.0000000000000000     
  -3.6399999999999988E-002     0.0000000000000000     
  -3.5299999999999984E-002     0.0000000000000000     
  -3.4199999999999994E-002     0.0000000000000000     
  -3.3099999999999991E-002     0.0000000000000000     
  -3.1999999999999987E-002     0.0000000000000000     
  -3.0899999999999997E-002     0.0000000000000000     
  -2.9799999999999993E-002     0.0000000000000000     
  -2.8699999999999989E-002     0.0000000000000000     
  -2.7599999999999986E-002     0.0000000000000000     
  -2.6499999999999996E-002     0.0000000000000000     
  -2.5399999999999992E-002     0.0000000000000000     
  -2.4299999999999988E-002     0.0000000000000000     
  -2.3199999999999985E-002     0.0000000000000000     
  -2.2099999999999995E-002     0.0000000000000000     
  -2.0999999999999991E-002     0.0000000000000000     
  -1.9899999999999987E-002     0.0000000000000000     
  -1.8799999999999983E-002     0.0000000000000000     
  -1.7699999999999994E-002     0.0000000000000000     
  -1.6599999999999990E-002     0.0000000000000000     
  -1.5499999999999986E-002     0.0000000000000000     
  -1.4399999999999996E-002     0.0000000000000000     
  -1.3299999999999992E-002     0.0000000000000000     
  -1.2199999999999989E-002     0.0000000000000000     
  -1.1099999999999985E-002     0.0000000000000000     
  -9.9999999999999950E-003     0.0000000000000000     
  -8.8999999999999913E-003     0.0000000000000000     
  -7.7999999999999875E-003     0.0000000000000000     
  -6.6999999999999837E-003     0.0000000000000000     
  -5.5999999999999939E-003     0.0000000000000000     
  -4.4999999999999901E-003     0.0000000000000000     
  -3.3999999999999864E-003     0.0000000000000000     
  -2.2999999999999826E-003     0.0000000000000000     
  -1.1999999999999927E-003     0.0000000000000000     
  -9.9999999999988987E-005     0.0000000000000000     
   1.0000000000000148E-003     0.0000000000000000     
   2.1000000000000185E-003     0.0000000000000000     
   3.2000000000000084E-003     0.0000000000000000     
   4.3000000000000121E-003     0.0000000000000000     
   5.4000000000000159E-003     0.0000000000000000     
   6.5000000000000058E-003     0.0000000000000000     
   7.6000000000000234E-003     0.0000000000000000     
   8.7000000000000133E-003     0.0000000000000000     
   9.8000000000000032E-003     0.0000000000000000     
   1.0900000000000021E-002     0.0000000000000000     
   1.2000000000000011E-002     0.0000000000000000     
   1.3100000000000001E-002     0.0000000000000000     
   1.4200000000000018E-002     0.0000000000000000     
   1.5300000000000008E-002     0.0000000000000000     
   1.6400000000000026E-002     0.0000000000000000     
   1.7500000000000016E-002     0.0000000000000000     
   1.8600000000000005E-002     0.0000000000000000     
   1.9700000000000023E-002     0.0000000000000000     
   2.0800000000000013E-002     0.0000000000000000     
   2.1900000000000003E-002     0.0000000000000000     
   2.3000000000000020E-002     0.0000000000000000     
   2.4100000000000010E-002     0.0000000000000000     
   2.5200000000000000E-002     0.0000000000000000     
   2.6300000000000018E-002     0.0000000000000000     
   2.7400000000000008E-002     0.0000000000000000     
   2.8500000000000025E-002     0.0000000000000000     
   2.9600000000000015E-002     0.0000000000000000     
   3.0700000000000005E-002     0.0000000000000000     
   3.1800000000000023E-002     0.0000000000000000     
   3.2900000000000013E-002     0.0000000000000000     
   3.4000000000000002E-002     0.0000000000000000     
   3.5100000000000020E-002     0.0000000000000000     
   3.6200000000000010E-002     0.0000000000000000     
   3.7300000000000028E-002     0.0000000000000000     
   3.8400000000000017E-002     0.0000000000000000     
   3.9500000000000007E-002     0.0000000000000000     
   4.0600000000000025E-002     0.0000000000000000     
   4.1700000000000015E-002     0.0000000000000000     
   4.2800000000000005E-002     0.0000000000000000     
   4.3900000000000022E-002     0.0000000000000000     
   4.5000000000000012E-002     0.0000000000000000     
   4.6100000000000002E-002     0.0000000000000000     
   4.7200000000000020E-002     0.0000000000000000     
   4.8300000000000010E-002     0.0000000000000000     
   4.9400000000000027E-002     0.0000000000000000     
   5.0500000000000017E-002     0.0000000000000000     
   5.1600000000000007E-002     0.0000000000000000     
   5.2700000000000025E-002     0.0000000000000000     
   5.3800000000000014E-002     0.0000000000000000     
   5.4900000000000004E-002     0.0000000000000000     
   5.6000000000000022E-002     0.0000000000000000     
   5.7100000000000012E-002     0.0000000000000000     
   5.8200000000000002E-002     0.0000000000000000     
   5.9300000000000019E-002     0.0000000000000000     
   6.0400000000000009E-002     0.0000000000000000     
   6.1500000000000027E-002     0.0000000000000000     
   6.2600000000000017E-002     0.0000000000000000     
   6.3700000000000007E-002     0.0000000000000000     
   6.4800000000000024E-002     0.0000000000000000     
   6.5900000000000014E-002     0.0000000000000000     
   6.7000000000000004E-002     0.0000000000000000     
   6.8100000000000022E-002     0.0000000000000000     
   6.9200000000000012E-002     0.0000000000000000     
   7.0300000000000029E-002     0.0000000000000000     
   7.1400000000000019E-002     0.0000000000000000     
   7.2500000000000009E-002     0.0000000000000000     
   7.3600000000000027E-002     0.0000000000000000     
   7.4700000000000016E-002     0.0000000000000000     
   7.5800000000000006E-002     0.0000000000000000     
   7.6900000000000024E-002     0.0000000000000000     
   7.8000000000000014E-002     0.0000000000000000     
   7.9100000000000004E-002     0.0000000000000000     
   8.0200000000000021E-002     0.0000000000000000     
   8.1300000000000011E-002     0.0000000000000000     
   8.2400000000000029E-002     0.0000000000000000     
   8.3500000000000019E-002     0.0000000000000000     
   8.4600000000000009E-002     0.0000000000000000     
   8.5700000000000026E-002     0.0000000000000000     
   8.6800000000000016E-002     0.0000000000000000     
   8.7900000000000006E-002     0.0000000000000000     
   8.9000000000000024E-002     0.0000000000000000     
   9.0100000000000013E-002     0.0000000000000000     
   9.1200000000000003E-002     0.0000000000000000     
   9.2300000000000021E-002     0.0000000000000000     
   9.3400000000000011E-002     0.0000000000000000     
   9.4500000000000028E-002     0.0000000000000000     
   9.5600000000000018E-002     0.0000000000000000     
   9.6700000000000008E-002     0.0000000000000000     
   9.7800000000000026E-002     0.0000000000000000     
   9.8900000000000016E-002     0.0000000000000000     
  0.10000000000000001          0.0000000000000000     
  0.10110000000000002          0.0000000000000000     
  0.10220000000000001          0.0000000000000000     
  0.10330000000000003         -1.1069432227140614E-043
  0.10440000000000002         -4.8865918753270723E-043
  0.10550000000000001         -1.9888074139222213E-042
  0.10660000000000003          1.2340454085771873E-039
  0.10770000000000002          1.2343625707529230E-039
  0.10880000000000001         -1.2336987169277455E-039
  0.10990000000000003         -5.8086373093744845E-039
  0.11100000000000002         -8.2737349087967089E-039
  0.11210000000000001          7.4823808833092315E-039
  0.11320000000000002          3.6442112969092969E-038
  0.11430000000000001          7.5554929174869432E-038
  0.11540000000000003          6.4423971214929146E-038
  0.11650000000000002         -2.9873795132789858E-038
  0.11760000000000001         -1.9810092049556956E-037
  0.11870000000000003         -3.5164096594271371E-037
  0.11980000000000002         -3.1404889030513870E-037
  0.12090000000000001          9.5978555196970060E-039
  0.12200000000000003          5.7560717628863639E-037
  0.12310000000000001          1.1546324429886873E-036
  0.12420000000000003          1.3366872806293648E-036
  0.12530000000000002          7.1485792579775487E-037
  0.12640000000000001         -8.4573673211105149E-037
  0.12750000000000003         -2.9554387648304018E-036
  0.12860000000000002         -4.6055183503674177E-036
  0.12970000000000001         -4.3973498468231829E-036
  0.13080000000000003         -1.1876879529231029E-036
  0.13190000000000002          4.9565025641958201E-036
  0.13300000000000001          1.2071245612646103E-035
  0.13410000000000000          1.6280761171999212E-035
  0.13520000000000004          1.3080236987254882E-035
  0.13630000000000003         -2.8092964728439112E-037
  0.13740000000000002         -2.1943848293883668E-035
  0.13850000000000001         -4.3746403592859994E-035
  0.13960000000000000         -5.2389773087481683E-035
  0.14070000000000005         -3.4530667347872500E-035
  0.14180000000000004          1.5025598014665378E-035
  0.14290000000000003          8.5257261676952152E-035
  0.14400000000000002          1.4605371325967673E-034
  0.14510000000000001          1.5535767200427568E-034
  0.14620000000000000          7.7747127135527938E-035
  0.14730000000000004         -9.0350480329721686E-035
  0.14840000000000003         -3.0042180491511176E-034
  0.14950000000000002         -4.5170893597181629E-034
  0.15060000000000001         -4.2240143110900592E-034
  0.15170000000000000         -1.3062830459876729E-034
  0.15280000000000005          3.9518630205608560E-034
  0.15390000000000004          9.7373037637428457E-034
  0.15500000000000003          1.2962747405562168E-033
  0.15610000000000002          1.0410543824108013E-033
  0.15720000000000001          5.5206059964944486E-035
  0.15830000000000000         -1.4684494281169100E-033
  0.15940000000000004         -2.9268724801000773E-033
  0.16050000000000003         -3.4496795126125794E-033
  0.16160000000000002         -2.2700756591809933E-033
  0.16270000000000001          7.7963275659304461E-034
  0.16380000000000000          4.8759993519787776E-033
  0.16490000000000005          8.1952839650917480E-033
  0.16600000000000004          8.4785786636821670E-033
  0.16710000000000003          4.1196667395198314E-033
  0.16820000000000002         -4.6050757301204617E-033
  0.16930000000000001         -1.4808481449166419E-032
  0.17040000000000000         -2.1421436554595903E-032
  0.17150000000000004         -1.9069919119478151E-032
  0.17260000000000003         -4.9896045009270163E-033
  0.17370000000000002          1.8218545502008717E-032
  0.17480000000000001          4.1640529572194150E-032
  0.17590000000000000          5.2263495007368059E-032
  0.17700000000000005          3.8500158708255773E-032
  0.17810000000000004         -2.6546441479213879E-033
  0.17920000000000003         -6.0182532548162952E-032
  0.18030000000000002         -1.0914589589064168E-031
  0.18140000000000001         -1.1867520732078201E-031
  0.18250000000000000         -6.6708978537381268E-032
  0.18360000000000004          4.3947685133140513E-032
  0.18470000000000003          1.7672284495296359E-031
  0.18580000000000002          2.6753183373283580E-031
  0.18690000000000001          2.4898189000553497E-031
  0.18800000000000000          8.6394231798757054E-032
  0.18910000000000005         -1.8962885597132381E-031
  0.19020000000000004         -4.7364643442120171E-031
  0.19130000000000003         -6.1343029274389935E-031
  0.19240000000000002         -4.7510863312079654E-031
  0.19350000000000001         -2.4041926195671939E-032
  0.19460000000000005          6.1710250820043392E-031
  0.19570000000000004          1.1740715565593928E-030
  0.19680000000000003          1.3121857718471308E-030
  0.19790000000000002          7.9574809221104053E-031
  0.19900000000000001         -3.4569946127205477E-031
  0.20010000000000000         -1.7328062473304464E-030
  0.20120000000000005         -2.7106391518505742E-030
  0.20230000000000004         -2.6006611569953077E-030
  0.20340000000000003         -1.0591923203441747E-030
  0.20450000000000002          1.6134436254665602E-030
  0.20560000000000000          4.3991750559644856E-030
  0.20670000000000005          5.8495983453572551E-030
  0.20780000000000004          4.7095365251169649E-030
  0.20890000000000003          6.6036158147753863E-031
  0.21000000000000002         -5.1754261129672941E-030
  0.21110000000000001         -1.0324919992132524E-029
  0.21220000000000000         -1.1811685867656018E-029
  0.21330000000000005         -7.5684741455336660E-030
  0.21440000000000003          2.1450097525842131E-030
  0.21550000000000002          1.4076514935716860E-029
  0.21660000000000001          2.2681680324320376E-029
  0.21770000000000000          2.2282812607880959E-029
  0.21880000000000005          1.0030658137992848E-029
  0.21990000000000004         -1.1634717503480897E-029
  0.22100000000000003         -3.4497411727498727E-029
  0.22210000000000002         -4.6967930918341345E-029
  0.22320000000000001         -3.9059312032762782E-029
  0.22430000000000000         -8.1571282311460404E-030
  0.22540000000000004          3.7195720581856017E-029
  0.22650000000000003          7.8132182938603611E-029
  0.22760000000000002          9.1963158142042493E-029
  0.22870000000000001          6.2759984517727621E-029
  0.22980000000000000         -8.2124053961248678E-030
  0.23090000000000005         -9.7696478217475349E-029
  0.23200000000000004         -1.6554066037410849E-028
  0.23310000000000003         -1.7013273440985334E-028
  0.23420000000000002         -8.9372149207452376E-029
  0.23530000000000001          6.1956567925001865E-029
  0.23640000000000000          2.2846825635433860E-028
  0.23750000000000004          3.3016934360820490E-028
  0.23860000000000003          2.9587238147082807E-028
  0.23970000000000002          1.0210636184444373E-028
  0.24080000000000001         -2.0075498063677512E-028
  0.24190000000000000         -4.9225558906363555E-028
  0.24300000000000005         -6.2233893510639844E-028
  0.24410000000000004         -4.7862471567256461E-028
  0.24520000000000003         -5.4052922453132087E-029
  0.24630000000000002          5.1928878125780599E-028
  0.24740000000000001          9.9690543926313125E-028
  0.24850000000000005          1.1128471332047611E-027
  0.24960000000000004          7.0708875399539114E-028
  0.25070000000000003         -1.6458306614045608E-028
  0.25180000000000002         -1.1982379339540581E-027
  0.25290000000000001         -1.9246711289854656E-027
  0.25400000000000000         -1.8976455390702343E-027
  0.25510000000000005         -9.2225611529720602E-028
  0.25620000000000004          7.7954781517863652E-028
  0.25730000000000003          2.5655969525486420E-027
  0.25840000000000002          3.5774731881525351E-027
  0.25950000000000001          3.1060506065023201E-027
  0.26060000000000005          9.8070431447093778E-028
  0.26170000000000004         -2.2035686023905680E-027
  0.26280000000000003         -5.1753064886921614E-027
  0.26390000000000002         -6.4304326055605766E-027
  0.26500000000000001         -4.9049023820904997E-027
  0.26610000000000000         -6.0604457692138494E-028
  0.26720000000000005          5.1157193685235584E-027
  0.26830000000000004          9.8777036575083443E-027
  0.26940000000000003          1.1153385670271442E-026
  0.27050000000000002          7.4517967351703268E-027
  0.27160000000000001         -7.1016261194873149E-028
  0.27270000000000005         -1.0561735486586728E-026
  0.27380000000000004         -1.7853060572927689E-026
  0.27490000000000003         -1.8524074972573361E-026
  0.27600000000000002         -1.0681128717498199E-026
  0.27710000000000001          3.9913774819952003E-027
  0.27820000000000000          2.0191008174278568E-026
  0.27930000000000005          3.0667445062216900E-026
  0.28040000000000004          2.9203052791062108E-026
  0.28150000000000003          1.3787559711919926E-026
  0.28260000000000002         -1.1476374985306194E-026
  0.28370000000000001         -3.6928243580861811E-026
  0.28480000000000005         -5.0657168464554474E-026
  0.28590000000000004         -4.3614063874312654E-026
  0.28700000000000003         -1.4514889635912723E-026
  0.28810000000000002          2.7826029093238012E-026
  0.28920000000000001          6.6401324965099654E-026
  0.29030000000000000          8.2191443447416061E-026
  0.29140000000000005          6.2653694576600006E-026
  0.29250000000000004          9.0398147318752200E-027
  0.29360000000000003         -6.1141207005585996E-026
  0.29470000000000002         -1.1871878175167118E-025
  0.29580000000000001         -1.3389314648535334E-025
  0.29690000000000005         -8.9950493192236047E-026
  0.29800000000000004          6.1354426675776118E-027
  0.29910000000000003          1.2178411121413898E-025
  0.30020000000000002          2.0828317599090976E-025
  0.30130000000000001          2.1967001067944638E-025
  0.30240000000000000          1.3429190570751972E-025
  0.30350000000000005         -3.0280503501925114E-026
  0.30460000000000004         -2.1714188475344115E-025
  0.30570000000000003         -3.4775448925692838E-025
  0.30680000000000002         -3.5293954082230251E-025
  0.30790000000000001         -2.0570089521162613E-025
  0.30900000000000005          5.8618259510206305E-026
  0.31010000000000004          3.4635779640692293E-025
  0.31120000000000003          5.3646435849081903E-025
  0.31230000000000002          5.2936383307583871E-025
  0.31340000000000001          2.9505320831424346E-025
  0.31450000000000006         -1.0139076436430036E-025
  0.31560000000000005         -5.1243306440256615E-025
  0.31670000000000004         -7.5993479302382273E-025
  0.31780000000000003         -7.0978897518937286E-025
  0.31890000000000002         -3.3964023443453478E-025
  0.32000000000000001          2.3216671482982246E-025
  0.32110000000000005          7.7635890217078803E-025
  0.32220000000000004          1.0381093768243761E-024
  0.32330000000000003          8.4912724258285342E-025
  0.32440000000000002          2.2031010783974182E-025
  0.32550000000000001         -6.3064560643852029E-025
  0.32660000000000006         -1.3410065119400050E-024
  0.32770000000000005         -1.5424205930514452E-024
  0.32880000000000004         -1.0290987662964167E-024
  0.32990000000000003          1.1590430314805832E-025
  0.33100000000000002          1.5008794984481721E-024
  0.33210000000000001          2.5406242754937950E-024
  0.33320000000000005          2.6799761640836951E-024
  0.33430000000000004          1.6462821932905036E-024
  0.33540000000000003         -3.7533077617059132E-025
  0.33650000000000002         -2.7343796001460182E-024
  0.33760000000000001         -4.5075483985237338E-024
  0.33870000000000006         -4.8418425588025452E-024
  0.33980000000000005         -3.3254510756000443E-024
  0.34090000000000004         -2.3187001838661147E-025
  0.34200000000000003          3.4863513542054459E-024
  0.34310000000000002          6.4887220538778280E-024
  0.34420000000000001          7.5399226142685344E-024
  0.34530000000000005          6.0236168140544009E-024
  0.34640000000000004          2.2619256004743160E-024
  0.34750000000000003         -2.5195092709231574E-024
  0.34860000000000002         -6.6087198027076129E-024
  0.34970000000000001         -8.4724121041029211E-024
  0.35080000000000006         -7.4091670975408847E-024
  0.35190000000000005         -3.9036819346437295E-024
  0.35300000000000004          5.0921071349496669E-025
  0.35410000000000003          3.8677203704788931E-024
  0.35520000000000002          4.6703308652743716E-024
  0.35630000000000001          2.6526484044174039E-024
  0.35740000000000005         -9.2505806735266259E-025
  0.35850000000000004         -3.6919984285930148E-024
  0.35960000000000003         -3.2057607340873399E-024
  0.36070000000000002          1.7625647197199894E-024
  0.36180000000000001          1.0256506541585119E-023
  0.36290000000000006          1.8995067702146668E-023
  0.36400000000000005          2.3306463008496805E-023
  0.36510000000000004          1.8940080948807635E-023
  0.36620000000000003          4.1366742177017574E-024
  0.36730000000000002         -1.8892759748208621E-023
  0.36840000000000006         -4.3832566008351511E-023
  0.36950000000000005         -6.1793704944510114E-023
  0.37060000000000004         -6.4196322727586669E-023
  0.37170000000000003         -4.6087106375362681E-023
  0.37280000000000002         -8.6612494861674061E-024
  0.37390000000000001          4.0097868926929373E-023
  0.37500000000000006          8.7150512491171937E-023
  0.37610000000000005          1.1813147436510470E-022
  0.37720000000000004          1.2190429713217505E-022
  0.37830000000000003          9.4351589845755768E-023
  0.37940000000000002          3.9996744556031633E-023
  0.38050000000000006         -2.9194009193787709E-023
  0.38160000000000005         -9.7423670298548385E-023
  0.38270000000000004         -1.4974213396841226E-022
  0.38380000000000003         -1.7601733715238933E-022
  0.38490000000000002         -1.7273957288934514E-022
  0.38600000000000001         -1.4215687267801251E-022
  0.38710000000000000         -8.9462199341580773E-023
  0.38819999999999999         -1.9700875698386839E-023
  0.38930000000000009          6.3734130137653316E-023
  0.39040000000000008          1.5788105147932158E-022
  0.39150000000000007          2.5655663176855911E-022
  0.39260000000000006          3.4611049581872757E-022
  0.39370000000000005          4.0334778196039272E-022
  0.39480000000000004          3.9811214987176477E-022
  0.39590000000000003          3.0144380415532723E-022
  0.39700000000000002          9.7795357364390742E-023
  0.39810000000000001         -2.0257644797350404E-022
  0.39920000000000000         -5.5616914161169940E-022
  0.40029999999999999         -8.8823362079801053E-022
  0.40140000000000009         -1.1061066335463480E-021
  0.40250000000000008         -1.1219229392358614E-021
  0.40360000000000007         -8.7899425053638030E-022
  0.40470000000000006         -3.7395311505330751E-022
  0.40580000000000005          3.3283240338323153E-022
  0.40690000000000004          1.1229370856875068E-021
  0.40800000000000003          1.8411224715597528E-021
  0.40910000000000002          2.3266984602189103E-021
  0.41020000000000001          2.4464848206811618E-021
  0.41130000000000000          2.1208868435750402E-021
  0.41239999999999999          1.3377638566854593E-021
  0.41350000000000009          1.5377218693371078E-022
  0.41460000000000008         -1.3125135131023151E-021
  0.41570000000000007         -2.8893857365906360E-021
  0.41680000000000006         -4.3582345258269200E-021
  0.41790000000000005         -5.4580181045214429E-021
  0.41900000000000004         -5.8952102580892850E-021
  0.42010000000000003         -5.3707469878160296E-021
  0.42120000000000002         -3.6344509487176997E-021
  0.42230000000000001         -5.6950980950766583E-022
  0.42340000000000000          3.7041714313951716E-021
  0.42449999999999999          8.7346395997927825E-021
  0.42560000000000009          1.3689443901088365E-020
  0.42670000000000008          1.7395202068822968E-020
  0.42780000000000007          1.8494848642035954E-020
  0.42890000000000006          1.5726722591375279E-020
  0.43000000000000005          8.2939151467268505E-021
  0.43110000000000004         -3.7455834494178947E-021
  0.43220000000000003         -1.9167325466512401E-020
  0.43330000000000002         -3.5458760156747213E-020
  0.43440000000000001         -4.8985147551768923E-020
  0.43550000000000000         -5.5498391863385332E-020
  0.43659999999999999         -5.0976201671865211E-020
  0.43770000000000009         -3.2693902568553426E-020
  0.43880000000000008         -3.4347075589868866E-022
  0.43990000000000007          4.3057495415522831E-020
  0.44100000000000006          9.0759194945394309E-020
  0.44210000000000005          1.3264634195326842E-019
  0.44320000000000004          1.5655566791727102E-019
  0.44430000000000003          1.5055285379852545E-019
  0.44540000000000002          1.0594531532397974E-019
  0.44650000000000001          2.0544832115293421E-020
  0.44760000000000000         -9.8543527574697430E-020
  0.44869999999999999         -2.3347210394190012E-019
  0.44980000000000009         -3.5637939642023535E-019
  0.45090000000000008         -4.3288198766174325E-019
  0.45200000000000007         -4.2841616522980786E-019
  0.45310000000000006         -3.1681589525193406E-019
  0.45420000000000005         -8.9723206681953724E-020
  0.45530000000000004          2.3527348565928898E-019
  0.45640000000000003          6.1027600221489099E-019
  0.45750000000000002          9.5887317370950579E-019
  0.45860000000000001          1.1857130852481545E-018
  0.45970000000000000          1.1940219591565129E-018
  0.46079999999999999          9.0928406841846171E-019
  0.46190000000000009          3.0515491711717544E-019
  0.46300000000000008         -5.7415224024619424E-019
  0.46410000000000007         -1.6017329659861499E-018
  0.46520000000000006         -2.5724297449696016E-018
  0.46630000000000005         -3.2280498987189457E-018
  0.46740000000000004         -3.3037690088200290E-018
  0.46850000000000003         -2.5910451748970951E-018
  0.46960000000000002         -1.0068653686187599E-018
  0.47070000000000001          1.3455673708804458E-018
  0.47180000000000000          4.1421535930938126E-018
  0.47289999999999999          6.8457852609699083E-018
  0.47400000000000009          8.7682536671305645E-018
  0.47510000000000008          9.1881685292240172E-018
  0.47620000000000007          7.5141446516151954E-018
  0.47730000000000006          3.4683658861633134E-018
  0.47840000000000005         -2.7468550623630445E-018