-0.1200000E+00  0.0000000E+00
-0.1189000E+00  0.0000000E+00
-0.1178000E+00  0.0000000E+00
-0.1167000E+00  0.0000000E+00
-0.1156000E+00  0.0000000E+00
-0.1145000E+00  0.0000000E+00
-0.1134000E+00  0.0000000E+00
-0.1123000E+00  0.0000000E+00
-0.1112000E+00  0.0000000E+00
-0.1101000E+00  0.0000000E+00
-0.1090000E+00  0.0000000E+00
-0.1079000E+00  0.0000000E+00
-0.1068000E+00  0.0000000E+00
-0.1057000E+00  0.0000000E+00
-0.1046000E+00  0.0000000E+00
-0.1035000E+00  0.0000000E+00
-0.1024000E+00  0.0000000E+00
-0.1013000E+00  0.0000000E+00
-0.1002000E+00  0.0000000E+00
-0.9910000E-01  0.0000000E+00
-0.9800000E-01  0.0000000E+00
-0.9690000E-01  0.0000000E+00
-0.9580000E-01  0.0000000E+00
-0.9470000E-01  0.0000000E+00
-0.9360000E-01  0.0000000E+00
-0.9250000E-01  0.0000000E+00
-0.9140000E-01  0.0000000E+00
-0.9030000E-01  0.0000000E+00
-0.8920000E-01  0.0000000E+00
-0.8810000E-01  0.0000000E+00
-0.8700000E-01  0.0000000E+00
-0.8590000E-01  0.0000000E+00
-0.8480000E-01  0.0000000E+00
-0.8370000E-01  0.0000000E+00
-0.8260000E-01  0.0000000E+00
-0.8150000E-01  0.0000000E+00
-0.8040000E-01  0.0000000E+00
-0.7930000E-01  0.0000000E+00
-0.7820000E-01  0.0000000E+00
-0.7710000E-01  0.0000000E+00
-0.7600000E-01  0.0000000E+00
-0.7490000E-01  0.0000000E+00
-0.7380000E-01  0.0000000E+00
-0.7270000E-01  0.0000000E+00
-0.7160000E-01  0.0000000E+00
-0.7050000E-01  0.0000000E+00
-0.6940000E-01  0.0000000E+00
-0.6830000E-01  0.0000000E+00
-0.6720000E-01  0.0000000E+00
-0.6610000E-01  0.0000000E+00
-0.6500000E-01  0.0000000E+00
-0.6390000E-01  0.0000000E+00
-0.6280000E-01  0.0000000E+00
-0.6170000E-01  0.0000000E+00
-0.6060000E-01  0.0000000E+00
-0.5950000E-01  0.0000000E+00
-0.5840000E-01  0.0000000E+00
-0.5730000E-01  0.0000000E+00
-0.5620000E-01  0.0000000E+00
-0.5510000E-01  0.0000000E+00
-0.5400000E-01  0.0000000E+00
-0.5290000E-01  0.0000000E+00
-0.5180000E-01  0.0000000E+00
-0.5070000E-01  0.0000000E+00
-0.4960000E-01  0.0000000E+00
-0.4850000E-01  0.0000000E+00
-0.4740000E-01  0.0000000E+00
-0.4630000E-01  0.0000000E+00
-0.4520000E-01  0.0000000E+00
-0.4410000E-01  0.0000000E+00
-0.4300000E-01  0.0000000E+00
-0.4190000E-01  0.0000000E+00
-0.4080000E-01  0.0000000E+00
-0.3970000E-01  0.0000000E+00
-0.3860000E-01  0.0000000E+00
-0.3750000E-01  0.0000000E+00
-0.3640000E-01  0.0000000E+00
-0.3530000E-01  0.0000000E+00
-0.3420000E-01  0.0000000E+00
-0.3310000E-01  0.0000000E+00
-0.3200000E-01  0.0000000E+00
-0.3090000E-01  0.0000000E+00
-0.2980000E-01  0.0000000E+00
-0.2870000E-01  0.0000000E+00
-0.2760000E-01 -0.0000000E+00
-0.2650000E-01 -0.0000000E+00
-0.2540000E-01 -0.0000000E+00
-0.2430000E-01 -0.0000000E+00
-0.2320000E-01 -0.0000000E+00
-0.2210000E-01  0.0000000E+00
-0.2100000E-01  0.0000000E+00
-0.1990000E-01  0.2140880E-37
-0.1880000E-01  0.1385348E-37
-0.1770000E-01 -0.2836388E-37
-0.1660000E-01 -0.1295336E-36
-0.1550000E-01 -0.2385288E-36
-0.1440000E-01 -0.2442169E-36
-0.1330000E-01 -0.1744224E-37
-0.1220000E-01  0.5440356E-36
-0.1110000E-01  0.1318634E-35
-0.1000000E-01  0.1809577E-35
-0.8900000E-02  0.1110343E-35
-0.7800000E-02 -0.1750712E-35
-0.6700000E-02 -0.6947657E-35
-0.5600000E-02 -0.1259831E-34
-0.4500000E-02 -0.1382928E-34
-0.3400000E-02 -0.3507906E-35
-0.2300000E-02  0.2390658E-34
-0.1200000E-02  0.6508049E-34
-0.1000000E-03  0.9963659E-34
 0.1000000E-02  0.8759499E-34
 0.2100000E-02 -0.1835208E-34
 0.3200000E-02 -0.2390641E-33
 0.4300000E-02 -0.5186114E-33
 0.5400000E-02 -0.6828964E-33
 0.6500000E-02 -0.4540830E-33
 0.7600000E-02  0.4283475E-33
 0.8700000E-02  0.1965086E-32
 0.9800000E-02  0.3606347E-32
 0.1090000E-01  0.4106842E-32
 0.1200000E-01  0.1804422E-32
 0.1310000E-01 -0.4460137E-32
 0.1420000E-01 -0.1386875E-31
 0.1530000E-01 -0.2222655E-31
 0.1640000E-01 -0.2184292E-31
 0.1750000E-01 -0.4072795E-32
 0.1860000E-01  0.3486253E-31
 0.1970000E-01  0.8614237E-31
 0.2080000E-01  0.1228763E-30
 0.2190000E-01  0.1032670E-30
 0.2300000E-01 -0.1191135E-31
 0.2410000E-01 -0.2275116E-30
 0.2520000E-01 -0.4786999E-30
 0.2630000E-01 -0.6152813E-30
 0.2740000E-01 -0.4347349E-30
 0.2850000E-01  0.2174461E-30
 0.2960000E-01  0.1294684E-29
 0.3070000E-01  0.2408780E-29
 0.3180000E-01  0.2813100E-29
 0.3290000E-01  0.1624714E-29
 0.3400000E-01 -0.1674101E-29
 0.3510000E-01 -0.6578407E-29
 0.3620000E-01 -0.1107833E-28
 0.3730000E-01 -0.1182333E-28
 0.3840000E-01 -0.5327382E-29
 0.3950000E-01  0.9797944E-29
 0.4060000E-01  0.3030308E-28
 0.4170000E-01  0.4692223E-28
 0.4280000E-01  0.4594097E-28
 0.4390000E-01  0.1484390E-28
 0.4500000E-01 -0.4869599E-28
 0.4610000E-01 -0.1279454E-27
 0.4720000E-01 -0.1841883E-27
 0.4830000E-01 -0.1658078E-27
 0.4940000E-01 -0.3188614E-28
 0.5050000E-01  0.2147374E-27
 0.5160000E-01  0.4994390E-27
 0.5270000E-01  0.6737851E-27
 0.5380000E-01  0.5579679E-27
 0.5490000E-01  0.3040796E-28
 0.5600000E-01 -0.8603203E-27
 0.5710000E-01 -0.1815703E-26
 0.5820000E-01 -0.2308644E-26
 0.5930000E-01 -0.1756135E-26
 0.6040000E-01  0.1676593E-27
 0.6150000E-01  0.3180309E-26
 0.6260000E-01  0.6188962E-26
 0.6370000E-01  0.7446273E-26
 0.6480000E-01  0.5183669E-26
 0.6590000E-01 -0.1372034E-26
 0.6700000E-01 -0.1097277E-25
 0.6810000E-01 -0.1990720E-25
 0.6920000E-01 -0.2272955E-25
 0.7030000E-01 -0.1439450E-25
 0.7140000E-01  0.6650075E-26
 0.7250000E-01  0.3565706E-25
 0.7360000E-01  0.6081600E-25
 0.7470000E-01  0.6606367E-25
 0.7580000E-01  0.3778687E-25
 0.7690000E-01 -0.2629758E-25
 0.7800000E-01 -0.1099202E-24
 0.7910000E-01 -0.1775785E-24
 0.8020000E-01 -0.1841340E-24
 0.8130000E-01 -0.9460354E-25
 0.8240000E-01  0.9161185E-25
 0.8350000E-01  0.3231258E-24
 0.8460000E-01  0.4984726E-24
 0.8570000E-01  0.4960418E-24
 0.8680000E-01  0.2294543E-24
 0.8790000E-01 -0.2892042E-24
 0.8900000E-01 -0.9084570E-24
 0.9010000E-01 -0.1351206E-23
 0.9120000E-01 -0.1301485E-23
 0.9230000E-01 -0.5521490E-24
 0.9340000E-01  0.8363065E-24
 0.9450000E-01  0.2444023E-23
 0.9560000E-01  0.3545350E-23
 0.9670000E-01  0.3344850E-23
 0.9780000E-01  0.1354430E-23
 0.9890000E-01 -0.2220720E-23
 0.1000000E+00 -0.6281540E-23
 0.1011000E+00 -0.9002130E-23
 0.1022000E+00 -0.8436408E-23
 0.1033000E+00 -0.3443254E-23
 0.1044000E+00  0.5402636E-23
 0.1055000E+00  0.1537697E-22
 0.1066000E+00  0.2206174E-22
 0.1077000E+00  0.2082578E-22
 0.1088000E+00  0.9009809E-23
 0.1099000E+00 -0.1198069E-22
 0.1110000E+00 -0.3573817E-22
 0.1121000E+00 -0.5198147E-22
 0.1132000E+00 -0.4999994E-22
 0.1143000E+00 -0.2363022E-22
 0.1154000E+00  0.2405705E-22
 0.1165000E+00  0.7872480E-22
 0.1176000E+00  0.1173532E-21
 0.1187000E+00  0.1159054E-21
 0.1198000E+00  0.6027997E-22
 0.1209000E+00 -0.4345820E-22
 0.1220000E+00 -0.1646644E-21
 0.1231000E+00 -0.2536604E-21
 0.1242000E+00 -0.2581342E-21
 0.1253000E+00 -0.1464889E-21
 0.1264000E+00  0.7036630E-22
 0.1275000E+00  0.3294665E-21
 0.1286000E+00  0.5270736E-21
 0.1297000E+00  0.5525748E-21
 0.1308000E+00  0.3368877E-21
 0.1319000E+00 -0.1021373E-21
 0.1330000E+00 -0.6391818E-21
 0.1341000E+00 -0.1063342E-20
 0.1352000E+00 -0.1146185E-20
 0.1363000E+00 -0.7397870E-21
 0.1374000E+00  0.1302894E-21
 0.1385000E+00  0.1220955E-20
 0.1396000E+00  0.2111960E-20
 0.1407000E+00  0.2339000E-20
 0.1418000E+00  0.1588566E-20
 0.1429000E+00 -0.1139009E-21
 0.1440000E+00 -0.2309050E-20
 0.1451000E+00 -0.4173077E-20
 0.1462000E+00 -0.4771021E-20
 0.1473000E+00 -0.3437282E-20
 0.1484000E+00 -0.1532401E-21
 0.1495000E+00  0.4245767E-20
 0.1506000E+00  0.8176335E-20
 0.1517000E+00  0.9772392E-20
 0.1528000E+00  0.7612916E-20
 0.1539000E+00  0.1472079E-20
 0.1550000E+00 -0.7226970E-20
 0.1561000E+00 -0.1553625E-19
 0.1572000E+00 -0.1979708E-19
 0.1583000E+00 -0.1699116E-19
 0.1594000E+00 -0.6203191E-20
 0.1605000E+00  0.1039518E-19
 0.1616000E+00  0.2758795E-19
 0.1627000E+00  0.3844525E-19
 0.1638000E+00  0.3672999E-19
 0.1649000E+00  0.1966105E-19
 0.1660000E+00 -0.1002323E-19
 0.1671000E+00 -0.4373801E-19
 0.1682000E+00 -0.6903991E-19
 0.1693000E+00 -0.7369485E-19
 0.1704000E+00 -0.5067288E-19
 0.1715000E+00 -0.2253143E-20
 0.1726000E+00  0.5865151E-19
 0.1737000E+00  0.1111513E-18
 0.1748000E+00  0.1328718E-18
 0.1759000E+00  0.1085345E-18
 0.1770000E+00  0.3762390E-19
 0.1781000E+00 -0.6217090E-19
 0.1792000E+00 -0.1580734E-18
 0.1803000E+00 -0.2120777E-18
 0.1814000E+00 -0.1950215E-18
 0.1825000E+00 -0.1000767E-18
 0.1836000E+00  0.4994695E-19
 0.1847000E+00  0.2057784E-18
 0.1858000E+00  0.3062794E-18
 0.1869000E+00  0.3009250E-18
 0.1880000E+00  0.1726459E-18
 0.1891000E+00 -0.4826643E-19
 0.1902000E+00 -0.2868358E-18
 0.1913000E+00 -0.4451577E-18
 0.1924000E+00 -0.4384367E-18
 0.1935000E+00 -0.2335826E-18
 0.1946000E+00  0.1250123E-18
 0.1957000E+00  0.5160641E-18
 0.1968000E+00  0.7741580E-18
 0.1979000E+00  0.7486529E-18
 0.1990000E+00  0.3706956E-18
 0.2001000E+00 -0.2970871E-18
 0.2012000E+00 -0.1052470E-17
 0.2023000E+00 -0.1600212E-17
 0.2034000E+00 -0.1647643E-17
 0.2045000E+00 -0.1022923E-17
 0.2056000E+00  0.2252471E-18
 0.2067000E+00  0.1789603E-17
 0.2078000E+00  0.3156826E-17
 0.2089000E+00  0.3751056E-17
 0.2100000E+00  0.3134406E-17
 0.2111000E+00  0.1201999E-17
 0.2122000E+00 -0.1701780E-17
 0.2133000E+00 -0.4804615E-17
 0.2144000E+00 -0.7085137E-17
 0.2155000E+00 -0.7575976E-17
 0.2166000E+00 -0.5707006E-17
 0.2177000E+00 -0.1575799E-17
 0.2188000E+00  0.3960934E-17
 0.2199000E+00  0.9435532E-17
 0.2210000E+00  0.1314391E-16
 0.2221000E+00  0.1365330E-16
 0.2232000E+00  0.1029198E-16
 0.2243000E+00  0.3457075E-17
 0.2254000E+00 -0.5380870E-17
 0.2265000E+00 -0.1400870E-16
 0.2276000E+00 -0.2005938E-16
 0.2287000E+00 -0.2168871E-16
 0.2298000E+00 -0.1812872E-16
 0.2309000E+00 -0.9936109E-17
 0.2320000E+00  0.1151075E-17
 0.2331000E+00  0.1270386E-16
 0.2342000E+00  0.2227406E-16
 0.2353000E+00  0.2801668E-16
 0.2364000E+00  0.2905248E-16
 0.2375000E+00  0.2546357E-16
 0.2386000E+00  0.1796607E-16
 0.2397000E+00  0.7445203E-17
 0.2408000E+00 -0.5392317E-17
 0.2419000E+00 -0.2003356E-16
 0.2430000E+00 -0.3577638E-16
 0.2441000E+00 -0.5109124E-16
 0.2452000E+00 -0.6305876E-16
 0.2463000E+00 -0.6729292E-16
 0.2474000E+00 -0.5866923E-16
 0.2485000E+00 -0.3291627E-16
 0.2496000E+00  0.1123692E-16
 0.2507000E+00  0.7001328E-16
 0.2518000E+00  0.1334853E-15
 0.2529000E+00  0.1861835E-15
 0.2540000E+00  0.2097985E-15
 0.2551000E+00  0.1877452E-15
 0.2562000E+00  0.1106670E-15
 0.2573000E+00 -0.1857921E-16
 0.2584000E+00 -0.1821099E-15
 0.2595000E+00 -0.3477423E-15
 0.2606000E+00 -0.4738823E-15
 0.2617000E+00 -0.5181339E-15
 0.2628000E+00 -0.4480816E-15
 0.2639000E+00 -0.2518431E-15
 0.2650000E+00  0.5434860E-16
 0.2661000E+00  0.4239531E-15
 0.2672000E+00  0.7847910E-15
 0.2683000E+00  0.1050637E-14
 0.2694000E+00  0.1138236E-14
 0.2705000E+00  0.9868425E-15
 0.2716000E+00  0.5764497E-15
 0.2727000E+00 -0.5939786E-16
 0.2738000E+00 -0.8298411E-15
 0.2749000E+00 -0.1594418E-14
 0.2760000E+00 -0.2182864E-14
 0.2771000E+00 -0.2425387E-14
 0.2782000E+00 -0.2189406E-14
 0.2793000E+00 -0.1416588E-14
 0.2804000E+00 -0.1524845E-15
 0.2815000E+00  0.1439310E-14
 0.2826000E+00  0.3085309E-14
 0.2837000E+00  0.4436358E-14
 0.2848000E+00  0.5126871E-14
 0.2859000E+00  0.4852016E-14
 0.2870000E+00  0.3449816E-14
 0.2881000E+00  0.9706165E-15
 0.2892000E+00 -0.2285073E-14
 0.2903000E+00 -0.5776591E-14
 0.2914000E+00 -0.8789742E-14
 0.2925000E+00 -0.1055752E-13
 0.2936000E+00 -0.1041918E-13
 0.2947000E+00 -0.7989604E-14
 0.2958000E+00 -0.3302885E-14
 0.2969000E+00  0.3107503E-14
 0.2980000E+00  0.1022215E-13
 0.2991000E+00  0.1665796E-13
 0.3002000E+00  0.2089325E-13
 0.3013000E+00  0.2156621E-13
 0.3024000E+00  0.1779687E-13
 0.3035000E+00  0.9468889E-14
 0.3046000E+00 -0.2594791E-14
 0.3057000E+00 -0.1661828E-13
 0.3068000E+00 -0.3005398E-13
 0.3079000E+00 -0.3995871E-13
 0.3090000E+00 -0.4352592E-13
 0.3101000E+00 -0.3869712E-13
 0.3112000E+00 -0.2474424E-13
 0.3123000E+00 -0.2698382E-14
 0.3134000E+00  0.2449617E-13
 0.3145000E+00  0.5219412E-13
 0.3156000E+00  0.7466496E-13
 0.3167000E+00  0.8607321E-13
 0.3178000E+00  0.8169694E-13
 0.3189000E+00  0.5917651E-13
 0.3200000E+00  0.1952815E-13
 0.3211000E+00 -0.3235384E-13
 0.3222000E+00 -0.8793328E-13
 0.3233000E+00 -0.1361190E-12
 0.3244000E+00 -0.1651456E-12
 0.3255000E+00 -0.1649970E-12
 0.3266000E+00 -0.1299393E-12
 0.3277000E+00 -0.6061597E-13
 0.3288000E+00  0.3485418E-13
 0.3299000E+00  0.1412166E-12
 0.3310000E+00  0.2380488E-12
 0.3321000E+00  0.3032108E-12
 0.3332000E+00  0.3172723E-12
 0.3343000E+00  0.2681035E-12
 0.3354000E+00  0.1546602E-12
 0.3365000E+00 -0.1097685E-13
 0.3376000E+00 -0.2039928E-12
 0.3387000E+00 -0.3899145E-12
 0.3398000E+00 -0.5300899E-12
 0.3409000E+00 -0.5887637E-12
 0.3420000E+00 -0.5405350E-12
 0.3431000E+00 -0.3767943E-12
 0.3442000E+00 -0.1098096E-12
 0.3453000E+00  0.2265436E-12
 0.3464000E+00  0.5798893E-12
 0.3475000E+00  0.8861560E-12
 0.3486000E+00  0.1079325E-11
 0.3497000E+00  0.1102847E-11
 0.3508000E+00  0.9211072E-12
 0.3519000E+00  0.5291291E-12
 0.3530000E+00 -0.4120970E-13
 0.3541000E+00 -0.7199831E-12
 0.3552000E+00 -0.1404098E-11
 0.3563000E+00 -0.1968658E-11
 0.3574000E+00 -0.2284347E-11
 0.3585000E+00 -0.2239300E-11
 0.3596000E+00 -0.1762809E-11
 0.3607000E+00 -0.8471810E-12
 0.3618000E+00  0.4366303E-12
 0.3629000E+00  0.1934001E-11
 0.3640000E+00  0.3415803E-11
 0.3651000E+00  0.4603506E-11
 0.3662000E+00  0.5209277E-11
 0.3673000E+00  0.4986982E-11
 0.3684000E+00  0.3786835E-11
 0.3695000E+00  0.1604151E-11
 0.3706000E+00 -0.1388261E-11
 0.3717000E+00 -0.4833426E-11
 0.3728000E+00 -0.8215510E-11
 0.3739000E+00 -0.1091849E-10
 0.3750000E+00 -0.1231369E-10
 0.3761000E+00 -0.1186574E-10
 0.3772000E+00 -0.9241882E-11
 0.3783000E+00 -0.4406854E-11
 0.3794000E+00  0.2314403E-11
 0.3805000E+00  0.1022084E-10
 0.3816000E+00  0.1827555E-10
 0.3827000E+00  0.2520405E-10
 0.3838000E+00  0.2964489E-10
 0.3849000E+00  0.3033854E-10
 0.3860000E+00  0.2633446E-10
 0.3871000E+00  0.1719101E-10
 0.3882000E+00  0.3140558E-11
 0.3893000E+00 -0.1480788E-10
 0.3904000E+00 -0.3485284E-10
 0.3915000E+00 -0.5448961E-10
 0.3926000E+00 -0.7071312E-10
 0.3937000E+00 -0.8033035E-10
 0.3948000E+00 -0.8036322E-10
 0.3959000E+00 -0.6850732E-10
 0.3970000E+00 -0.4359640E-10
 0.3981000E+00 -0.6012496E-11
 0.3992000E+00  0.4202464E-10
 0.4003000E+00  0.9635071E-10
 0.4014000E+00  0.1509828E-09
 0.4025000E+00  0.1985068E-09
 0.4036000E+00  0.2307255E-09
 0.4047000E+00  0.2395360E-09
 0.4058000E+00  0.2179715E-09
 0.4069000E+00  0.1613122E-09
 0.4080000E+00  0.6815340E-10
 0.4091000E+00 -0.5869975E-10
 0.4102000E+00 -0.2116366E-09
 0.4113000E+00 -0.3780644E-09
 0.4124000E+00 -0.5407468E-09
 0.4135000E+00 -0.6787246E-09
 0.4146000E+00 -0.7688392E-09
 0.4157000E+00 -0.7878311E-09
 0.4168000E+00 -0.7149213E-09
 0.4179000E+00 -0.5347185E-09
 0.4190000E+00 -0.2402281E-09
 0.4201000E+00  0.1643187E-09
 0.4212000E+00  0.6611390E-09
 0.4223000E+00  0.1217414E-08
 0.4234000E+00  0.1784961E-08
 0.4245000E+00  0.2301320E-08
 0.4256000E+00  0.2692421E-08
 0.4267000E+00  0.2876876E-08
 0.4278000E+00  0.2771793E-08
 0.4289000E+00  0.2299916E-08
 0.4300000E+00  0.1397747E-08
 0.4311000E+00  0.2428003E-10
 0.4322000E+00 -0.1830062E-08
 0.4333000E+00 -0.4134650E-08
 0.4344000E+00 -0.6810323E-08
 0.4355000E+00 -0.9721661E-08
 0.4366000E+00 -0.1266989E-07
 0.4377000E+00 -0.1538629E-07
 0.4388000E+00 -0.1752572E-07
 0.4399000E+00 -0.1865985E-07
 0.4410000E+00 -0.1826940E-07
 0.4421000E+00 -0.1573439E-07
 0.4432000E+00 -0.1032148E-07
 0.4443000E+00 -0.1166900E-08
 0.4454000E+00  0.1274649E-07
 0.4465000E+00  0.3261983E-07
 0.4476000E+00  0.5987864E-07
 0.4487000E+00  0.9622521E-07
 0.4498000E+00  0.1437055E-06
 0.4509000E+00  0.2047930E-06
 0.4520000E+00  0.2824933E-06
 0.4531000E+00  0.3804716E-06
 0.4542000E+00  0.5032070E-06
 0.4553000E+00  0.6561777E-06
 0.4564000E+00  0.8460809E-06
 0.4575000E+00  0.1081091E-05
 0.4586000E+00  0.1371163E-05
 0.4597000E+00  0.1728382E-05
 0.4608000E+00  0.2167371E-05
 0.4619000E+00  0.2705748E-05
 0.4630000E+00  0.3364662E-05
 0.4641000E+00  0.4169383E-05
 0.4652000E+00  0.5149981E-05
 0.4663000E+00  0.6342074E-05
 0.4674000E+00  0.7787672E-05
 0.4685000E+00  0.9536109E-05
 0.4696000E+00  0.1164507E-04
 0.4707000E+00  0.1418175E-04
 0.4718000E+00  0.1722403E-04
 0.4729000E+00  0.2086190E-04
 0.4740000E+00  0.2519887E-04
 0.4751000E+00  0.3035355E-04
 0.4762000E+00  0.3646129E-04
 0.4773000E+00  0.4367595E-04
 0.4784000E+00  0.5217170E-04
 0.4795000E+00  0.6214491E-04
 0.4806000E+00  0.7381598E-04
 0.4817000E+00  0.8743127E-04
 0.4828000E+00  0.1032648E-03
 0.4839000E+00  0.1216201E-03
 0.4850000E+00  0.1428314E-03
 0.4861000E+00  0.1672651E-03
 0.4872000E+00  0.1953207E-03
 0.4883000E+00  0.2274313E-03
 0.4894000E+00  0.2640632E-03
 0.4905000E+00  0.3057159E-03
 0.4916000E+00  0.3529205E-03
 0.4927000E+00  0.4062375E-03
 0.4938000E+00  0.4662538E-03
 0.4949000E+00  0.5335792E-03
 0.4960000E+00  0.6088405E-03
 0.4971000E+00  0.6926761E-03
 0.4982000E+00  0.7857277E-03
 0.4993000E+00  0.8886320E-03
 0.5004000E+00  0.1002010E-02
 0.5015000E+00  0.1126457E-02
 0.5026000E+00  0.1262525E-02
 0.5037000E+00  0.1410717E-02
 0.5048000E+00  0.1571462E-02
 0.5059000E+00  0.1745103E-02
 0.5070000E+00  0.1931881E-02
 0.5081000E+00  0.2131911E-02
 0.5092000E+00  0.2345169E-02
 0.5103000E+00  0.2571467E-02
 0.5114000E+00  0.2810440E-02
 0.5125000E+00  0.3061519E-02
 0.5136000E+00  0.3323923E-02
 0.5147000E+00  0.3596632E-02
 0.5158000E+00  0.3878382E-02
 0.5169000E+00  0.4167647E-02
 0.5180000E+00  0.4462630E-02
 0.5191000E+00  0.4761259E-02
 0.5202000E+00  0.5061185E-02
 0.5213000E+00  0.5359781E-02
 0.5224000E+00  0.5654156E-02
 0.5235000E+00  0.5941161E-02
 0.5246000E+00  0.6217411E-02
 0.5257000E+00  0.6479307E-02
 0.5268000E+00  0.6723069E-02
 0.5279000E+00  0.6944767E-02
 0.5290000E+00  0.7140366E-02
 0.5301000E+00  0.7305771E-02
 0.5312000E+00  0.7436880E-02
 0.5323000E+00  0.7529641E-02
 0.5334000E+00  0.7580109E-02
 0.5345000E+00  0.7584518E-02
 0.5356000E+00  0.7539337E-02
 0.5367000E+00  0.7441337E-02
 0.5378000E+00  0.7287668E-02
 0.5389000E+00  0.7075907E-02
 0.5400000E+00  0.6804134E-02
 0.5411000E+00  0.6470983E-02
 0.5422000E+00  0.6075694E-02
 0.5433000E+00  0.5618161E-02
 0.5444000E+00  0.5098966E-02
 0.5455000E+00  0.4519411E-02
 0.5466000E+00  0.3881533E-02
 0.5477000E+00  0.3188109E-02
 0.5488000E+00  0.2442655E-02
 0.5499000E+00  0.1649406E-02
 0.5510000E+00  0.8132863E-03
 0.5521000E+00 -0.6013027E-04
 0.5532000E+00 -0.9646757E-03
 0.5543000E+00 -0.1893651E-02
 0.5554000E+00 -0.2839904E-02
 0.5565000E+00 -0.3795912E-02
 0.5576000E+00 -0.4753876E-02
 0.5587000E+00 -0.5705820E-02
 0.5598000E+00 -0.6643696E-02
 0.5609000E+00 -0.7559486E-02
 0.5620000E+00 -0.8445317E-02
 0.5631000E+00 -0.9293560E-02
 0.5642000E+00 -0.1009694E-01
 0.5653000E+00 -0.1084863E-01
 0.5664000E+00 -0.1154233E-01
 0.5675000E+00 -0.1217240E-01
 0.5686000E+00 -0.1273386E-01
 0.5697000E+00 -0.1322252E-01
 0.5708000E+00 -0.1363495E-01
 0.5719000E+00 -0.1396862E-01
 0.5730000E+00 -0.1422183E-01
 0.5741000E+00 -0.1439374E-01
 0.5752000E+00 -0.1448440E-01
 0.5763000E+00 -0.1449468E-01
 0.5774000E+00 -0.1442628E-01
 0.5785000E+00 -0.1428165E-01
 0.5796000E+00 -0.1406397E-01
 0.5807000E+00 -0.1377703E-01
 0.5818000E+00 -0.1342521E-01
 0.5829000E+00 -0.1301338E-01
 0.5840000E+00 -0.1254682E-01
 0.5851000E+00 -0.1203111E-01
 0.5862000E+00 -0.1147208E-01
 0.5873000E+00 -0.1087571E-01
 0.5884000E+00 -0.1024801E-01
 0.5895000E+00 -0.9595022E-02
 0.5906000E+00 -0.8922650E-02
 0.5917000E+00 -0.8236657E-02
 0.5928000E+00 -0.7542575E-02
 0.5939000E+00 -0.6845662E-02
 0.5950000E+00 -0.6150853E-02
 0.5961000E+00 -0.5462722E-02
 0.5972000E+00 -0.4785460E-02
 0.5983000E+00 -0.4122849E-02
 0.5994000E+00 -0.3478255E-02
 0.6005000E+00 -0.2854624E-02
 0.6016000E+00 -0.2254481E-02
 0.6027000E+00 -0.1679946E-02
 0.6038000E+00 -0.1132745E-02
 0.6049000E+00 -0.6142302E-03
 0.6060000E+00 -0.1254020E-03
 0.6071000E+00  0.3330648E-03
 0.6082000E+00  0.7607948E-03
 0.6093000E+00  0.1157685E-02
 0.6104000E+00  0.1523874E-02
 0.6115000E+00  0.1859719E-02
 0.6126000E+00  0.2165766E-02
 0.6137000E+00  0.2442723E-02
 0.6148000E+00  0.2691442E-02
 0.6159000E+00  0.2912893E-02
 0.6170000E+00  0.3108147E-02
 0.6181000E+00  0.3278359E-02
 0.6192000E+00  0.3424752E-02
 0.6203000E+00  0.3548600E-02
 0.6214000E+00  0.3651224E-02
 0.6225000E+00  0.3733976E-02
 0.6236000E+00  0.3798235E-02
 0.6247000E+00  0.3845395E-02
 0.6258000E+00  0.3876860E-02
 0.6269000E+00  0.3894037E-02
 0.6280000E+00  0.3898329E-02
 0.6291000E+00  0.3891126E-02
 0.6302000E+00  0.3873802E-02
 0.6313000E+00  0.3847708E-02
 0.6324000E+00  0.3814158E-02
 0.6335000E+00  0.3774431E-02
 0.6346000E+00  0.3729753E-02
 0.6357000E+00  0.3681295E-02
 0.6368000E+00  0.3630160E-02
 0.6379000E+00  0.3577376E-02
 0.6390000E+00  0.3523892E-02
 0.6401000E+00  0.3470560E-02
 0.6412000E+00  0.3418141E-02
 0.6423000E+00  0.3367289E-02
 0.6434000E+00  0.3318549E-02
 0.6445000E+00  0.3272352E-02
 0.6456000E+00  0.3229016E-02
 0.6467000E+00  0.3188739E-02
 0.6478000E+00  0.3151608E-02
 0.6489000E+00  0.3117599E-02
 0.6500000E+00  0.3086581E-02
 0.6511000E+00  0.3058325E-02
 0.6522000E+00  0.3032511E-02
 0.6533000E+00  0.3008740E-02
 0.6544000E+00  0.2986544E-02
 0.6555000E+00  0.2965399E-02
 0.6566000E+00  0.2944743E-02
 0.6577000E+00  0.2923985E-02
 0.6588000E+00  0.2902523E-02
 0.6599000E+00  0.2879760E-02
 0.6610000E+00  0.2855115E-02
 0.6621000E+00  0.2828040E-02
 0.6632000E+00  0.2798031E-02
 0.6643000E+00  0.2764644E-02
 0.6654000E+00  0.2727498E-02
 0.6665000E+00  0.2686291E-02
 0.6676000E+00  0.2640801E-02
 0.6687000E+00  0.2590893E-02
 0.6698000E+00  0.2536520E-02
 0.6709000E+00  0.2477725E-02
 0.6720000E+00  0.2414636E-02
 0.6731000E+00  0.2347467E-02
 0.6742000E+00  0.2276507E-02
 0.6753000E+00  0.2202117E-02
 0.6764000E+00  0.2124717E-02
 0.6775000E+00  0.2044778E-02
 0.6786000E+00  0.1962811E-02
 0.6797000E+00  0.1879356E-02
 0.6808000E+00  0.1794966E-02
 0.6819000E+00  0.1710197E-02
 0.6830000E+00  0.1625594E-02
 0.6841000E+00  0.1541682E-02
 0.6852000E+00  0.1458949E-02
 0.6863000E+00  0.1377841E-02
 0.6874000E+00  0.1298751E-02
 0.6885000E+00  0.1222011E-02
 0.6896000E+00  0.1147888E-02
 0.6907000E+00  0.1076577E-02
 0.6918000E+00  0.1008202E-02
 0.6929000E+00  0.9428106E-03
 0.6940000E+00  0.8803777E-03
 0.6951000E+00  0.8208076E-03
 0.6962000E+00  0.7639374E-03
 0.6973000E+00  0.7095419E-03
 0.6984000E+00  0.6573417E-03
 0.6995000E+00  0.6070103E-03
 0.7006000E+00  0.5581838E-03
 0.7017000E+00  0.5104704E-03
 0.7028000E+00  0.4634608E-03
 0.7039000E+00  0.4167379E-03
 0.7050000E+00  0.3698882E-03
 0.7061000E+00  0.3225119E-03
 0.7072000E+00  0.2742332E-03
 0.7083000E+00  0.2247108E-03
 0.7094000E+00  0.1736462E-03
 0.7105000E+00  0.1207919E-03
 0.7116000E+00  0.6595723E-04
 0.7127000E+00  0.9013913E-05
 0.7138000E+00 -0.5010054E-04
 0.7149000E+00 -0.1113804E-03
 0.7160000E+00 -0.1747502E-03
 0.7171000E+00 -0.2400658E-03
 0.7182000E+00 -0.3071156E-03
 0.7193000E+00 -0.3756241E-03
 0.7204000E+00 -0.4452571E-03
 0.7215000E+00 -0.5156276E-03
 0.7226000E+00 -0.5863030E-03
 0.7237000E+00 -0.6568134E-03
 0.7248000E+00 -0.7266618E-03
 0.7259000E+00 -0.7953332E-03
 0.7270000E+00 -0.8623062E-03
 0.7281000E+00 -0.9270633E-03
 0.7292000E+00 -0.9891021E-03
 0.7303000E+00 -0.1047945E-02
 0.7314000E+00 -0.1103150E-02
 0.7325000E+00 -0.1154317E-02
 0.7336000E+00 -0.1201101E-02
 0.7347000E+00 -0.1243215E-02
 0.7358000E+00 -0.1280437E-02
 0.7369000E+00 -0.1312617E-02
 0.7380000E+00 -0.1339679E-02
 0.7391000E+00 -0.1361622E-02
 0.7402000E+00 -0.1378522E-02
 0.7413000E+00 -0.1390527E-02
 0.7424000E+00 -0.1397855E-02
 0.7435000E+00 -0.1400792E-02
 0.7446000E+00 -0.1399682E-02
 0.7457000E+00 -0.1394920E-02
 0.7468000E+00 -0.1386946E-02
 0.7479000E+00 -0.1376234E-02
 0.7490000E+00 -0.1363280E-02
 0.7501000E+00 -0.1348595E-02
 0.7512000E+00 -0.1332693E-02
 0.7523000E+00 -0.1316081E-02
 0.7534000E+00 -0.1299248E-02
 0.7545000E+00 -0.1282653E-02
 0.7556000E+00 -0.1266721E-02
 0.7567000E+00 -0.1251828E-02
 0.7578000E+00 -0.1238301E-02
 0.7589000E+00 -0.1226404E-02
 0.7600000E+00 -0.1216339E-02
 0.7611000E+00 -0.1208242E-02
 0.7622000E+00 -0.1202178E-02
 0.7633000E+00 -0.1198147E-02
 0.7644000E+00 -0.1196080E-02
 0.7655000E+00 -0.1195844E-02
 0.7666000E+00 -0.1197247E-02
 0.7677000E+00 -0.1200041E-02
 0.7688000E+00 -0.1203931E-02
 0.7699000E+00 -0.1208579E-02
 0.7710000E+00 -0.1213617E-02
 0.7721000E+00 -0.1218652E-02
 0.7732000E+00 -0.1223279E-02
 0.7743000E+00 -0.1227086E-02
 0.7754000E+00 -0.1229666E-02
 0.7765000E+00 -0.1230629E-02
 0.7776000E+00 -0.1229604E-02
 0.7787000E+00 -0.1226258E-02
 0.7798000E+00 -0.1220295E-02
 0.7809000E+00 -0.1211469E-02
 0.7820000E+00 -0.1199587E-02
 0.7831000E+00 -0.1184515E-02
 0.7842000E+00 -0.1166183E-02
 0.7853000E+00 -0.1144586E-02
 0.7864000E+00 -0.1119786E-02
 0.7875000E+00 -0.1091913E-02
 0.7886000E+00 -0.1061164E-02
 0.7897000E+00 -0.1027799E-02
 0.7908000E+00 -0.9921422E-03
 0.7919000E+00 -0.9545709E-03
 0.7930000E+00 -0.9155145E-03
 0.7941000E+00 -0.8754462E-03
 0.7952000E+00 -0.8348767E-03
 0.7963000E+00 -0.7943455E-03
 0.7974000E+00 -0.7544142E-03
 0.7985000E+00 -0.7156574E-03
 0.7996000E+00 -0.6786553E-03
 0.8007000E+00 -0.6439853E-03
 0.8018000E+00 -0.6122143E-03
 0.8029000E+00 -0.5838912E-03
 0.8040000E+00 -0.5595414E-03
 0.8051000E+00 -0.5396602E-03
 0.8062000E+00 -0.5247086E-03
 0.8073000E+00 -0.5151095E-03
 0.8084000E+00 -0.5112448E-03
 0.8095000E+00 -0.5134541E-03
 0.8106000E+00 -0.5220336E-03
 0.8117000E+00 -0.5372367E-03
 0.8128000E+00 -0.5592756E-03
 0.8139000E+00 -0.5883233E-03
 0.8150000E+00 -0.6245175E-03
 0.8161000E+00 -0.6679637E-03
 0.8172000E+00 -0.7187391E-03
 0.8183000E+00 -0.7768973E-03
 0.8194000E+00 -0.8424721E-03
 0.8205000E+00 -0.9154827E-03
 0.8216000E+00 -0.9959388E-03
 0.8227000E+00 -0.1083844E-02
 0.8238000E+00 -0.1179202E-02
 0.8249000E+00 -0.1282013E-02
 0.8260000E+00 -0.1392282E-02
 0.8271000E+00 -0.1510015E-02
 0.8282000E+00 -0.1635216E-02
 0.8293000E+00 -0.1767886E-02
 0.8304000E+00 -0.1908021E-02
 0.8315000E+00 -0.2055601E-02
 0.8326000E+00 -0.2210585E-02
 0.8337000E+00 -0.2372902E-02
 0.8348000E+00 -0.2542435E-02
 0.8359000E+00 -0.2719009E-02
 0.8370000E+00 -0.2902378E-02
 0.8381000E+00 -0.3092207E-02
 0.8392000E+00 -0.3288057E-02
 0.8403000E+00 -0.3489363E-02
 0.8414000E+00 -0.3695420E-02
 0.8425000E+00 -0.3905363E-02
 0.8436000E+00 -0.4118150E-02
 0.8447000E+00 -0.4332549E-02
 0.8458000E+00 -0.4547130E-02
 0.8469000E+00 -0.4760253E-02
 0.8480000E+00 -0.4970063E-02
 0.8491000E+00 -0.5174499E-02
 0.8502000E+00 -0.5371288E-02
 0.8513000E+00 -0.5557965E-02
 0.8524000E+00 -0.5731882E-02
 0.8535000E+00 -0.5890241E-02
 0.8546000E+00 -0.6030117E-02
 0.8557000E+00 -0.6148495E-02
 0.8568000E+00 -0.6242318E-02
 0.8579000E+00 -0.6308527E-02
 0.8590000E+00 -0.6344120E-02
 0.8601000E+00 -0.6346206E-02
 0.8612000E+00 -0.6312062E-02
 0.8623000E+00 -0.6239196E-02
 0.8634000E+00 -0.6125404E-02
 0.8645000E+00 -0.5968828E-02
 0.8656000E+00 -0.5768013E-02
 0.8667000E+00 -0.5521955E-02
 0.8678000E+00 -0.5230146E-02
 0.8689000E+00 -0.4892619E-02
 0.8700000E+00 -0.4509965E-02
 0.8711000E+00 -0.4083359E-02
 0.8722000E+00 -0.3614565E-02
 0.8733000E+00 -0.3105931E-02
 0.8744000E+00 -0.2560373E-02
 0.8755000E+00 -0.1981348E-02
 0.8766000E+00 -0.1372816E-02
 0.8777000E+00 -0.7391886E-03
 0.8788000E+00 -0.8527270E-04
 0.8799000E+00  0.5837981E-03
 0.8810000E+00  0.1262639E-02
 0.8821000E+00  0.1945696E-02
 0.8832000E+00  0.2627331E-02
 0.8843000E+00  0.3301910E-02
 0.8854000E+00  0.3963892E-02
 0.8865000E+00  0.4607921E-02
 0.8876000E+00  0.5228907E-02
 0.8887000E+00  0.5822113E-02
 0.8898000E+00  0.6383227E-02
 0.8909000E+00  0.6908434E-02
 0.8920000E+00  0.7394477E-02
 0.8931000E+00  0.7838717E-02
 0.8942000E+00  0.8239173E-02
 0.8953000E+00  0.8594571E-02
 0.8964000E+00  0.8904363E-02
 0.8975000E+00  0.9168760E-02
 0.8986000E+00  0.9388735E-02
 0.8997000E+00  0.9566037E-02
 0.9008000E+00  0.9703184E-02
 0.9019000E+00  0.9803458E-02
 0.9030000E+00  0.9870883E-02
 0.9041000E+00  0.9910207E-02
 0.9052000E+00  0.9926876E-02
 0.9063000E+00  0.9926991E-02
 0.9074000E+00  0.9917271E-02
 0.9085000E+00  0.9905000E-02
 0.9096000E+00  0.9897972E-02
 0.9107000E+00  0.9904415E-02
 0.9118000E+00  0.9932928E-02
 0.9129000E+00  0.9992382E-02
 0.9140000E+00  0.1009183E-01
 0.9151000E+00  0.1024040E-01
 0.9162000E+00  0.1044715E-01
 0.9173000E+00  0.1072098E-01
 0.9184000E+00  0.1107044E-01
 0.9195000E+00  0.1150360E-01
 0.9206000E+00  0.1202788E-01
 0.9217000E+00  0.1264988E-01
 0.9228000E+00  0.1337517E-01
 0.9239000E+00  0.1420815E-01
 0.9250000E+00  0.1515182E-01
 0.9261000E+00  0.1620765E-01
 0.9272000E+00  0.1737535E-01
 0.9283000E+00  0.1865274E-01
 0.9294000E+00  0.2003559E-01
 0.9305000E+00  0.2151752E-01
 0.9316000E+00  0.2308985E-01
 0.9327000E+00  0.2474160E-01
 0.9338000E+00  0.2645941E-01
 0.9349000E+00  0.2822756E-01
 0.9360000E+00  0.3002803E-01
 0.9371000E+00  0.3184060E-01
 0.9382000E+00  0.3364296E-01
 0.9393000E+00  0.3541095E-01
 0.9404000E+00  0.3711873E-01
 0.9415000E+00  0.3873917E-01
 0.9426000E+00  0.4024407E-01
 0.9437000E+00  0.4160458E-01
 0.9448000E+00  0.4279163E-01
 0.9459000E+00  0.4377630E-01
 0.9470000E+00  0.4453034E-01
 0.9481000E+00  0.4502660E-01
 0.9492000E+00  0.4523952E-01
 0.9503000E+00  0.4514560E-01
 0.9514000E+00  0.4472387E-01
 0.9525000E+00  0.4395636E-01
 0.9536000E+00  0.4282844E-01
 0.9547000E+00  0.4132923E-01
 0.9558000E+00  0.3945197E-01
 0.9569000E+00  0.3719419E-01
 0.9580000E+00  0.3455800E-01
 0.9591000E+00  0.3155018E-01
 0.9602000E+00  0.2818229E-01
 0.9613000E+00  0.2447059E-01
 0.9624000E+00  0.2043601E-01
 0.9635000E+00  0.1610396E-01
 0.9646000E+00  0.1150411E-01
 0.9657000E+00  0.6670040E-02
 0.9668000E+00  0.1638904E-02
 0.9679000E+00 -0.3549045E-02
 0.9690000E+00 -0.8850942E-02
 0.9701000E+00 -0.1422185E-01
 0.9712000E+00 -0.1961535E-01
 0.9723000E+00 -0.2498413E-01
 0.9734000E+00 -0.3028062E-01
 0.9745000E+00 -0.3545763E-01
 0.9756000E+00 -0.4046897E-01
 0.9767000E+00 -0.4527004E-01
 0.9778000E+00 -0.4981845E-01
 0.9789000E+00 -0.5407452E-01