 -0.12000000000000000          0.0000000000000000     
 -0.11889999999999999          0.0000000000000000     
 -0.11780000000000000          0.0000000000000000     
 -0.11670000000000000          0.0000000000000000     
 -0.11559999999999999          0.0000000000000000     
 -0.11449999999999999          0.0000000000000000     
 -0.11340000000000000          0.0000000000000000     
 -0.11230000000000000          0.0000000000000000     
 -0.11119999999999999          0.0000000000000000     
 -0.11009999999999999          0.0000000000000000     
 -0.10900000000000000          0.0000000000000000     
 -0.10790000000000000          0.0000000000000000     
 -0.10679999999999999          0.0000000000000000     
 -0.10569999999999999          0.0000000000000000     
 -0.10460000000000000          0.0000000000000000     
 -0.10349999999999999          0.0000000000000000     
 -0.10239999999999999          0.0000000000000000     
 -0.10130000000000000          0.0000000000000000     
 -0.10020000000000000          0.0000000000000000     
  -9.9099999999999994E-002     0.0000000000000000     
  -9.7999999999999990E-002     0.0000000000000000     
  -9.6899999999999986E-002     0.0000000000000000     
  -9.5799999999999996E-002     0.0000000000000000     
  -9.4699999999999993E-002     0.0000000000000000     
  -9.3599999999999989E-002     0.0000000000000000     
  -9.2499999999999999E-002     0.0000000000000000     
  -9.1399999999999995E-002     0.0000000000000000     
  -9.0299999999999991E-002     0.0000000000000000     
  -8.9200000000000002E-002     0.0000000000000000     
  -8.8099999999999984E-002     0.0000000000000000     
  -8.6999999999999994E-002     0.0000000000000000     
  -8.5899999999999990E-002     0.0000000000000000     
  -8.4799999999999986E-002     0.0000000000000000     
  -8.3699999999999997E-002     0.0000000000000000     
  -8.2599999999999993E-002     0.0000000000000000     
  -8.1499999999999989E-002     2.1927228556070577E-044
  -8.0399999999999999E-002    -4.8448210675606010E-044
  -7.9299999999999995E-002    -2.4977114725319364E-040
  -7.8199999999999992E-002     4.6139425953048416E-040
  -7.7100000000000002E-002     3.4193547796004749E-039
  -7.5999999999999984E-002     6.4880845099471676E-039
  -7.4899999999999994E-002    -5.2001371198204141E-039
  -7.3799999999999991E-002    -3.4881459462268794E-038
  -7.2699999999999987E-002    -8.7393917193223401E-038
  -7.1599999999999997E-002    -1.7662356059732878E-037
  -7.0499999999999993E-002    -1.3216443346531095E-037
  -6.9399999999999989E-002     4.5029157743907685E-037
  -6.8300000000000000E-002     2.0016131731803265E-036
  -6.7199999999999996E-002     4.0277387838772317E-036
  -6.6099999999999992E-002     3.5175454352865248E-036
  -6.5000000000000002E-002    -5.8642491469923190E-036
  -6.3899999999999985E-002    -3.0103600696769282E-035
  -6.2799999999999995E-002    -6.2314922832457990E-035
  -6.1699999999999991E-002    -6.2914041949325745E-035
  -6.0599999999999994E-002     4.9236315792506103E-035
  -5.9499999999999990E-002     3.5370827485879090E-034
  -5.8399999999999994E-002     7.8965933359378059E-034
  -5.7299999999999990E-002     9.4099460364051863E-034
  -5.6199999999999986E-002    -7.1493828459176391E-035
  -5.5099999999999996E-002    -3.2019887713507608E-033
  -5.3999999999999992E-002    -8.1883374528345241E-033
  -5.2899999999999989E-002    -1.1501084727153354E-032
  -5.1799999999999985E-002    -5.0428423203133646E-033
  -5.0699999999999995E-002     2.1180346819160508E-032
  -4.9599999999999991E-002     6.8897569243370098E-032
  -4.8499999999999988E-002     1.1433346052725720E-031
  -4.7399999999999998E-002     9.4304903228451514E-032
  -4.6299999999999994E-002    -8.0902842455148871E-032
  -4.5199999999999990E-002    -4.6005272722724211E-031
  -4.4099999999999986E-002    -9.2414971644116425E-031
  -4.2999999999999997E-002    -1.0599077761629007E-030
  -4.1899999999999993E-002    -1.8324981364400832E-031
  -4.0799999999999989E-002     2.2890954841789819E-030
  -3.9699999999999985E-002     6.0303784151224578E-030
  -3.8599999999999995E-002     8.8294019344234431E-030
  -3.7499999999999992E-002     6.2845759131923778E-030
  -3.6399999999999988E-002    -6.5821955054548009E-030
  -3.5299999999999984E-002    -3.0900929396722676E-029
  -3.4199999999999994E-002    -5.7588648448978016E-029
  -3.3099999999999991E-002    -6.3024210275248126E-029
  -3.1999999999999987E-002    -1.3707604449431118E-029
  -3.0899999999999997E-002     1.1347427297417933E-028
  -2.9799999999999993E-002     2.9596537602203269E-028
  -2.8699999999999989E-002     4.3099026770732043E-028
  -2.7599999999999986E-002     3.3522015770571383E-028
  -2.6499999999999996E-002    -1.8135883617277348E-028
  -2.5399999999999992E-002    -1.1506131559179495E-027
  -2.4299999999999988E-002    -2.2377174041139193E-027
  -2.3199999999999985E-002    -2.6267329414093336E-027
  -2.2099999999999995E-002    -1.2024431309850705E-027
  -2.0999999999999991E-002     2.8151051420858486E-027
  -1.9899999999999987E-002     8.8545989594705335E-027
  -1.8799999999999983E-002     1.4063307122971206E-026
  -1.7699999999999994E-002     1.3324642905248559E-026
  -1.6599999999999990E-002     1.1469013919992097E-027
  -1.5499999999999986E-002    -2.4291293582589319E-026
  -1.4399999999999996E-002    -5.6123621303317905E-026
  -1.3299999999999992E-002    -7.5872271889783550E-026
  -1.2199999999999989E-002    -5.6847671990349135E-026
  -1.1099999999999985E-002     2.3005630975102853E-026
  -9.9999999999999950E-003     1.6019421331910284E-025
  -8.8999999999999913E-003     3.0541825544267644E-025
  -7.7999999999999875E-003     3.5970557310999897E-025
  -6.6999999999999837E-003     2.0377936173980948E-025
  -5.5999999999999939E-003    -2.3295792115671692E-025
  -4.4999999999999901E-003    -8.8107986056915977E-025
  -3.3999999999999864E-003    -1.4647262102846674E-024
  -2.2999999999999826E-003    -1.5271614051607131E-024
  -1.1999999999999927E-003    -6.0273982976281882E-025
  -9.9999999999988987E-005     1.4707815156873549E-024
   1.0000000000000148E-003     4.2073621935874619E-024
   2.1000000000000185E-003     6.3055503944002849E-024
   3.2000000000000084E-003     5.9029951167155919E-024
   4.3000000000000121E-003     1.3890964912719092E-024
   5.4000000000000159E-003    -7.3621742000619791E-024
   6.5000000000000058E-003    -1.7850681540351041E-023
   7.6000000000000234E-003    -2.4703165714831777E-023
   8.7000000000000133E-003    -2.1089470355345489E-023
   9.8000000000000032E-003    -2.0162929259414585E-024
   1.0900000000000021E-002     3.1339188818358785E-023
   1.2000000000000011E-002     6.8288549585011890E-023
   1.3100000000000001E-002     8.8987720703114710E-023
   1.4200000000000018E-002     7.0595795950383536E-023
   1.5300000000000008E-002    -9.1872459143112690E-025
   1.6400000000000026E-002    -1.1700673723316508E-022
   1.7500000000000016E-002    -2.3785922590725662E-022
   1.8600000000000005E-002    -2.9696595243228661E-022
   1.9700000000000023E-002    -2.2390479344632940E-022
   2.0800000000000013E-002     1.7529629374653831E-023
   2.1900000000000003E-002     3.8929951124417853E-022
   2.3000000000000020E-002     7.5909982935399148E-022
   2.4100000000000010E-002     9.2256856130285218E-022
   2.5200000000000000E-002     6.7771375857261847E-022
   2.6300000000000018E-002    -6.2731912073003117E-023
   2.7400000000000008E-002    -1.1638647547594554E-021
   2.8500000000000025E-002    -2.2277437868332603E-021
   2.9600000000000015E-002    -2.6745631425695822E-021
   3.0700000000000005E-002    -1.9615032569464616E-021
   3.1800000000000023E-002     1.1241177479408882E-022
   3.2900000000000013E-002     3.1377278768763575E-021
   3.4000000000000002E-002     6.0214678290520072E-021
   3.5100000000000020E-002     7.2370360494061303E-021
   3.6200000000000010E-002     5.4108990146769603E-021
   3.7300000000000028E-002     8.9543000502609996E-023
   3.8400000000000017E-002    -7.6308056058122336E-021
   3.9500000000000007E-002    -1.4991829671073988E-020
   4.0600000000000025E-002    -1.8250197535955552E-020
   4.1700000000000015E-002    -1.4124134453405711E-020
   4.2800000000000005E-002    -1.5921529478795230E-021
   4.3900000000000022E-002     1.6713653795679321E-020
   4.5000000000000012E-002     3.4365362668531279E-020
   4.6100000000000002E-002     4.2790972698512133E-020
   4.7200000000000020E-002     3.4578189362830630E-020
   4.8300000000000010E-002     7.4270355023834553E-021
   4.9400000000000027E-002    -3.2925969818221383E-020
   5.0500000000000017E-002    -7.2575850970568316E-020
   5.1600000000000007E-002    -9.3132821781954294E-020
   5.2700000000000025E-002    -7.8760916824280357E-020
   5.3800000000000014E-002    -2.4359893379259221E-020
   5.4900000000000004E-002     5.8580060501372679E-020
   5.6000000000000022E-002     1.4193066604040652E-019
   5.7100000000000012E-002     1.8853052271195088E-019
   5.8200000000000002E-002     1.6628750036620342E-019
   5.9300000000000019E-002     6.4256469366789692E-020
   6.0400000000000009E-002    -9.6084791051851334E-020
   6.1500000000000027E-002    -2.6092095978199823E-019
   6.2600000000000017E-002    -3.5879905732073772E-019
   6.3700000000000007E-002    -3.2747524176145077E-019
   6.4800000000000024E-002    -1.4425045080795896E-019
   6.5900000000000014E-002     1.5282720880772064E-019
   6.7000000000000004E-002     4.6486998239408111E-019
   6.8100000000000022E-002     6.5896057657495354E-019
   6.9200000000000012E-002     6.1728476083994716E-019
   7.0300000000000029E-002     2.9295012376037576E-019
   7.1400000000000019E-002    -2.5014812437472385E-019
   7.2500000000000009E-002    -8.3497697043833241E-019
   7.3600000000000027E-002    -1.2173703907625831E-018
   7.4700000000000016E-002    -1.1732138494048725E-018
   7.5800000000000006E-002    -6.0023653746365534E-019
   7.6900000000000024E-002     4.0501859493493253E-019
   7.8000000000000014E-002     1.5338499234201466E-018
   7.9100000000000004E-002     2.3375520880651683E-018
   8.0200000000000021E-002     2.3769887372187472E-018
   8.1300000000000011E-002     1.4077686374814062E-018
   8.2400000000000029E-002    -4.6538543511447800E-019
   8.3500000000000019E-002    -2.7351968659156431E-018
   8.4600000000000009E-002    -4.5861039680148197E-018
   8.5700000000000026E-002    -5.1360569419420061E-018
   8.6800000000000016E-002    -3.7680197764456723E-018
   8.7900000000000006E-002    -4.4504623725195047E-019
   8.9000000000000024E-002     4.1161259926419542E-018
   9.0100000000000013E-002     8.5139807431085474E-018
   9.1200000000000003E-002     1.1007797742533265E-017
   9.2300000000000021E-002     1.0079682893404771E-017
   9.3400000000000011E-002     5.0595070176085167E-018
   9.4500000000000028E-002    -3.3996980273181668E-018
   9.5600000000000018E-002    -1.3204300848722758E-017
   9.6700000000000008E-002    -2.1190319058212612E-017
   9.7800000000000026E-002    -2.3969528464017876E-017
   9.8900000000000016E-002    -1.9069882962310865E-017
  0.10000000000000001         -6.0436934802289553E-018
  0.10110000000000002          1.2848923521895466E-017
  0.10220000000000001          3.2720355317412720E-017
  0.10330000000000003          4.7057738772383270E-017
  0.10440000000000002          4.9528240880893816E-017
  0.10550000000000001          3.6167591579223574E-017
  0.10660000000000003          7.3023730199186314E-018
  0.10770000000000002         -3.1506712016645072E-017
  0.10880000000000001         -7.0050921199072872E-017
  0.10990000000000003         -9.5750811892256460E-017
  0.11100000000000002         -9.7252810713130840E-017
  0.11210000000000001         -6.8439651039387473E-017
  0.11320000000000002         -1.1601581967733254E-017
  0.11430000000000001          6.1483119142727051E-017
  0.11540000000000003          1.3137745224106996E-016
  0.11650000000000002          1.7572874519348660E-016
  0.11760000000000001          1.7593169090043214E-016
  0.11870000000000003          1.2384515631751408E-016
  0.11980000000000002          2.6293806691118134E-017
  0.12090000000000001         -9.4601162842819116E-017
  0.12200000000000003         -2.0613985524097241E-016
  0.12310000000000001         -2.7407005134555277E-016
  0.12420000000000003         -2.7350801047751126E-016
  0.12530000000000002         -1.9821250022704626E-016
  0.12640000000000001         -6.4644825827366656E-017
  0.12750000000000003          9.1452195075153631E-017
  0.12860000000000002          2.2579105921604430E-016
  0.12970000000000001          3.0058978505362377E-016
  0.13080000000000003          2.9870651364931794E-016
  0.13190000000000002          2.3104373928246930E-016
  0.13300000000000001          1.3306766138401183E-016
  0.13410000000000000          5.0021796661368129E-017
  0.13520000000000004          1.5185008318162520E-017
  0.13630000000000003          2.9589250829604156E-017
  0.13740000000000002          5.3088834216594910E-017
  0.13850000000000001          1.4282416018573125E-017
  0.13960000000000000         -1.5951976676147662E-016
  0.14070000000000005         -4.9972743185417358E-016
  0.14180000000000004         -9.5675233171709538E-016
  0.14290000000000003         -1.3824577306789126E-015
  0.14400000000000002         -1.5510219844164111E-015
  0.14510000000000001         -1.2236827944996378E-015
  0.14620000000000000         -2.4644466057641836E-016
  0.14730000000000004          1.3472604439950555E-015
  0.14840000000000003          3.2682918363852277E-015
  0.14950000000000002          4.9766954802893335E-015
  0.15060000000000001          5.7831200216406619E-015
  0.15170000000000000          5.0413559592666910E-015
  0.15280000000000005          2.3915877485526622E-015
  0.15390000000000004         -2.0161581227301462E-015
  0.15500000000000003         -7.4021548894383347E-015
  0.15610000000000002         -1.2411891407093915E-014
  0.15720000000000001         -1.5376643733928073E-014
  0.15830000000000000         -1.4749913750413904E-014
  0.15940000000000004         -9.6246320114653738E-015
  0.16050000000000003         -1.8705123114423833E-016
  0.16160000000000002          1.2050000618717583E-014
  0.16270000000000001          2.4357797529210224E-014
  0.16380000000000000          3.3289933017752484E-014
  0.16490000000000005          3.5502970136707066E-014
  0.16600000000000004          2.8725515010472836E-014
  0.16710000000000003          1.2625520936623771E-014
  0.16820000000000002         -1.0689197587967062E-014
  0.16930000000000001         -3.6742622986087981E-014
  0.17040000000000000         -5.9412514350284116E-014
  0.17150000000000004         -7.2214145846019918E-014
  0.17260000000000003         -6.9893541507561493E-014
  0.17370000000000002         -4.9963094954286066E-014
  0.17480000000000001         -1.3782616182939802E-014
  0.17590000000000000          3.3140904197289341E-014
  0.17700000000000005          8.1802785591402583E-014
  0.17810000000000004          1.2125496293831030E-013
  0.17920000000000003          1.4080563359628320E-013
  0.18030000000000002          1.3243896950921402E-013
  0.18140000000000001          9.2951948711324689E-014
  0.18250000000000000          2.5333347201251715E-014
  0.18360000000000004         -6.0964471639066300E-014
  0.18470000000000003         -1.5101603447065945E-013
  0.18580000000000002         -2.2660792158287599E-013
  0.18690000000000001         -2.6933843595994545E-013
  0.18800000000000000         -2.6418145925505904E-013
  0.18910000000000005         -2.0295250955140676E-013
  0.19020000000000004         -8.7071649107770594E-014
  0.19130000000000003          7.0954670004830412E-014
  0.19240000000000002          2.4780845156156023E-013
  0.19350000000000001          4.1168165053956699E-013
  0.19460000000000005          5.2666178019711300E-013
  0.19570000000000004          5.5884652949360445E-013
  0.19680000000000003          4.8345122192713876E-013
  0.19790000000000002          2.9178488424203176E-013
  0.19900000000000001         -3.3112795932924898E-015
  0.20010000000000000         -3.6504587887548383E-013
  0.20120000000000005         -7.3454006522893120E-013
  0.20230000000000004         -1.0376677128327183E-012
  0.20340000000000003         -1.1966938722285051E-012
  0.20450000000000002         -1.1454583040466498E-012
  0.20560000000000000         -8.4577686526086783E-013
  0.20670000000000005         -3.0190163937417129E-013
  0.20780000000000004          4.3046127860807145E-013
  0.20890000000000003          1.2437456557336541E-012
  0.21000000000000002          1.9888097472621438E-012
  0.21110000000000001          2.4962234102155061E-012
  0.21220000000000000          2.6066395849577743E-012
  0.21330000000000005          2.2060164960326313E-012
  0.21440000000000003          1.2595122438430647E-012
  0.21550000000000002         -1.6324734832079801E-013
  0.21660000000000001         -1.8786873852375274E-012
  0.21770000000000000         -3.6011366683459510E-012
  0.21880000000000005         -4.9784442007231808E-012
  0.21990000000000004         -5.6494597245647530E-012
  0.22100000000000003         -5.3165166309626245E-012
  0.22210000000000002         -3.8213455515205744E-012
  0.22320000000000001         -1.2094095966335762E-012
  0.22430000000000000          2.2334696748960648E-012
  0.22540000000000004          5.9862916527020049E-012
  0.22650000000000003          9.3484183004222677E-012
  0.22760000000000002          1.1545295890785286E-011
  0.22870000000000001          1.1873365049425891E-011
  0.22980000000000000          9.8621686849371980E-012
  0.23090000000000005          5.4228781358750466E-012
  0.23200000000000004         -1.0515420787949144E-012
  0.23310000000000003         -8.6665386548288845E-012
  0.23420000000000002         -1.6108006469103298E-011
  0.23530000000000001         -2.1829967642936992E-011
  0.23640000000000000         -2.4329349957301697E-011
  0.23750000000000004         -2.2466507587338096E-011
  0.23860000000000003         -1.5771740372087456E-011
  0.23970000000000002         -4.6695186108305489E-012
  0.24080000000000001          9.4429752005007580E-012
  0.24190000000000000          2.4306351477808694E-011
  0.24300000000000005          3.7108703667465810E-011
  0.24410000000000004          4.4963277615444093E-011
  0.24520000000000003          4.5481451945624764E-011
  0.24630000000000002          3.7336111788240395E-011
  0.24740000000000001          2.0696168991068384E-011
  0.24850000000000005         -2.5775768452434730E-012
  0.24960000000000004         -2.9050368539526731E-011
  0.25070000000000003         -5.4164643521691466E-011
  0.25180000000000002         -7.2976690670066229E-011
  0.25290000000000001         -8.1065719916109638E-011
  0.25400000000000000         -7.5453224816993892E-011
  0.25510000000000005         -5.5350049270089505E-011
  0.25620000000000004         -2.2564416414361969E-011
  0.25730000000000003          1.8544090566151554E-011
  0.25840000000000002          6.1599377247524630E-011
  0.25950000000000001          9.9173660502470228E-011
  0.26060000000000005          1.2403473381331401E-010
  0.26170000000000004          1.3046345606656817E-010
  0.26280000000000003          1.1540236871863180E-010
  0.26390000000000002          7.9215224228366803E-011
  0.26500000000000001          2.5898882022680876E-011
  0.26610000000000000         -3.7318321567922712E-011
  0.26720000000000005         -1.0095034448558810E-010
  0.26830000000000004         -1.5465816473449912E-010
  0.26940000000000003         -1.8886916683820671E-010
  0.27050000000000002         -1.9635771136183329E-010
  0.27160000000000001         -1.7353871070078955E-010
  0.27270000000000005         -1.2126930434230098E-010
  0.27380000000000004         -4.5026532452176356E-011
  0.27490000000000003          4.5585102004383060E-011
  0.27600000000000002          1.3795307439623622E-010
  0.27710000000000001          2.1808110382708169E-010
  0.27820000000000000          2.7253163071204499E-010
  0.27930000000000005          2.9045378473559737E-010
  0.28040000000000004          2.6543724327097331E-010
  0.28150000000000003          1.9692703173583029E-010
  0.28260000000000002          9.0954055252550960E-011
  0.28370000000000001         -4.0012567978263873E-011
  0.28480000000000005         -1.7819872588754884E-010
  0.28590000000000004         -3.0262716574490484E-010
  0.28700000000000003         -3.9201832908012942E-010
  0.28810000000000002         -4.2815776670323077E-010
  0.28920000000000001         -3.9925285728253453E-010
  0.29030000000000000         -3.0271241114699435E-010
  0.29140000000000005         -1.4677879382194606E-010
  0.29250000000000004          4.9451655165682441E-011
  0.29360000000000003          2.5786778963265523E-010
  0.29470000000000002          4.4498706236156959E-010
  0.29580000000000001          5.7700571016560091E-010
  0.29690000000000005          6.2554059790113309E-010
  0.29800000000000004          5.7312694309887477E-010
  0.29910000000000003          4.1746410559049897E-010
  0.30020000000000002          1.7351630768963517E-010
  0.30130000000000001         -1.2713270461212132E-010
  0.30240000000000000         -4.3983939006247119E-010
  0.30350000000000005         -7.1304306507306606E-010
  0.30460000000000004         -8.9618070168301964E-010
  0.30570000000000003         -9.4819273558225170E-010
  0.30680000000000002         -8.4524870630962861E-010
  0.30790000000000001         -5.8635145105285492E-010
  0.30900000000000005         -1.9573578845498223E-010
  0.31010000000000004          2.7857927661235545E-010
  0.31120000000000003          7.7015106979634543E-010
  0.31230000000000002          1.2028377282639851E-009
  0.31340000000000001          1.5017702918514775E-009
  0.31450000000000006          1.6050240016580913E-009
  0.31560000000000005          1.4742156089448711E-009
  0.31670000000000004          1.1022872664577355E-009
  0.31780000000000003          5.1704597127699587E-010
  0.31890000000000002         -2.2040080404669761E-010
  0.32000000000000001         -1.0224097881840061E-009
  0.32110000000000005         -1.7860030682746800E-009
  0.32220000000000004         -2.4069274421925086E-009
  0.32330000000000003         -2.7943851992605800E-009
  0.32440000000000002         -2.8839813969498607E-009
  0.32550000000000001         -2.6466260169519106E-009
  0.32660000000000006         -2.0917767568690131E-009
  0.32770000000000005         -1.2644587843292660E-009
  0.32880000000000004         -2.3675016855291619E-010
  0.32990000000000003          9.0437575079350529E-010
  0.33100000000000002          2.0700823775013337E-009
  0.33210000000000001          3.1805036446093970E-009
  0.33320000000000005          4.1707076884173837E-009
  0.33430000000000004          4.9901958039352819E-009
  0.33540000000000003          5.5959117414006569E-009
  0.33650000000000002          5.9404764869832537E-009
  0.33760000000000001          5.9588865470388299E-009
  0.33870000000000006          5.5578286055809040E-009
  0.33980000000000005          4.6118434653577024E-009
  0.34090000000000004          2.9697267104848104E-009
  0.34200000000000003          4.7292689572379530E-010
  0.34310000000000002         -3.0143772997496381E-009
  0.34420000000000001         -7.5659283210471260E-009
  0.34530000000000005         -1.3148839067323998E-008
  0.34640000000000004         -1.9578801986018701E-008
  0.34750000000000003         -2.6479972033387875E-008
  0.34860000000000002         -3.3253531405201167E-008
  0.34970000000000001         -3.9057249049793289E-008
  0.35080000000000006         -4.2796410656859935E-008
  0.35190000000000005         -4.3124271142275529E-008
  0.35300000000000004         -3.8448242947924543E-008
  0.35410000000000003         -2.6936186145116838E-008
  0.35520000000000002         -6.5160163216818205E-009
  0.35630000000000001          2.5139458582964448E-008
  0.35740000000000005          7.0651139519754256E-008
  0.35850000000000004          1.3300465451949243E-007
  0.35960000000000003          2.1566274126467350E-007
  0.36070000000000002          3.2272739183023199E-007
  0.36180000000000001          4.5915859986155961E-007
  0.36290000000000006          6.3105485679527269E-007
  0.36400000000000005          8.4599783859539896E-007
  0.36510000000000004          1.1134616159801150E-006
  0.36620000000000003          1.4452843667133601E-006
  0.36730000000000002          1.8562008131980994E-006
  0.36840000000000006          2.3644350298729260E-006
  0.36950000000000005          2.9923566404136813E-006
  0.37060000000000004          3.7672099353052862E-006
  0.37170000000000003          4.7219286551012424E-006
  0.37280000000000002          5.8960609706618333E-006
  0.37390000000000001          7.3368304937041336E-006
  0.37500000000000006          9.1003609389030325E-006
  0.37610000000000005          1.1253100554835982E-005
  0.37720000000000004          1.3873464761370635E-005
  0.37830000000000003          1.7053722842139844E-005
  0.37940000000000002          2.0902134518836649E-005
  0.38050000000000006          2.5545352466571629E-005
  0.38160000000000005          3.1131069220260129E-005
  0.38270000000000004          3.7830927552761631E-005
  0.38380000000000003          4.5843688971594187E-005
  0.38490000000000002          5.5398625683183474E-005
  0.38600000000000001          6.6759159525318630E-005
  0.38710000000000000          8.0226713531139055E-005
  0.38819999999999999          9.6144789087243782E-005
  0.38930000000000009          1.1490318772197189E-004
  0.39040000000000008          1.3694239057534472E-004
  0.39150000000000007          1.6275801850771407E-004
  0.39260000000000006          1.9290527547874374E-004
  0.39370000000000005          2.2800332719497387E-004
  0.39480000000000004          2.6873949594954309E-004
  0.39590000000000003          3.1587320741322667E-004
  0.39700000000000002          3.7023923649160382E-004
  0.39810000000000001          4.3275061510958976E-004
  0.39920000000000000          5.0440046535470085E-004
  0.40029999999999999          5.8626307407276513E-004
  0.40140000000000009          6.7949357916955268E-004
  0.40250000000000008          7.8532618713542687E-004
  0.40360000000000007          9.0507096348515701E-004
  0.40470000000000006          1.0401084885251677E-003
  0.40580000000000005          1.1918822764344890E-003
  0.40690000000000004          1.3618893755533447E-003
  0.40800000000000003          1.5516674588571520E-003
  0.40910000000000002          1.7627801245061628E-003
  0.41020000000000001          1.9967986752695444E-003
  0.41130000000000000          2.2552811546016367E-003
  0.41239999999999999          2.5397487744182796E-003
  0.41350000000000009          2.8516574266432429E-003
  0.41460000000000008          3.1923689247287598E-003
  0.41570000000000007          3.5631163972379655E-003
  0.41680000000000006          3.9649690634993443E-003
  0.41790000000000005          4.3987930922232002E-003
  0.41900000000000004          4.8652107510437099E-003
  0.42010000000000003          5.3645589480428102E-003
  0.42120000000000002          5.8968441636378212E-003
  0.42230000000000001          6.4616998885755061E-003
  0.42340000000000000          7.0583427778385622E-003
  0.42449999999999999          7.6855301427949177E-003
  0.42560000000000009          8.3415219533688623E-003
  0.42670000000000008          9.0240420332874209E-003
  0.42780000000000007          9.7302497730771161E-003
  0.42890000000000006          1.0456713138294499E-002
  0.43000000000000005          1.1199388110788352E-002
  0.43110000000000004          1.1953607228533891E-002
  0.43220000000000003          1.2714079922763492E-002
  0.43330000000000002          1.3474895761446393E-002
  0.43440000000000001          1.4229543264809307E-002
  0.43550000000000000          1.4970941497561192E-002
  0.43659999999999999          1.5691481402072948E-002
  0.43770000000000009          1.6383080569906741E-002
  0.43880000000000008          1.7037246542217672E-002
  0.43990000000000007          1.7645159939985808E-002
  0.44100000000000006          1.8197768005125941E-002
  0.44210000000000005          1.8685881761121893E-002
  0.44320000000000004          1.9100296633191009E-002
  0.44430000000000003          1.9431911828137055E-002
  0.44540000000000002          1.9671859794964643E-002
  0.44650000000000001          1.9811644300969277E-002
  0.44760000000000000          1.9843285386563592E-002
  0.44869999999999999          1.9759453014805601E-002
  0.44980000000000009          1.9553616502154470E-002
  0.45090000000000008          1.9220177555850516E-002
  0.45200000000000007          1.8754604428879770E-002
  0.45310000000000006          1.8153547304736565E-002
  0.45420000000000005          1.7414955708250825E-002
  0.45530000000000004          1.6538167250778446E-002
  0.45640000000000003          1.5523989310888216E-002
  0.45750000000000002          1.4374760309328452E-002
  0.45860000000000001          1.3094381249825433E-002
  0.45970000000000000          1.1688334009589655E-002
  0.46079999999999999          1.0163667180604765E-002
  0.46190000000000009          8.5289634450639428E-003
  0.46300000000000008          6.7942796861921650E-003
  0.46410000000000007          4.9710635321426602E-003
  0.46520000000000006          3.0720450061499263E-003
  0.46630000000000005          1.1111024941338704E-003
  0.46740000000000004         -8.9688855156132828E-004
  0.46850000000000003         -2.9362293842810638E-003
  0.46960000000000002         -4.9905871865716265E-003
  0.47070000000000001         -7.0431966380328998E-003
  0.47180000000000000         -9.0770713733830284E-003
  0.47289999999999999         -1.1075220589404163E-002
  0.47400000000000009         -1.3020873707326817E-002
  0.47510000000000008         -1.4897695817622236E-002
  0.47620000000000007         -1.6690003582371271E-002
  0.47730000000000006         -1.8382970456534198E-002
  0.47840000000000005         -1.9962817430474483E-002