 -0.12000000000000000          0.0000000000000000     
 -0.11889999999999999          0.0000000000000000     
 -0.11780000000000000          0.0000000000000000     
 -0.11670000000000000          0.0000000000000000     
 -0.11559999999999999          0.0000000000000000     
 -0.11449999999999999          0.0000000000000000     
 -0.11340000000000000          0.0000000000000000     
 -0.11230000000000000          0.0000000000000000     
 -0.11119999999999999          0.0000000000000000     
 -0.11009999999999999          0.0000000000000000     
 -0.10900000000000000          0.0000000000000000     
 -0.10790000000000000          0.0000000000000000     
 -0.10679999999999999          0.0000000000000000     
 -0.10569999999999999          0.0000000000000000     
 -0.10460000000000000          0.0000000000000000     
 -0.10349999999999999          0.0000000000000000     
 -0.10239999999999999          0.0000000000000000     
 -0.10130000000000000          0.0000000000000000     
 -0.10020000000000000          0.0000000000000000     
  -9.9099999999999994E-002     0.0000000000000000     
  -9.7999999999999990E-002     0.0000000000000000     
  -9.6899999999999986E-002     0.0000000000000000     
  -9.5799999999999996E-002     0.0000000000000000     
  -9.4699999999999993E-002     0.0000000000000000     
  -9.3599999999999989E-002     0.0000000000000000     
  -9.2499999999999999E-002     0.0000000000000000     
  -9.1399999999999995E-002     0.0000000000000000     
  -9.0299999999999991E-002     0.0000000000000000     
  -8.9200000000000002E-002     0.0000000000000000     
  -8.8099999999999984E-002     0.0000000000000000     
  -8.6999999999999994E-002     0.0000000000000000     
  -8.5899999999999990E-002     0.0000000000000000     
  -8.4799999999999986E-002     0.0000000000000000     
  -8.3699999999999997E-002     0.0000000000000000     
  -8.2599999999999993E-002     0.0000000000000000     
  -8.1499999999999989E-002     0.0000000000000000     
  -8.0399999999999999E-002     0.0000000000000000     
  -7.9299999999999995E-002     0.0000000000000000     
  -7.8199999999999992E-002     0.0000000000000000     
  -7.7100000000000002E-002     0.0000000000000000     
  -7.5999999999999984E-002     0.0000000000000000     
  -7.4899999999999994E-002    -6.2266700923180539E-045
  -7.3799999999999991E-002    -2.3141748670285257E-044
  -7.2699999999999987E-002    -3.4336657718139831E-044
  -7.1599999999999997E-002    -1.3645448258231749E-039
  -7.0499999999999993E-002    -2.7266540616061591E-039
  -6.9399999999999989E-002     3.0594284798439720E-039
  -6.8300000000000000E-002     3.1483047864719708E-038
  -6.7199999999999996E-002     5.5883983598688112E-038
  -6.6099999999999992E-002    -7.3383778004952030E-039
  -6.5000000000000002E-002    -2.5228842985597515E-037
  -6.3899999999999985E-002    -5.7106644580046398E-037
  -6.2799999999999995E-002    -5.0274991389125878E-037
  -6.1699999999999991E-002     8.4224288849454136E-037
  -6.0599999999999994E-002     4.0256219659828286E-036
  -5.9499999999999990E-002     7.2732483011642809E-036
  -5.8399999999999994E-002     4.2989989195925483E-036
  -5.7299999999999990E-002    -1.4371732452807648E-035
  -5.6199999999999986E-002    -5.0886385011294786E-035
  -5.5099999999999996E-002    -7.9316046069385703E-035
  -5.3999999999999992E-002    -2.9974835024855734E-035
  -5.2899999999999989E-002     1.8246554123092982E-034
  -5.1799999999999985E-002     5.4435019656620554E-034
  -5.0699999999999995E-002     7.6054424545677771E-034
  -4.9599999999999991E-002     1.7305922368507126E-034
  -4.8499999999999988E-002    -1.8887790383805489E-033
  -4.7399999999999998E-002    -5.0636453768210052E-033
  -4.6299999999999994E-002    -6.5625643006576806E-033
  -4.5199999999999990E-002    -9.3145631807025981E-034
  -4.4099999999999986E-002     1.6593829772724444E-032
  -4.2999999999999997E-002     4.1817771965612763E-032
  -4.1899999999999993E-002     5.2012081456961703E-032
  -4.0799999999999989E-002     6.5653424362886574E-033
  -3.9699999999999985E-002    -1.2615705389283920E-031
  -3.8599999999999995E-002    -3.1045221905165113E-031
  -3.7499999999999992E-002    -3.8283727656157886E-031
  -3.6399999999999988E-002    -6.7328854005912582E-032
  -3.5299999999999984E-002     8.3767321097710965E-031
  -3.4199999999999994E-002     2.0855572638467688E-030
  -3.3099999999999991E-002     2.6229583043338704E-030
  -3.1999999999999987E-002     7.2076997191576117E-031
  -3.0899999999999997E-002    -4.8701239690459957E-030
  -2.9799999999999993E-002    -1.2718435179034471E-029
  -2.8699999999999989E-002    -1.6686479370408807E-029
  -2.7599999999999986E-002    -6.7278905567764079E-030
  -2.6499999999999996E-002     2.4671202021296265E-029
  -2.5399999999999992E-002     7.0492640478903862E-029
  -2.4299999999999988E-002     9.8210138404872237E-029
  -2.3199999999999985E-002     5.3535729851668619E-029
  -2.2099999999999995E-002    -1.0695559379913771E-028
  -2.0999999999999991E-002    -3.5489462567784986E-028
  -1.9899999999999987E-002    -5.3309746775047908E-028
  -1.8799999999999983E-002    -3.6846936007402117E-028
  -1.7699999999999994E-002     3.7716238301937075E-028
  -1.6599999999999990E-002     1.6181788621267147E-027
  -1.5499999999999986E-002     2.6622366619939454E-027
  -1.4399999999999996E-002     2.2309160623736387E-027
  -1.3299999999999992E-002    -9.0325660982014719E-028
  -1.2199999999999989E-002    -6.6370236080642916E-027
  -1.1099999999999985E-002    -1.2202746906431514E-026
  -9.9999999999999950E-003    -1.2039193111496197E-026
  -8.8999999999999913E-003    -2.4116286735700828E-028
  -7.7999999999999875E-003     2.4144835946119037E-026
  -6.6999999999999837E-003     5.1180492981193551E-026
  -5.5999999999999939E-003     5.8440659123173029E-026
  -4.4999999999999901E-003     1.9512742469908728E-026
  -3.3999999999999864E-003    -7.5573326215377061E-026
  -2.2999999999999826E-003    -1.9545670320362091E-025
  -1.1999999999999927E-003    -2.5663864862332266E-025
  -9.9999999999988987E-005    -1.4956530028180903E-025
   1.0000000000000148E-003     1.8812712095315091E-025
   2.1000000000000185E-003     6.7387183675654862E-025
   3.2000000000000084E-003     1.0223410826583437E-024
   4.3000000000000121E-003     8.1302801356593718E-025
   5.4000000000000159E-003    -2.6696912733722336E-025
   6.5000000000000058E-003    -2.0642987486997086E-024
   7.6000000000000234E-003    -3.6931958877653591E-024
   8.7000000000000133E-003    -3.6636807780142226E-024
   9.8000000000000032E-003    -6.1945659858648611E-025
   1.0900000000000021E-002     5.4362536458137414E-024
   1.2000000000000011E-002     1.2050687069046732E-023
   1.3100000000000001E-002     1.4367928201345151E-023
   1.4200000000000018E-002     7.1562708173805117E-024
   1.5300000000000008E-002    -1.1303269926653857E-023
   1.6400000000000026E-002    -3.5178064839381371E-023
   1.7500000000000016E-002    -4.9997696065723895E-023
   1.8600000000000005E-002    -3.7553690310999513E-023
   1.9700000000000023E-002     1.2709779562797242E-023
   2.0800000000000013E-002     9.0036212966954698E-023
   2.1900000000000003E-002     1.5539592607767532E-022
   2.3000000000000020E-002     1.5125695263518154E-022
   2.4100000000000010E-002     3.2164240818985353E-023
   2.5200000000000000E-002    -1.9291149039426137E-022
   2.6300000000000018E-002    -4.3047242010946135E-022
   2.7400000000000008E-002    -5.1530724444816419E-022
   2.8500000000000025E-002    -2.8476645538471184E-022
   2.9600000000000015E-002     3.0074239321318896E-022
   3.0700000000000005E-002     1.0501573210084908E-021
   3.1800000000000023E-002     1.5337980865185457E-021
   3.2900000000000013E-002     1.2426901088689545E-021
   3.4000000000000002E-002    -9.7346993923457794E-023
   3.5100000000000020E-002    -2.1887304402184613E-021
   3.6200000000000010E-002    -4.0291495481124572E-021
   3.7300000000000028E-002    -4.1971892425683876E-021
   3.8400000000000017E-002    -1.5983132782136207E-021
   3.9500000000000007E-002     3.5883827964270331E-021
   4.0600000000000025E-002     9.3101417393538269E-021
   4.1700000000000015E-002     1.1997941483611450E-020
   4.2800000000000005E-002     8.1625259644887842E-021
   4.3900000000000022E-002    -3.1940911482772849E-021
   4.5000000000000012E-002    -1.8563590853277323E-020
   4.6100000000000002E-002    -2.9895303412462791E-020
   4.7200000000000020E-002    -2.7599613959530517E-020
   4.8300000000000010E-002    -6.1352465840192845E-021
   4.9400000000000027E-002     3.0253636757680205E-020
   5.0500000000000017E-002     6.5410425859881411E-020
   5.1600000000000007E-002     7.5958621840982114E-020
   5.2700000000000025E-002     4.3049029954784638E-020
   5.3800000000000014E-002    -3.3175215459203613E-020
   5.4900000000000004E-002    -1.2460369250428117E-019
   5.6000000000000022E-002    -1.8013945833600041E-019
   5.7100000000000012E-002    -1.4788961775949248E-019
   5.8200000000000002E-002    -8.0680741687445189E-021
   5.9300000000000019E-002     1.9981535997999300E-019
   6.0400000000000009E-002     3.7557176404851299E-019
   6.1500000000000027E-002     3.9507366964576979E-019
   6.2600000000000017E-002     1.7827453950886861E-019
   6.3700000000000007E-002    -2.4137287733920848E-019
   6.4800000000000024E-002    -6.8963875108030382E-019
   6.5900000000000014E-002    -9.0142624347370536E-019
   6.7000000000000004E-002    -6.4848420919060397E-019
   6.8100000000000022E-002     1.0348072734038910E-019
   6.9200000000000012E-002     1.0949504394419338E-018
   7.0300000000000029E-002     1.8154662224564204E-018
   7.1400000000000019E-002     1.7191132268509034E-018
   7.2500000000000009E-002     5.4629756417424197E-019
   7.3600000000000027E-002    -1.4064893397515935E-018
   7.4700000000000016E-002    -3.2555707129477112E-018
   7.5800000000000006E-002    -3.8470988125054342E-018
   7.6900000000000024E-002    -2.3575362205503706E-018
   7.8000000000000014E-002     1.0855391334842280E-018
   7.9100000000000004E-002     5.1340700665378169E-018
   8.0200000000000021E-002     7.5923601731793286E-018
   8.1300000000000011E-002     6.4345254053740065E-018
   8.2400000000000029E-002     1.0774325572364450E-018
   8.3500000000000019E-002    -6.7704690323277872E-018
   8.4600000000000009E-002    -1.3340930676571555E-017
   8.5700000000000026E-002    -1.4345564152700216E-017
   8.6800000000000016E-002    -7.3397918468373313E-018
   8.7900000000000006E-002     6.2271444452965958E-018
   8.9000000000000024E-002     2.0598454667782710E-017
   9.0100000000000013E-002     2.7704664804920082E-017
   9.1200000000000003E-002     2.1151660171708930E-017
   9.2300000000000021E-002     4.7255833056256098E-019
   9.3400000000000011E-002    -2.6778577562050117E-017
   9.4500000000000028E-002    -4.6979518844622906E-017
   9.5600000000000018E-002    -4.6512769654566620E-017
   9.6700000000000008E-002    -1.9630934320727454E-017
   9.7800000000000026E-002     2.5950004335467266E-017
   9.8900000000000016E-002     6.9643694501226653E-017
  0.10000000000000001          8.6192397574631999E-017
  0.10110000000000002          5.8854064534178516E-017
  0.10220000000000001         -8.6787865025604099E-018
  0.10330000000000003         -8.8875052928972556E-017
  0.10440000000000002         -1.3975288639551604E-016
  0.10550000000000001         -1.2506706419956203E-016
  0.10660000000000003         -3.6511809645722766E-017
  0.10770000000000002          9.4332226139123889E-017
  0.10880000000000001          2.0385362098841438E-016
  0.10990000000000003          2.2464454887908186E-016
  0.11100000000000002          1.2307329517524855E-016
  0.11210000000000001         -7.3039217011935128E-017
  0.11320000000000002         -2.7502313228392410E-016
  0.11430000000000001         -3.6895478207893079E-016
  0.11540000000000003         -2.7451117561755605E-016
  0.11650000000000002          8.8601076109956288E-019
  0.11760000000000001          3.4474261485629629E-016
  0.11870000000000003          5.7781216254117807E-016
  0.11980000000000002          5.3965685106270465E-016
  0.12090000000000001          1.8412898847630536E-016
  0.12200000000000003         -3.6699550343970528E-016
  0.12310000000000001         -8.5237542891587703E-016
  0.12420000000000003         -9.8452078260726253E-016
  0.12530000000000002         -6.0407598602438211E-016
  0.12640000000000001          2.0216069507590194E-016
  0.12750000000000003          1.0934331150625710E-015
  0.12860000000000002          1.6059696707668714E-015
  0.12970000000000001          1.3799896171297823E-015
  0.13080000000000003          3.7760853885447442E-016
  0.13190000000000002         -1.0303883933218681E-015
  0.13300000000000001         -2.1832771697499997E-015
  0.13410000000000000         -2.4302866160333401E-015
  0.13520000000000004         -1.4823903862701985E-015
  0.13630000000000003          3.6703175834332381E-016
  0.13740000000000002          2.2982530465635082E-015
  0.13850000000000001          3.3180389592855219E-015
  0.13960000000000000          2.7687927802535593E-015
  0.14070000000000005          7.4088603850022496E-016
  0.14180000000000004         -1.8576634134991015E-015
  0.14290000000000003         -3.6741645838884757E-015
  0.14400000000000002         -3.5978231869501651E-015
  0.14510000000000001         -1.4310404102312236E-015
  0.14620000000000000          1.8366482803759371E-015
  0.14730000000000004          4.3830598933472203E-015
  0.14840000000000003          4.4576493281977489E-015
  0.14950000000000002          1.4312448258611047E-015
  0.15060000000000001         -3.5762196794015295E-015
  0.15170000000000000         -7.9359608592426465E-015
  0.15280000000000005         -8.6709555741915359E-015
  0.15390000000000004         -4.0884785851781563E-015
  0.15500000000000003          4.9174349393469484E-015
  0.15610000000000002          1.4681134769898126E-014
  0.15720000000000001          2.0042204589871650E-014
  0.15830000000000000          1.6715651225360702E-014
  0.15940000000000004          3.7377544923752843E-015
  0.16050000000000003         -1.5261315999219816E-014
  0.16160000000000002         -3.2828553094376554E-014
  0.16270000000000001         -4.0484365603647741E-014
  0.16380000000000000         -3.2507962005302375E-014
  0.16490000000000005         -9.0337480153804346E-015
  0.16600000000000004          2.3107408049634104E-014
  0.16710000000000003          5.2464564924847806E-014
  0.16820000000000002          6.7294502047000831E-014
  0.16930000000000001          6.0348236052152761E-014
  0.17040000000000000          3.1987962574079412E-014
  0.17150000000000004         -9.8026550680820045E-015
  0.17260000000000003         -5.2513623609111444E-014
  0.17370000000000002         -8.3819672258117067E-014
  0.17480000000000001         -9.5660370013205849E-014
  0.17590000000000000         -8.5863613078601305E-014
  0.17700000000000005         -5.6918544364440532E-014
  0.17810000000000004         -1.3191234740470079E-014
  0.17920000000000003          4.1161327018150142E-014
  0.18030000000000002          1.0175804943323788E-013
  0.18140000000000001          1.6097845009192693E-013
  0.18250000000000000          2.0449466331514700E-013
  0.18360000000000004          2.1078485782470555E-013
  0.18470000000000003          1.5642116314585882E-013
  0.18580000000000002          2.7206989749600463E-014
  0.18690000000000001         -1.6849992763888490E-013
  0.18800000000000000         -3.9081541305592456E-013
  0.18910000000000005         -5.7041350042419309E-013
  0.19020000000000004         -6.2504781795240139E-013
  0.19130000000000003         -4.8794328246975447E-013
  0.19240000000000002         -1.3929055637632828E-013
  0.19350000000000001          3.7146926825804076E-013
  0.19460000000000005          9.2369286208067447E-013
  0.19570000000000004          1.3489650691190670E-012
  0.19680000000000003          1.4760577100318966E-012
  0.19790000000000002          1.1852882704208444E-012
  0.19900000000000001          4.5584665853669093E-013
  0.20010000000000000         -6.0901796691241837E-013
  0.20120000000000005         -1.7878388751025952E-012
  0.20230000000000004         -2.7783040147170632E-012
  0.20340000000000003         -3.2592893877172157E-012
  0.20450000000000002         -2.9663719205880948E-012
  0.20560000000000000         -1.7682314486514574E-012
  0.20670000000000005          2.6895220042042822E-013
  0.20780000000000004          2.8431510912572113E-012
  0.20890000000000003          5.4202717651154826E-012
  0.21000000000000002          7.2963761663850459E-012
  0.21110000000000001          7.7284872248100816E-012
  0.21220000000000000          6.1279765821057480E-012
  0.21330000000000005          2.2850613770579090E-012
  0.21440000000000003         -3.4348443400401190E-012
  0.21550000000000002         -9.9999501493904290E-012
  0.21660000000000001         -1.5797663471638273E-011
  0.21770000000000000         -1.8932264836707272E-011
  0.21880000000000005         -1.7706719059855189E-011
  0.21990000000000004         -1.1187105913837346E-011
  0.22100000000000003          3.0944141160792726E-013
  0.22210000000000002          1.4977941793404870E-011
  0.22320000000000001          2.9672479408844651E-011
  0.22430000000000000          4.0473790821952696E-011
  0.22540000000000004          4.3590114502996520E-011
  0.22650000000000003          3.6389606445885287E-011
  0.22760000000000002          1.8297864774259867E-011
  0.22870000000000001         -8.6959829394934111E-012
  0.22980000000000000         -4.0095754316856840E-011
  0.23090000000000005         -6.9552461495389861E-011
  0.23200000000000004         -9.0006306507854653E-011
  0.23310000000000003         -9.5093919387011919E-011
  0.23420000000000002         -8.0546834790384546E-011
  0.23530000000000001         -4.5320680931250354E-011
  0.23640000000000000          7.7443811359748373E-012
  0.23750000000000004          7.1851112866413348E-011
  0.23860000000000003          1.3680508031643770E-010
  0.23970000000000002          1.9019178969107338E-010
  0.24080000000000001          2.1910254480028103E-010
  0.24190000000000000          2.1227581315347669E-010
  0.24300000000000005          1.6243132614097043E-010
  0.24410000000000004          6.8466456750380079E-011
  0.24520000000000003         -6.2911173177151421E-011
  0.24630000000000002         -2.1657596055388596E-010
  0.24740000000000001         -3.6979132582396663E-010
  0.24850000000000005         -4.9462168889537223E-010
  0.24960000000000004         -5.6183147907184120E-010
  0.25070000000000003         -5.4580041659650139E-010
  0.25180000000000002         -4.2968034787163028E-010
  0.25290000000000001         -2.0985711608916720E-010
  0.25400000000000000          1.0117452673028128E-010
  0.25510000000000005          4.7416322616648332E-010
  0.25620000000000004          8.6491841905360037E-010
  0.25730000000000003          1.2183877600218999E-009
  0.25840000000000002          1.4744331202224827E-009
  0.25950000000000001          1.5745718613472687E-009
  0.26060000000000005          1.4689946297925039E-009
  0.26170000000000004          1.1233877985900596E-009
  0.26280000000000003          5.2535566710544469E-010
  0.26390000000000002         -3.0960692392055089E-010
  0.26500000000000001         -1.3327263993524006E-009
  0.26610000000000000         -2.4576605060484924E-009
  0.26720000000000005         -3.5584223051159724E-009
  0.26830000000000004         -4.4712411343572668E-009
  0.26940000000000003         -5.0024169217894317E-009
  0.27050000000000002         -4.9439819410639301E-009
  0.27160000000000001         -4.0980089835430003E-009
  0.27270000000000005         -2.3087453896107849E-009
  0.27380000000000004          5.0029189381536931E-010
  0.27490000000000003          4.2889999380250117E-009
  0.27600000000000002          8.8689991229653541E-009
  0.27710000000000001          1.3883234772648358E-008
  0.27820000000000000          1.8800865546711166E-008
  0.27930000000000005          2.2928454765516728E-008
  0.28040000000000004          2.5434866159222129E-008
  0.28150000000000003          2.5383878745077142E-008
  0.28260000000000002          2.1766213461049836E-008
  0.28370000000000001          1.3522065304894507E-008
  0.28480000000000005         -4.5364775313336480E-010
  0.28590000000000004         -2.1328729906026550E-008
  0.28700000000000003         -5.0376453006933053E-008
  0.28810000000000002         -8.9043899801890039E-008
  0.28920000000000001         -1.3904504126898323E-007
  0.29030000000000000         -2.0247797900239152E-007
  0.29140000000000005         -2.8196650732358767E-007
  0.29250000000000004         -3.8082731599520088E-007
  0.29360000000000003         -5.0326414826854352E-007
  0.29470000000000002         -6.5459014693402142E-007
  0.29580000000000001         -8.4147711407665553E-007
  0.29690000000000005         -1.0722306288549493E-006
  0.29800000000000004         -1.3570886937166304E-006
  0.29910000000000003         -1.7085461209695946E-006
  0.30020000000000002         -2.1417098993418347E-006
  0.30130000000000001         -2.6746990967424660E-006
  0.30240000000000000         -3.3291070775534591E-006
  0.30350000000000005         -4.1305506910489533E-006
  0.30460000000000004         -5.1093226296798534E-006
  0.30570000000000003         -6.3011657443041206E-006
  0.30680000000000002         -7.7481768389111930E-006
  0.30790000000000001         -9.4998323500120058E-006
  0.30900000000000005         -1.1614131792376038E-005
  0.31010000000000004         -1.4158838345956392E-005
  0.31120000000000003         -1.7212818004857614E-005
  0.31230000000000002         -2.0867446985088633E-005
  0.31340000000000001         -2.5228129943111945E-005
  0.31450000000000006         -3.0415900577924306E-005
  0.31560000000000005         -3.6569145325508587E-005
  0.31670000000000004         -4.3845450688357183E-005
  0.31780000000000003         -5.2423571107858714E-005
  0.31890000000000002         -6.2505474792842221E-005
  0.32000000000000001         -7.4318462857879414E-005
  0.32110000000000005         -8.8117306679758408E-005
  0.32220000000000004         -1.0418630696012063E-004
  0.32330000000000003         -1.2284124603215336E-004
  0.32440000000000002         -1.4443123634039066E-004
  0.32550000000000001         -1.6934016229609071E-004
  0.32660000000000006         -1.9798800508420415E-004
  0.32770000000000005         -2.3083159704619821E-004
  0.32880000000000004         -2.6836500213333215E-004
  0.32990000000000003         -3.1111920322602032E-004
  0.33100000000000002         -3.5966125297338047E-004
  0.33210000000000001         -4.1459245975499479E-004
  0.33320000000000005         -4.7654571229849399E-004
  0.33430000000000004         -5.4618185662084063E-004
  0.33540000000000003         -6.2418475835289032E-004
  0.33650000000000002         -7.1125527174687071E-004
  0.33760000000000001         -8.0810401854515697E-004
  0.33870000000000006         -9.1544272353046875E-004
  0.33980000000000005         -1.0339739126023133E-003
  0.34090000000000004         -1.1643798697734387E-003
  0.34200000000000003         -1.3073087865492386E-003
  0.34310000000000002         -1.4633606594811124E-003
  0.34420000000000001         -1.6330706216122215E-003
  0.34530000000000005         -1.8168910287364119E-003
  0.34640000000000004         -2.0151720650888310E-003
  0.34750000000000003         -2.2281425336143235E-003
  0.34860000000000002         -2.4558877058620744E-003
  0.34970000000000001         -2.6983287640116398E-003
  0.35080000000000006         -2.9552002329579327E-003
  0.35190000000000005         -3.2260297767806785E-003
  0.35300000000000004         -3.5101173905290549E-003
  0.35410000000000003         -3.8065160002750884E-003
  0.35520000000000002         -4.1140156334448846E-003
  0.35630000000000001         -4.4311253855026638E-003
  0.35740000000000005         -4.7560624735004109E-003
  0.35850000000000004         -5.0867422359702442E-003
  0.35960000000000003         -5.4207721994479945E-003
  0.36070000000000002         -5.7554522051715814E-003
  0.36180000000000001         -6.0877787721348598E-003
  0.36290000000000006         -6.4144538598184635E-003
  0.36400000000000005         -6.7318988878676649E-003
  0.36510000000000004         -7.0362795982355239E-003
  0.36620000000000003         -7.3235313369818733E-003
  0.36730000000000002         -7.5893949021003911E-003
  0.36840000000000006         -7.8294577837457052E-003
  0.36950000000000005         -8.0392005343453178E-003
  0.37060000000000004         -8.2140530883399836E-003
  0.37170000000000003         -8.3494513992774140E-003
  0.37280000000000002         -8.4409034169981041E-003
  0.37390000000000001         -8.4840574597922960E-003
  0.37500000000000006         -8.4747707387971601E-003
  0.37610000000000005         -8.4091855385126507E-003
  0.37720000000000004         -8.2838015056914457E-003
  0.37830000000000003         -8.0955460251226699E-003
  0.37940000000000002         -7.8418500334771941E-003
  0.38050000000000006         -7.5207126100068971E-003
  0.38160000000000005         -7.1307640175554262E-003
  0.38270000000000004         -6.6713241410540263E-003
  0.38380000000000003         -6.1424494703527267E-003
  0.38490000000000002         -5.5449731966813100E-003
  0.38600000000000001         -4.8805345116422049E-003
  0.38710000000000000         -4.1515966776030314E-003
  0.38819999999999999         -3.3614525986099273E-003
  0.38930000000000009         -2.5142188924479631E-003
  0.39040000000000008         -1.6148139490829196E-003
  0.39150000000000007         -6.6892513313697140E-004
  0.39260000000000006          3.1704051891200125E-004
  0.39370000000000005          1.3360175596492643E-003
  0.39480000000000004          2.3803556642085929E-003
  0.39590000000000003          3.4419043924888686E-003
  0.39700000000000002          4.5121083509695355E-003
  0.39810000000000001          5.5821095197398545E-003
  0.39920000000000000          6.6428575127555371E-003
  0.40029999999999999          7.6852275786249936E-003
  0.40140000000000009          8.7001389138919426E-003
  0.40250000000000008          9.6786794420453195E-003
  0.40360000000000007          1.0612223322720471E-002
  0.40470000000000006          1.1492547549414693E-002
  0.40580000000000005          1.2311942345353861E-002
  0.40690000000000004          1.3063316558086504E-002
  0.40800000000000003          1.3740288175990149E-002
  0.40910000000000002          1.4337269787419324E-002
  0.41020000000000001          1.4849541950268339E-002
  0.41130000000000000          1.5273307827051467E-002
  0.41239999999999999          1.5605742574525759E-002
  0.41350000000000009          1.5845016289569955E-002
  0.41460000000000008          1.5990311359159178E-002
  0.41570000000000007          1.6041815614637699E-002
  0.41680000000000006          1.6000701879506703E-002
  0.41790000000000005          1.5869095195232944E-002
  0.41900000000000004          1.5650026101448729E-002
  0.42010000000000003          1.5347372764822127E-002
  0.42120000000000002          1.4965791266260494E-002
  0.42230000000000001          1.4510631509420656E-002
  0.42340000000000000          1.3987851001255885E-002
  0.42449999999999999          1.3403913447527891E-002
  0.42560000000000009          1.2765692133480881E-002
  0.42670000000000008          1.2080366202413460E-002
  0.42780000000000007          1.1355320214652779E-002
  0.42890000000000006          1.0598040496716473E-002
  0.43000000000000005          9.8160174671412855E-003
  0.43110000000000004          9.0166493234304194E-003
  0.43220000000000003          8.2071516798824032E-003
  0.43330000000000002          7.3944732489068469E-003
  0.43440000000000001          6.5852250540113086E-003
  0.43550000000000000          5.7856136010069874E-003
  0.43659999999999999          5.0013883213253811E-003
  0.43770000000000009          4.2377956510219507E-003
  0.43880000000000008          3.4995451211688130E-003
  0.43990000000000007          2.7907849873014378E-003
  0.44100000000000006          2.1150864995389943E-003
  0.44210000000000005          1.4754384350193150E-003
  0.44320000000000004          8.7425163763607126E-004
  0.44430000000000003          3.1337111472675192E-004
  0.44540000000000002         -2.0590479073211740E-004
  0.44650000000000001         -6.8279895256720229E-004
  0.44760000000000000         -1.1170242062177147E-003
  0.44869999999999999         -1.5087462807666435E-003
  0.44980000000000009         -1.8585433591815151E-003
  0.45090000000000008         -2.1673632002238027E-003
  0.45200000000000007         -2.4364788079871461E-003
  0.45310000000000006         -2.6674447192207343E-003
  0.45420000000000005         -2.8620513990952022E-003
  0.45530000000000004         -3.0222815178294546E-003
  0.45640000000000003         -3.1502649508389530E-003
  0.45750000000000002         -3.2482385469538395E-003
  0.45860000000000001         -3.3185057295253236E-003
  0.45970000000000000         -3.3634034013210229E-003
  0.46079999999999999         -3.3852699985919940E-003
  0.46190000000000009         -3.3864194190501452E-003
  0.46300000000000008         -3.3691162017056337E-003
  0.46410000000000007         -3.3355540600615192E-003
  0.46520000000000006         -3.2878355106938399E-003
  0.46630000000000005         -3.2279556114720880E-003
  0.46740000000000004         -3.1577894385161134E-003
  0.46850000000000003         -3.0790847633916075E-003
  0.46960000000000002         -2.9934581348386373E-003
  0.47070000000000001         -2.9023941550054009E-003
  0.47180000000000000         -2.8072447821694503E-003
  0.47289999999999999         -2.7092304344468539E-003
  0.47400000000000009         -2.6094412219448680E-003
  0.47510000000000008         -2.5088408399575649E-003
  0.47620000000000007         -2.4082714837315678E-003
  0.47730000000000006         -2.3084620212342134E-003
  0.47840000000000005         -2.2100373987601657E-003