-0.1200000E+00  0.0000000E+00
-0.1189000E+00  0.0000000E+00
-0.1178000E+00  0.0000000E+00
-0.1167000E+00  0.0000000E+00
-0.1156000E+00  0.0000000E+00
-0.1145000E+00  0.0000000E+00
-0.1134000E+00  0.0000000E+00
-0.1123000E+00  0.0000000E+00
-0.1112000E+00  0.0000000E+00
-0.1101000E+00  0.0000000E+00
-0.1090000E+00  0.0000000E+00
-0.1079000E+00  0.0000000E+00
-0.1068000E+00  0.0000000E+00
-0.1057000E+00  0.0000000E+00
-0.1046000E+00 -0.0000000E+00
-0.1035000E+00  0.0000000E+00
-0.1024000E+00 -0.2337733E-37
-0.1013000E+00  0.2192036E-37
-0.1002000E+00  0.5686423E-36
-0.9910000E-01  0.6554901E-36
-0.9800000E-01 -0.1009112E-34
-0.9690000E-01 -0.5735659E-34
-0.9580000E-01 -0.1187571E-33
-0.9470000E-01  0.1233383E-33
-0.9360000E-01  0.1496625E-32
-0.9250000E-01  0.4078222E-32
-0.9140000E-01  0.1912442E-32
-0.9030000E-01 -0.2420525E-31
-0.8920000E-01 -0.9505257E-31
-0.8810000E-01 -0.1572765E-30
-0.8700000E-01  0.6856207E-31
-0.8590000E-01  0.1122889E-29
-0.8480000E-01  0.3152046E-29
-0.8370000E-01  0.3932015E-29
-0.8260000E-01 -0.3579016E-29
-0.8150000E-01 -0.2930157E-28
-0.8040000E-01 -0.7062364E-28
-0.7930000E-01 -0.7921713E-28
-0.7820000E-01  0.6659992E-28
-0.7710000E-01  0.5095297E-27
-0.7600000E-01  0.1177356E-26
-0.7490000E-01  0.1361747E-26
-0.7380000E-01 -0.5460948E-27
-0.7270000E-01 -0.6319823E-26
-0.7160000E-01 -0.1519582E-25
-0.7050000E-01 -0.1947650E-25
-0.6940000E-01 -0.2012291E-26
-0.6830000E-01  0.5671190E-25
-0.6720000E-01  0.1538840E-24
-0.6610000E-01  0.2250594E-24
-0.6500000E-01  0.1194627E-24
-0.6390000E-01 -0.3501073E-24
-0.6280000E-01 -0.1221622E-23
-0.6170000E-01 -0.2078666E-23
-0.6060000E-01 -0.1820634E-23
-0.5950000E-01  0.1087916E-23
-0.5840000E-01  0.7456678E-23
-0.5730000E-01  0.1531115E-22
-0.5620000E-01  0.1800993E-22
-0.5510000E-01  0.4911431E-23
-0.5400000E-01 -0.3263289E-22
-0.5290000E-01 -0.8927985E-22
-0.5180000E-01 -0.1325219E-21
-0.5070000E-01 -0.1005073E-21
-0.4960000E-01  0.7319700E-22
-0.4850000E-01  0.3997463E-21
-0.4740000E-01  0.7568663E-21
-0.4630000E-01  0.8462796E-21
-0.4520000E-01  0.2674679E-21
-0.4410000E-01 -0.1231135E-20
-0.4300000E-01 -0.3359522E-20
-0.4190000E-01 -0.4953847E-20
-0.4080000E-01 -0.4061090E-20
-0.3970000E-01  0.1206954E-20
-0.3860000E-01  0.1101178E-19
-0.3750000E-01  0.2192796E-19
-0.3640000E-01  0.2623941E-19
-0.3530000E-01  0.1405604E-19
-0.3420000E-01 -0.2085758E-19
-0.3310000E-01 -0.7282419E-19
-0.3200000E-01 -0.1178935E-18
-0.3090000E-01 -0.1159482E-18
-0.2980000E-01 -0.2687672E-19
-0.2870000E-01  0.1596302E-18
-0.2760000E-01  0.3916592E-18
-0.2650000E-01  0.5417256E-18
-0.2540000E-01  0.4371932E-18
-0.2430000E-01 -0.5349139E-19
-0.2320000E-01 -0.8974103E-18
-0.2210000E-01 -0.1795189E-17
-0.2100000E-01 -0.2186417E-17
-0.1990000E-01 -0.1435696E-17
-0.1880000E-01  0.7992039E-18
-0.1770000E-01  0.4136791E-17
-0.1660000E-01  0.7220323E-17
-0.1550000E-01  0.7927929E-17
-0.1440000E-01  0.4209809E-17
-0.1330000E-01 -0.4579769E-17
-0.1220000E-01 -0.1638425E-16
-0.1110000E-01 -0.2600981E-16
-0.1000000E-01 -0.2634296E-16
-0.8900000E-02 -0.1145748E-16
-0.7800000E-02  0.1916492E-16
-0.6700000E-02  0.5718350E-16
-0.5600000E-02  0.8518504E-16
-0.4500000E-02  0.8160856E-16
-0.3400000E-02  0.3072577E-16
-0.2300000E-02 -0.6536562E-16
-0.1200000E-02 -0.1784846E-15
-0.1000000E-03 -0.2563674E-15
 0.1000000E-02 -0.2389163E-15
 0.2100000E-02 -0.8672048E-16
 0.3200000E-02  0.1877850E-15
 0.4300000E-02  0.5020422E-15
 0.5400000E-02  0.7136065E-15
 0.6500000E-02  0.6663038E-15
 0.7600000E-02  0.2640354E-15
 0.8700000E-02 -0.4539542E-15
 0.9800000E-02 -0.1274171E-14
 0.1090000E-01 -0.1840977E-14
 0.1200000E-01 -0.1772292E-14
 0.1310000E-01 -0.8345709E-15
 0.1420000E-01  0.8857663E-15
 0.1530000E-01  0.2898917E-14
 0.1640000E-01  0.4388684E-14
 0.1750000E-01  0.4471059E-14
 0.1860000E-01  0.2576819E-14
 0.1970000E-01 -0.1176993E-14
 0.2080000E-01 -0.5800999E-14
 0.2190000E-01 -0.9577830E-14
 0.2300000E-01 -0.1057713E-13
 0.2410000E-01 -0.7427474E-14
 0.2520000E-01 -0.8388650E-16
 0.2630000E-01  0.9743045E-14
 0.2740000E-01  0.1877724E-13
 0.2850000E-01  0.2307780E-13
 0.2960000E-01  0.1946564E-13
 0.3070000E-01  0.7024918E-14
 0.3180000E-01 -0.1191343E-13
 0.3290000E-01 -0.3182940E-13
 0.3400000E-01 -0.4533894E-13
 0.3510000E-01 -0.4556181E-13
 0.3620000E-01 -0.2885361E-13
 0.3730000E-01  0.3056213E-14
 0.3840000E-01  0.4244388E-13
 0.3950000E-01  0.7702449E-13
 0.4060000E-01  0.9332328E-13
 0.4170000E-01  0.8115451E-13
 0.4280000E-01  0.3784899E-13
 0.4390000E-01 -0.2926132E-13
 0.4500000E-01 -0.1032352E-12
 0.4610000E-01 -0.1611446E-12
 0.4720000E-01 -0.1802925E-12
 0.4830000E-01 -0.1454886E-12
 0.4940000E-01 -0.5531661E-13
 0.5050000E-01  0.7465270E-13
 0.5160000E-01  0.2131385E-12
 0.5270000E-01  0.3192907E-12
 0.5380000E-01  0.3527932E-12
 0.5490000E-01  0.2858358E-12
 0.5600000E-01  0.1140258E-12
 0.5710000E-01 -0.1369436E-12
 0.5820000E-01 -0.4115952E-12
 0.5930000E-01 -0.6334651E-12
 0.6040000E-01 -0.7220583E-12
 0.6150000E-01 -0.6153491E-12
 0.6260000E-01 -0.2929618E-12
 0.6370000E-01  0.2064552E-12
 0.6480000E-01  0.7804363E-12
 0.6590000E-01  0.1275631E-11
 0.6700000E-01  0.1519850E-11
 0.6810000E-01  0.1369150E-11
 0.6920000E-01  0.7598949E-12
 0.7030000E-01 -0.2489763E-12
 0.7140000E-01 -0.1459635E-11
 0.7250000E-01 -0.2557715E-11
 0.7360000E-01 -0.3177342E-11
 0.7470000E-01 -0.3000267E-11
 0.7580000E-01 -0.1867133E-11
 0.7690000E-01  0.1310300E-12
 0.7800000E-01  0.2615205E-11
 0.7910000E-01  0.4960483E-11
 0.8020000E-01  0.6424921E-11
 0.8130000E-01  0.6346523E-11
 0.8240000E-01  0.4363822E-11
 0.8350000E-01  0.5976528E-12
 0.8460000E-01 -0.4270585E-11
 0.8570000E-01 -0.9071540E-11
 0.8680000E-01 -0.1238303E-10
 0.8790000E-01 -0.1289258E-10
 0.8900000E-01 -0.9806638E-11
 0.9010000E-01 -0.3195336E-11
 0.9120000E-01  0.5841609E-11
 0.9230000E-01  0.1527215E-10
 0.9340000E-01  0.2251654E-10
 0.9450000E-01  0.2506534E-10
 0.9560000E-01  0.2119999E-10
 0.9670000E-01  0.1063253E-10
 0.9780000E-01 -0.5129739E-11
 0.9890000E-01 -0.2284656E-10
 0.1000000E+00 -0.3809469E-10
 0.1011000E+00 -0.4624342E-10
 0.1022000E+00 -0.4366696E-10
 0.1033000E+00 -0.2890879E-10
 0.1044000E+00 -0.3477786E-11
 0.1055000E+00  0.2800029E-10
 0.1066000E+00  0.5842803E-10
 0.1077000E+00  0.7964633E-10
 0.1088000E+00  0.8437160E-10
 0.1099000E+00  0.6824590E-10
 0.1110000E+00  0.3148784E-10
 0.1121000E+00 -0.2034921E-10
 0.1132000E+00 -0.7685701E-10
 0.1143000E+00 -0.1245747E-09
 0.1154000E+00 -0.1498736E-09
 0.1165000E+00 -0.1423711E-09
 0.1176000E+00 -0.9809403E-10
 0.1187000E+00 -0.2155443E-10
 0.1198000E+00  0.7396014E-10
 0.1209000E+00  0.1682381E-09
 0.1220000E+00  0.2380102E-09
 0.1231000E+00  0.2621817E-09
 0.1242000E+00  0.2273394E-09
 0.1253000E+00  0.1322179E-09
 0.1264000E+00 -0.1012962E-10
 0.1275000E+00 -0.1733179E-09
 0.1286000E+00 -0.3219817E-09
 0.1297000E+00 -0.4189062E-09
 0.1308000E+00 -0.4335924E-09
 0.1319000E+00 -0.3503917E-09
 0.1330000E+00 -0.1742133E-09
 0.1341000E+00  0.6785712E-10
 0.1352000E+00  0.3299135E-09
 0.1363000E+00  0.5553693E-09
 0.1374000E+00  0.6885436E-09
 0.1385000E+00  0.6874057E-09
 0.1396000E+00  0.5346786E-09
 0.1407000E+00  0.2445961E-09
 0.1418000E+00 -0.1366619E-09
 0.1429000E+00 -0.5375886E-09
 0.1440000E+00 -0.8742319E-09
 0.1451000E+00 -0.1067081E-08
 0.1462000E+00 -0.1058625E-08
 0.1473000E+00 -0.8278286E-09
 0.1484000E+00 -0.3981490E-09
 0.1495000E+00  0.1631391E-09
 0.1506000E+00  0.7548607E-09
 0.1517000E+00  0.1259723E-08
 0.1528000E+00  0.1566850E-08
 0.1539000E+00  0.1594784E-08
 0.1550000E+00  0.1310297E-08
 0.1561000E+00  0.7389481E-09
 0.1572000E+00 -0.3523187E-10
 0.1583000E+00 -0.8815461E-09
 0.1594000E+00 -0.1644289E-08
 0.1605000E+00 -0.2170637E-08
 0.1616000E+00 -0.2339796E-08
 0.1627000E+00 -0.2087967E-08
 0.1638000E+00 -0.1424278E-08
 0.1649000E+00 -0.4342909E-09
 0.1660000E+00  0.7301484E-09
 0.1671000E+00  0.1873561E-08
 0.1682000E+00  0.2788582E-08
 0.1693000E+00  0.3291718E-08
 0.1704000E+00  0.3257169E-08
 0.1715000E+00  0.2642879E-08
 0.1726000E+00  0.1504071E-08
 0.1737000E+00 -0.8707566E-11
 0.1748000E+00 -0.1667619E-08
 0.1759000E+00 -0.3199776E-08
 0.1770000E+00 -0.4329474E-08
 0.1781000E+00 -0.4824382E-08
 0.1792000E+00 -0.4538543E-08
 0.1803000E+00 -0.3444939E-08
 0.1814000E+00 -0.1651300E-08
 0.1825000E+00  0.6051148E-09
 0.1836000E+00  0.2985115E-08
 0.1847000E+00  0.5095299E-08
 0.1858000E+00  0.6549977E-08
 0.1869000E+00  0.7038139E-08
 0.1880000E+00  0.6384318E-08
 0.1891000E+00  0.4591876E-08
 0.1902000E+00  0.1859115E-08
 0.1913000E+00 -0.1437491E-08
 0.1924000E+00 -0.4793137E-08
 0.1935000E+00 -0.7651603E-08
 0.1946000E+00 -0.9497514E-08
 0.1957000E+00 -0.9948290E-08
 0.1968000E+00 -0.8828922E-08
 0.1979000E+00 -0.6214742E-08
 0.1990000E+00 -0.2432532E-08
 0.2001000E+00  0.1982347E-08
 0.2012000E+00  0.6366917E-08
 0.2023000E+00  0.1003640E-07
 0.2034000E+00  0.1239667E-07
 0.2045000E+00  0.1304359E-07
 0.2056000E+00  0.1183175E-07
 0.2067000E+00  0.8900432E-08
 0.2078000E+00  0.4652737E-08
 0.2089000E+00 -0.3083972E-09
 0.2100000E+00 -0.5275860E-08
 0.2111000E+00 -0.9549470E-08
 0.2122000E+00 -0.1254413E-07
 0.2133000E+00 -0.1387777E-07
 0.2144000E+00 -0.1342542E-07
 0.2155000E+00 -0.1133148E-07
 0.2166000E+00 -0.7978553E-08
 0.2177000E+00 -0.3917759E-08
 0.2188000E+00  0.2286705E-09
 0.2199000E+00  0.3877569E-08
 0.2210000E+00  0.6590118E-08
 0.2221000E+00  0.8154529E-08
 0.2232000E+00  0.8630852E-08
 0.2243000E+00  0.8347711E-08
 0.2254000E+00  0.7847985E-08
 0.2265000E+00  0.7788987E-08
 0.2276000E+00  0.8810755E-08
 0.2287000E+00  0.1139223E-07
 0.2298000E+00  0.1571762E-07
 0.2309000E+00  0.2157320E-07
 0.2320000E+00  0.2828857E-07
 0.2331000E+00  0.3472699E-07
 0.2342000E+00  0.3931920E-07
 0.2353000E+00  0.4012651E-07
 0.2364000E+00  0.3491401E-07
 0.2375000E+00  0.2121369E-07
 0.2386000E+00 -0.3638930E-08
 0.2397000E+00 -0.4250606E-07
 0.2408000E+00 -0.9849277E-07
 0.2419000E+00 -0.1750392E-06
 0.2430000E+00 -0.2760632E-06
 0.2441000E+00 -0.4061590E-06
 0.2452000E+00 -0.5708622E-06
 0.2463000E+00 -0.7769912E-06
 0.2474000E+00 -0.1033075E-05
 0.2485000E+00 -0.1349866E-05
 0.2496000E+00 -0.1740937E-05
 0.2507000E+00 -0.2223337E-05
 0.2518000E+00 -0.2818309E-05
 0.2529000E+00 -0.3552029E-05
 0.2540000E+00 -0.4456385E-05
 0.2551000E+00 -0.5569800E-05
 0.2562000E+00 -0.6938126E-05
 0.2573000E+00 -0.8615686E-05
 0.2584000E+00 -0.1066649E-04
 0.2595000E+00 -0.1316574E-04
 0.2606000E+00 -0.1620164E-04
 0.2617000E+00 -0.1987750E-04
 0.2628000E+00 -0.2431429E-04
 0.2639000E+00 -0.2965332E-04
 0.2650000E+00 -0.3605924E-04
 0.2661000E+00 -0.4372321E-04
 0.2672000E+00 -0.5286615E-04
 0.2683000E+00 -0.6374224E-04
 0.2694000E+00 -0.7664259E-04
 0.2705000E+00 -0.9189916E-04
 0.2716000E+00 -0.1098890E-03
 0.2727000E+00 -0.1310387E-03
 0.2738000E+00 -0.1558291E-03
 0.2749000E+00 -0.1848001E-03
 0.2760000E+00 -0.2185553E-03
 0.2771000E+00 -0.2577667E-03
 0.2782000E+00 -0.3031784E-03
 0.2793000E+00 -0.3556110E-03
 0.2804000E+00 -0.4159637E-03
 0.2815000E+00 -0.4852170E-03
 0.2826000E+00 -0.5644335E-03
 0.2837000E+00 -0.6547581E-03
 0.2848000E+00 -0.7574172E-03
 0.2859000E+00 -0.8737160E-03
 0.2870000E+00 -0.1005034E-02
 0.2881000E+00 -0.1152821E-02
 0.2892000E+00 -0.1318585E-02
 0.2903000E+00 -0.1503885E-02
 0.2914000E+00 -0.1710313E-02
 0.2925000E+00 -0.1939479E-02
 0.2936000E+00 -0.2192992E-02
 0.2947000E+00 -0.2472433E-02
 0.2958000E+00 -0.2779332E-02
 0.2969000E+00 -0.3115137E-02
 0.2980000E+00 -0.3481178E-02
 0.2991000E+00 -0.3878639E-02
 0.3002000E+00 -0.4308512E-02
 0.3013000E+00 -0.4771559E-02
 0.3024000E+00 -0.5268274E-02
 0.3035000E+00 -0.5798831E-02
 0.3046000E+00 -0.6363045E-02
 0.3057000E+00 -0.6960324E-02
 0.3068000E+00 -0.7589626E-02
 0.3079000E+00 -0.8249417E-02
 0.3090000E+00 -0.8937630E-02
 0.3101000E+00 -0.9651630E-02
 0.3112000E+00 -0.1038819E-01
 0.3123000E+00 -0.1114345E-01
 0.3134000E+00 -0.1191293E-01
 0.3145000E+00 -0.1269150E-01
 0.3156000E+00 -0.1347338E-01
 0.3167000E+00 -0.1425216E-01
 0.3178000E+00 -0.1502085E-01
 0.3189000E+00 -0.1577187E-01
 0.3200000E+00 -0.1649711E-01
 0.3211000E+00 -0.1718801E-01
 0.3222000E+00 -0.1783564E-01
 0.3233000E+00 -0.1843075E-01
 0.3244000E+00 -0.1896391E-01
 0.3255000E+00 -0.1942561E-01
 0.3266000E+00 -0.1980638E-01
 0.3277000E+00 -0.2009691E-01
 0.3288000E+00 -0.2028822E-01
 0.3299000E+00 -0.2037176E-01
 0.3310000E+00 -0.2033960E-01
 0.3321000E+00 -0.2018454E-01
 0.3332000E+00 -0.1990030E-01
 0.3343000E+00 -0.1948162E-01
 0.3354000E+00 -0.1892441E-01
 0.3365000E+00 -0.1822586E-01
 0.3376000E+00 -0.1738455E-01
 0.3387000E+00 -0.1640058E-01
 0.3398000E+00 -0.1527559E-01
 0.3409000E+00 -0.1401284E-01
 0.3420000E+00 -0.1261725E-01
 0.3431000E+00 -0.1109539E-01
 0.3442000E+00 -0.9455448E-02
 0.3453000E+00 -0.7707216E-02
 0.3464000E+00 -0.5861994E-02
 0.3475000E+00 -0.3932497E-02
 0.3486000E+00 -0.1932730E-02
 0.3497000E+00  0.1221603E-03
 0.3508000E+00  0.2216055E-02
 0.3519000E+00  0.4332052E-02
 0.3530000E+00  0.6452674E-02
 0.3541000E+00  0.8560085E-02
 0.3552000E+00  0.1063632E-01
 0.3563000E+00  0.1266353E-01
 0.3574000E+00  0.1462419E-01
 0.3585000E+00  0.1650136E-01
 0.3596000E+00  0.1827892E-01
 0.3607000E+00  0.1994174E-01
 0.3618000E+00  0.2147594E-01
 0.3629000E+00  0.2286903E-01
 0.3640000E+00  0.2411010E-01
 0.3651000E+00  0.2518995E-01
 0.3662000E+00  0.2610117E-01
 0.3673000E+00  0.2683828E-01
 0.3684000E+00  0.2739773E-01
 0.3695000E+00  0.2777796E-01
 0.3706000E+00  0.2797936E-01
 0.3717000E+00  0.2800426E-01
 0.3728000E+00  0.2785682E-01
 0.3739000E+00  0.2754299E-01
 0.3750000E+00  0.2707036E-01
 0.3761000E+00  0.2644802E-01
 0.3772000E+00  0.2568638E-01
 0.3783000E+00  0.2479702E-01
 0.3794000E+00  0.2379250E-01
 0.3805000E+00  0.2268611E-01
 0.3816000E+00  0.2149172E-01
 0.3827000E+00  0.2022357E-01
 0.3838000E+00  0.1889603E-01
 0.3849000E+00  0.1752344E-01
 0.3860000E+00  0.1611988E-01
 0.3871000E+00  0.1469904E-01
 0.3882000E+00  0.1327400E-01
 0.3893000E+00  0.1185717E-01
 0.3904000E+00  0.1046009E-01
 0.3915000E+00  0.9093348E-02
 0.3926000E+00  0.7766520E-02
 0.3937000E+00  0.6488066E-02
 0.3948000E+00  0.5265308E-02
 0.3959000E+00  0.4104405E-02
 0.3970000E+00  0.3010357E-02
 0.3981000E+00  0.1987028E-02
 0.3992000E+00  0.1037173E-02
 0.4003000E+00  0.1624907E-03
 0.4014000E+00 -0.6363145E-03
 0.4025000E+00 -0.1359462E-02
 0.4036000E+00 -0.2008007E-02
 0.4047000E+00 -0.2583747E-02
 0.4058000E+00 -0.3089121E-02
 0.4069000E+00 -0.3527110E-02
 0.4080000E+00 -0.3901144E-02
 0.4091000E+00 -0.4215000E-02
 0.4102000E+00 -0.4472719E-02
 0.4113000E+00 -0.4678515E-02
 0.4124000E+00 -0.4836687E-02
 0.4135000E+00 -0.4951545E-02
 0.4146000E+00 -0.5027337E-02
 0.4157000E+00 -0.5068191E-02
 0.4168000E+00 -0.5078069E-02
 0.4179000E+00 -0.5060724E-02
 0.4190000E+00 -0.5019673E-02
 0.4201000E+00 -0.4958170E-02
 0.4212000E+00 -0.4879194E-02
 0.4223000E+00 -0.4785435E-02
 0.4234000E+00 -0.4679300E-02
 0.4245000E+00 -0.4562920E-02
 0.4256000E+00 -0.4438166E-02
 0.4267000E+00 -0.4306665E-02
 0.4278000E+00 -0.4169825E-02
 0.4289000E+00 -0.4028852E-02
 0.4300000E+00 -0.3884770E-02
 0.4311000E+00 -0.3738447E-02
 0.4322000E+00 -0.3590621E-02
 0.4333000E+00 -0.3441929E-02
 0.4344000E+00 -0.3292936E-02
 0.4355000E+00 -0.3144159E-02
 0.4366000E+00 -0.2996084E-02
 0.4377000E+00 -0.2849185E-02
 0.4388000E+00 -0.2703929E-02
 0.4399000E+00 -0.2560794E-02
 0.4410000E+00 -0.2420267E-02
 0.4421000E+00 -0.2282858E-02
 0.4432000E+00 -0.2149094E-02
 0.4443000E+00 -0.2019519E-02
 0.4454000E+00 -0.1894684E-02
 0.4465000E+00 -0.1775134E-02
 0.4476000E+00 -0.1661402E-02
 0.4487000E+00 -0.1553994E-02
 0.4498000E+00 -0.1453383E-02
 0.4509000E+00 -0.1359990E-02
 0.4520000E+00 -0.1274177E-02
 0.4531000E+00 -0.1196225E-02
 0.4542000E+00 -0.1126324E-02
 0.4553000E+00 -0.1064558E-02
 0.4564000E+00 -0.1010899E-02
 0.4575000E+00 -0.9652068E-03
 0.4586000E+00 -0.9272245E-03
 0.4597000E+00 -0.8965822E-03
 0.4608000E+00 -0.8727994E-03
 0.4619000E+00 -0.8552892E-03
 0.4630000E+00 -0.8433681E-03
 0.4641000E+00 -0.8362694E-03
 0.4652000E+00 -0.8331615E-03
 0.4663000E+00 -0.8331672E-03
 0.4674000E+00 -0.8353830E-03
 0.4685000E+00 -0.8388975E-03
 0.4696000E+00 -0.8428090E-03
 0.4707000E+00 -0.8462443E-03
 0.4718000E+00 -0.8483793E-03
 0.4729000E+00 -0.8484619E-03
 0.4740000E+00 -0.8458318E-03
 0.4751000E+00 -0.8399385E-03
 0.4762000E+00 -0.8303520E-03
 0.4773000E+00 -0.8167693E-03
 0.4784000E+00 -0.7990167E-03
 0.4795000E+00 -0.7770517E-03
 0.4806000E+00 -0.7509629E-03
 0.4817000E+00 -0.7209687E-03
 0.4828000E+00 -0.6874118E-03
 0.4839000E+00 -0.6507477E-03
 0.4850000E+00 -0.6115283E-03
 0.4861000E+00 -0.5703817E-03
 0.4872000E+00 -0.5279931E-03
 0.4883000E+00 -0.4850868E-03
 0.4894000E+00 -0.4424102E-03
 0.4905000E+00 -0.4007188E-03
 0.4916000E+00 -0.3607587E-03
 0.4927000E+00 -0.3232465E-03
 0.4938000E+00 -0.2888488E-03
 0.4949000E+00 -0.2581620E-03
 0.4960000E+00 -0.2316975E-03
 0.4971000E+00 -0.2098710E-03
 0.4982000E+00 -0.1929969E-03
 0.4993000E+00 -0.1812841E-03
 0.5004000E+00 -0.1748323E-03
 0.5015000E+00 -0.1736279E-03
 0.5026000E+00 -0.1775419E-03
 0.5037000E+00 -0.1863311E-03
 0.5048000E+00 -0.1996434E-03
 0.5059000E+00 -0.2170261E-03
 0.5070000E+00 -0.2379367E-03
 0.5081000E+00 -0.2617521E-03
 0.5092000E+00 -0.2877776E-03
 0.5103000E+00 -0.3152555E-03
 0.5114000E+00 -0.3433764E-03
 0.5125000E+00 -0.3712936E-03
 0.5136000E+00 -0.3981405E-03
 0.5147000E+00 -0.4230487E-03
 0.5158000E+00 -0.4451653E-03
 0.5169000E+00 -0.4636672E-03
 0.5180000E+00 -0.4777725E-03
 0.5191000E+00 -0.4867518E-03
 0.5202000E+00 -0.4899403E-03
 0.5213000E+00 -0.4867512E-03
 0.5224000E+00 -0.4766892E-03
 0.5235000E+00 -0.4593622E-03
 0.5246000E+00 -0.4344884E-03
 0.5257000E+00 -0.4018994E-03
 0.5268000E+00 -0.3615394E-03
 0.5279000E+00 -0.3134616E-03
 0.5290000E+00 -0.2578231E-03
 0.5301000E+00 -0.1948761E-03
 0.5312000E+00 -0.1249566E-03
 0.5323000E+00 -0.4846683E-04
 0.5334000E+00  0.3414671E-04
 0.5345000E+00  0.1224195E-03
 0.5356000E+00  0.2158978E-03
 0.5367000E+00  0.3141682E-03
 0.5378000E+00  0.4168900E-03
 0.5389000E+00  0.5238281E-03
 0.5400000E+00  0.6348897E-03
 0.5411000E+00  0.7501614E-03
 0.5422000E+00  0.8699464E-03
 0.5433000E+00  0.9947966E-03
 0.5444000E+00  0.1125539E-02
 0.5455000E+00  0.1263295E-02
 0.5466000E+00  0.1409492E-02
 0.5477000E+00  0.1565871E-02
 0.5488000E+00  0.1734482E-02
 0.5499000E+00  0.1917682E-02
 0.5510000E+00  0.2118112E-02
 0.5521000E+00  0.2338666E-02
 0.5532000E+00  0.2582450E-02
 0.5543000E+00  0.2852722E-02
 0.5554000E+00  0.3152827E-02
 0.5565000E+00  0.3486128E-02
 0.5576000E+00  0.3855929E-02
 0.5587000E+00  0.4265390E-02
 0.5598000E+00  0.4717438E-02
 0.5609000E+00  0.5214669E-02
 0.5620000E+00  0.5759250E-02
 0.5631000E+00  0.6352817E-02
 0.5642000E+00  0.6996382E-02
 0.5653000E+00  0.7690247E-02
 0.5664000E+00  0.8433926E-02
 0.5675000E+00  0.9226080E-02
 0.5686000E+00  0.1006445E-01
 0.5697000E+00  0.1094584E-01
 0.5708000E+00  0.1186603E-01
 0.5719000E+00  0.1281981E-01
 0.5730000E+00  0.1380098E-01
 0.5741000E+00  0.1480233E-01
 0.5752000E+00  0.1581576E-01
 0.5763000E+00  0.1683230E-01
 0.5774000E+00  0.1784219E-01
 0.5785000E+00  0.1883500E-01
 0.5796000E+00  0.1979971E-01
 0.5807000E+00  0.2072486E-01
 0.5818000E+00  0.2159870E-01
 0.5829000E+00  0.2240932E-01
 0.5840000E+00  0.2314485E-01
 0.5851000E+00  0.2379360E-01
 0.5862000E+00  0.2434425E-01
 0.5873000E+00  0.2478602E-01
 0.5884000E+00  0.2510880E-01
 0.5895000E+00  0.2530338E-01
 0.5906000E+00  0.2536153E-01
 0.5917000E+00  0.2527622E-01
 0.5928000E+00  0.2504168E-01
 0.5939000E+00  0.2465353E-01
 0.5950000E+00  0.2410891E-01
 0.5961000E+00  0.2340650E-01
 0.5972000E+00  0.2254661E-01
 0.5983000E+00  0.2153119E-01
 0.5994000E+00  0.2036386E-01
 0.6005000E+00  0.1904984E-01
 0.6016000E+00  0.1759599E-01
 0.6027000E+00  0.1601065E-01
 0.6038000E+00  0.1430365E-01
 0.6049000E+00  0.1248612E-01
 0.6060000E+00  0.1057042E-01
 0.6071000E+00  0.8569998E-02
 0.6082000E+00  0.6499189E-02
 0.6093000E+00  0.4373098E-02
 0.6104000E+00  0.2207390E-02
 0.6115000E+00  0.1811854E-04
 0.6126000E+00 -0.2178466E-02
 0.6137000E+00 -0.4366106E-02
 0.6148000E+00 -0.6528715E-02
 0.6159000E+00 -0.8650567E-02
 0.6170000E+00 -0.1071647E-01
 0.6181000E+00 -0.1271192E-01
 0.6192000E+00 -0.1462326E-01
 0.6203000E+00 -0.1643783E-01
 0.6214000E+00 -0.1814405E-01
 0.6225000E+00 -0.1973156E-01
 0.6236000E+00 -0.2119129E-01
 0.6247000E+00 -0.2251551E-01
 0.6258000E+00 -0.2369791E-01
 0.6269000E+00 -0.2473361E-01
 0.6280000E+00 -0.2561915E-01
 0.6291000E+00 -0.2635251E-01
 0.6302000E+00 -0.2693305E-01
 0.6313000E+00 -0.2736147E-01
 0.6324000E+00 -0.2763977E-01
 0.6335000E+00 -0.2777115E-01
 0.6346000E+00 -0.2775995E-01
 0.6357000E+00 -0.2761156E-01
 0.6368000E+00 -0.2733229E-01
 0.6379000E+00 -0.2692930E-01
 0.6390000E+00 -0.2641046E-01
 0.6401000E+00 -0.2578424E-01
 0.6412000E+00 -0.2505960E-01
 0.6423000E+00 -0.2424587E-01
 0.6434000E+00 -0.2335268E-01
 0.6445000E+00 -0.2238984E-01
 0.6456000E+00 -0.2136723E-01
 0.6467000E+00 -0.2029469E-01
 0.6478000E+00 -0.1918198E-01
 0.6489000E+00 -0.1803864E-01
 0.6500000E+00 -0.1687395E-01
 0.6511000E+00 -0.1569687E-01
 0.6522000E+00 -0.1451598E-01
 0.6533000E+00 -0.1333942E-01
 0.6544000E+00 -0.1217486E-01
 0.6555000E+00 -0.1102944E-01
 0.6566000E+00 -0.9909719E-02
 0.6577000E+00 -0.8821692E-02
 0.6588000E+00 -0.7770732E-02
 0.6599000E+00 -0.6761597E-02
 0.6610000E+00 -0.5798426E-02
 0.6621000E+00 -0.4884723E-02
 0.6632000E+00 -0.4023357E-02
 0.6643000E+00 -0.3216558E-02
 0.6654000E+00 -0.2465918E-02
 0.6665000E+00 -0.1772418E-02
 0.6676000E+00 -0.1136443E-02
 0.6687000E+00 -0.5578151E-03
 0.6698000E+00 -0.3582315E-04
 0.6709000E+00  0.4307510E-03
 0.6720000E+00  0.8436007E-03
 0.6731000E+00  0.1204859E-02
 0.6742000E+00  0.1517052E-02
 0.6753000E+00  0.1783047E-02
 0.6764000E+00  0.2005993E-02
 0.6775000E+00  0.2189261E-02
 0.6786000E+00  0.2336386E-02
 0.6797000E+00  0.2451015E-02
 0.6808000E+00  0.2536850E-02
 0.6819000E+00  0.2597593E-02
 0.6830000E+00  0.2636889E-02
 0.6841000E+00  0.2658266E-02
 0.6852000E+00  0.2665079E-02
 0.6863000E+00  0.2660462E-02
 0.6874000E+00  0.2647290E-02
 0.6885000E+00  0.2628143E-02
 0.6896000E+00  0.2605285E-02
 0.6907000E+00  0.2580636E-02
 0.6918000E+00  0.2555752E-02
 0.6929000E+00  0.2531819E-02
 0.6940000E+00  0.2509645E-02
 0.6951000E+00  0.2489668E-02
 0.6962000E+00  0.2471979E-02
 0.6973000E+00  0.2456339E-02
 0.6984000E+00  0.2442216E-02
 0.6995000E+00  0.2428809E-02
 0.7006000E+00  0.2415087E-02
 0.7017000E+00  0.2399824E-02
 0.7028000E+00  0.2381647E-02
 0.7039000E+00  0.2359081E-02
 0.7050000E+00  0.2330600E-02
 0.7061000E+00  0.2294673E-02
 0.7072000E+00  0.2249817E-02
 0.7083000E+00  0.2194633E-02
 0.7094000E+00  0.2127851E-02
 0.7105000E+00  0.2048367E-02
 0.7116000E+00  0.1955273E-02
 0.7127000E+00  0.1847886E-02
 0.7138000E+00  0.1725769E-02
 0.7149000E+00  0.1588748E-02
 0.7160000E+00  0.1436921E-02
 0.7171000E+00  0.1270667E-02
 0.7182000E+00  0.1090645E-02
 0.7193000E+00  0.8977894E-03
 0.7204000E+00  0.6933024E-03
 0.7215000E+00  0.4786323E-03
 0.7226000E+00  0.2554494E-03
 0.7237000E+00  0.2561769E-04
 0.7248000E+00 -0.2088349E-03
 0.7259000E+00 -0.4457462E-03
 0.7270000E+00 -0.6828500E-03
 0.7281000E+00 -0.9178095E-03
 0.7292000E+00 -0.1148255E-02
 0.7303000E+00 -0.1371826E-02
 0.7314000E+00 -0.1586213E-02
 0.7325000E+00 -0.1789200E-02
 0.7336000E+00 -0.1978700E-02
 0.7347000E+00 -0.2152777E-02
 0.7358000E+00 -0.2309679E-02
 0.7369000E+00 -0.2447856E-02
 0.7380000E+00 -0.2565991E-02
 0.7391000E+00 -0.2663024E-02
 0.7402000E+00 -0.2738176E-02
 0.7413000E+00 -0.2790964E-02
 0.7424000E+00 -0.2821207E-02
 0.7435000E+00 -0.2829020E-02
 0.7446000E+00 -0.2814809E-02
 0.7457000E+00 -0.2779252E-02
 0.7468000E+00 -0.2723294E-02
 0.7479000E+00 -0.2648135E-02
 0.7490000E+00 -0.2555212E-02
 0.7501000E+00 -0.2446177E-02
 0.7512000E+00 -0.2322865E-02
 0.7523000E+00 -0.2187251E-02
 0.7534000E+00 -0.2041413E-02
 0.7545000E+00 -0.1887486E-02
 0.7556000E+00 -0.1727635E-02
 0.7567000E+00 -0.1564016E-02
 0.7578000E+00 -0.1398742E-02
 0.7589000E+00 -0.1233849E-02
 0.7600000E+00 -0.1071253E-02
 0.7611000E+00 -0.9127084E-03
 0.7622000E+00 -0.7597809E-03
 0.7633000E+00 -0.6138199E-03
 0.7644000E+00 -0.4759455E-03
 0.7655000E+00 -0.3470411E-03
 0.7666000E+00 -0.2277478E-03
 0.7677000E+00 -0.1184610E-03
 0.7688000E+00 -0.1932857E-04
 0.7699000E+00  0.6974408E-04
 0.7710000E+00  0.1490808E-03
 0.7721000E+00  0.2192115E-03
 0.7732000E+00  0.2808408E-03
 0.7743000E+00  0.3348132E-03
 0.7754000E+00  0.3820780E-03
 0.7765000E+00  0.4236551E-03
 0.7776000E+00  0.4606020E-03
 0.7787000E+00  0.4939789E-03
 0.7798000E+00  0.5248117E-03
 0.7809000E+00  0.5540535E-03
 0.7820000E+00  0.5825481E-03
 0.7831000E+00  0.6109994E-03
 0.7842000E+00  0.6399479E-03
 0.7853000E+00  0.6697577E-03
 0.7864000E+00  0.7006084E-03
 0.7875000E+00  0.7324932E-03
 0.7886000E+00  0.7652206E-03
 0.7897000E+00  0.7984194E-03
 0.7908000E+00  0.8315499E-03
 0.7919000E+00  0.8639214E-03
 0.7930000E+00  0.8947186E-03
 0.7941000E+00  0.9230336E-03
 0.7952000E+00  0.9479036E-03
 0.7963000E+00  0.9683497E-03
 0.7974000E+00  0.9834165E-03
 0.7985000E+00  0.9922092E-03
 0.7996000E+00  0.9939292E-03
 0.8007000E+00  0.9879071E-03
 0.8018000E+00  0.9736315E-03
 0.8029000E+00  0.9507760E-03
 0.8040000E+00  0.9192207E-03
 0.8051000E+00  0.8790687E-03
 0.8062000E+00  0.8306564E-03
 0.8073000E+00  0.7745561E-03
 0.8084000E+00  0.7115700E-03
 0.8095000E+00  0.6427158E-03
 0.8106000E+00  0.5692045E-03
 0.8117000E+00  0.4924121E-03
 0.8128000E+00  0.4138468E-03
 0.8139000E+00  0.3351132E-03
 0.8150000E+00  0.2578742E-03
 0.8161000E+00  0.1838103E-03
 0.8172000E+00  0.1145758E-03
 0.8183000E+00  0.5175331E-04
 0.8194000E+00 -0.3191534E-05
 0.8205000E+00 -0.4895260E-04
 0.8216000E+00 -0.8441972E-04
 0.8227000E+00 -0.1087081E-03
 0.8238000E+00 -0.1211804E-03
 0.8249000E+00 -0.1214630E-03
 0.8260000E+00 -0.1094571E-03
 0.8271000E+00 -0.8534409E-04
 0.8282000E+00 -0.4958529E-04
 0.8293000E+00 -0.2912643E-05
 0.8304000E+00  0.5368941E-04
 0.8315000E+00  0.1190107E-03
 0.8326000E+00  0.1916483E-03
 0.8337000E+00  0.2700437E-03
 0.8348000E+00  0.3525220E-03
 0.8359000E+00  0.4373314E-03
 0.8370000E+00  0.5226863E-03
 0.8381000E+00  0.6068105E-03
 0.8392000E+00  0.6879820E-03
 0.8403000E+00  0.7645765E-03
 0.8414000E+00  0.8351076E-03
 0.8425000E+00  0.8982597E-03
 0.8436000E+00  0.9529157E-03
 0.8447000E+00  0.9981781E-03
 0.8458000E+00  0.1033385E-02
 0.8469000E+00  0.1058122E-02
 0.8480000E+00  0.1072226E-02
 0.8491000E+00  0.1075783E-02
 0.8502000E+00  0.1069118E-02
 0.8513000E+00  0.1052776E-02
 0.8524000E+00  0.1027494E-02
 0.8535000E+00  0.9941799E-03
 0.8546000E+00  0.9538787E-03
 0.8557000E+00  0.9077468E-03
 0.8568000E+00  0.8570180E-03
 0.8579000E+00  0.8029675E-03
 0.8590000E+00  0.7468728E-03
 0.8601000E+00  0.6899743E-03
 0.8612000E+00  0.6334393E-03
 0.8623000E+00  0.5783337E-03
 0.8634000E+00  0.5256000E-03
 0.8645000E+00  0.4760420E-03
 0.8656000E+00  0.4303104E-03
 0.8667000E+00  0.3888904E-03
 0.8678000E+00  0.3520905E-03
 0.8689000E+00  0.3200369E-03
 0.8700000E+00  0.2926763E-03
 0.8711000E+00  0.2697883E-03
 0.8722000E+00  0.2510061E-03
 0.8733000E+00  0.2358394E-03
 0.8744000E+00  0.2236976E-03
 0.8755000E+00  0.2139094E-03
 0.8766000E+00  0.2057415E-03
 0.8777000E+00  0.1984202E-03
 0.8788000E+00  0.1911577E-03
 0.8799000E+00  0.1831832E-03
 0.8810000E+00  0.1737751E-03
 0.8821000E+00  0.1622886E-03
 0.8832000E+00  0.1481766E-03
 0.8843000E+00  0.1310018E-03
 0.8854000E+00  0.1104436E-03
 0.8865000E+00  0.8630497E-04
 0.8876000E+00  0.5851956E-04
 0.8887000E+00  0.2715915E-04
 0.8898000E+00 -0.7562494E-05
 0.8909000E+00 -0.4529327E-04
 0.8920000E+00 -0.8555514E-04
 0.8931000E+00 -0.1277632E-03
 0.8942000E+00 -0.1712466E-03
 0.8953000E+00 -0.2152678E-03
 0.8964000E+00 -0.2590386E-03
 0.8975000E+00 -0.3017342E-03
 0.8986000E+00 -0.3425112E-03
 0.8997000E+00 -0.3805295E-03
 0.9008000E+00 -0.4149794E-03
 0.9019000E+00 -0.4451091E-03
 0.9030000E+00 -0.4702488E-03
 0.9041000E+00 -0.4898262E-03
 0.9052000E+00 -0.5033765E-03
 0.9063000E+00 -0.5105476E-03
 0.9074000E+00 -0.5111058E-03
 0.9085000E+00 -0.5049444E-03
 0.9096000E+00 -0.4920926E-03
 0.9107000E+00 -0.4727228E-03
 0.9118000E+00 -0.4471502E-03
 0.9129000E+00 -0.4158249E-03
 0.9140000E+00 -0.3793168E-03
 0.9151000E+00 -0.3382978E-03
 0.9162000E+00 -0.2935250E-03
 0.9173000E+00 -0.2458263E-03
 0.9184000E+00 -0.1960878E-03
 0.9195000E+00 -0.1452407E-03
 0.9206000E+00 -0.9424382E-04
 0.9217000E+00 -0.4406266E-04
 0.9228000E+00  0.4354459E-05
 0.9239000E+00  0.5010014E-04
 0.9250000E+00  0.9232861E-04
 0.9261000E+00  0.1302726E-03
 0.9272000E+00  0.1632567E-03
 0.9283000E+00  0.1907087E-03
 0.9294000E+00  0.2121698E-03
 0.9305000E+00  0.2273044E-03
 0.9316000E+00  0.2359087E-03
 0.9327000E+00  0.2379163E-03
 0.9338000E+00  0.2334004E-03
 0.9349000E+00  0.2225719E-03
 0.9360000E+00  0.2057729E-03
 0.9371000E+00  0.1834668E-03
 0.9382000E+00  0.1562249E-03
 0.9393000E+00  0.1247109E-03
 0.9404000E+00  0.8966455E-04
 0.9415000E+00  0.5188424E-04
 0.9426000E+00  0.1221041E-04
 0.9437000E+00 -0.2849258E-04
 0.9448000E+00 -0.6935612E-04
 0.9459000E+00 -0.1095297E-03
 0.9470000E+00 -0.1482051E-03
 0.9481000E+00 -0.1846412E-03
 0.9492000E+00 -0.2181855E-03
 0.9503000E+00 -0.2482918E-03
 0.9514000E+00 -0.2745314E-03
 0.9525000E+00 -0.2966022E-03
 0.9536000E+00 -0.3143349E-03
 0.9547000E+00 -0.3277000E-03
 0.9558000E+00 -0.3368140E-03
 0.9569000E+00 -0.3419425E-03
 0.9580000E+00 -0.3434973E-03
 0.9591000E+00 -0.3420250E-03
 0.9602000E+00 -0.3381895E-03
 0.9613000E+00 -0.3327494E-03
 0.9624000E+00 -0.3265366E-03
 0.9635000E+00 -0.3204362E-03
 0.9646000E+00 -0.3153673E-03
 0.9657000E+00 -0.3122631E-03
 0.9668000E+00 -0.3120448E-03
 0.9679000E+00 -0.3155920E-03
 0.9690000E+00 -0.3237098E-03
 0.9701000E+00 -0.3370979E-03
 0.9712000E+00 -0.3563274E-03
 0.9723000E+00 -0.3818235E-03
 0.9734000E+00 -0.4138544E-03
 0.9745000E+00 -0.4525219E-03
 0.9756000E+00 -0.4977511E-03
 0.9767000E+00 -0.5492797E-03
 0.9778000E+00 -0.6066514E-03
 0.9789000E+00 -0.6692154E-03