-0.1200000E+00  0.0000000E+00
-0.1189000E+00  0.0000000E+00
-0.1178000E+00  0.0000000E+00
-0.1167000E+00  0.0000000E+00
-0.1156000E+00  0.0000000E+00
-0.1145000E+00  0.0000000E+00
-0.1134000E+00  0.0000000E+00
-0.1123000E+00  0.0000000E+00
-0.1112000E+00  0.0000000E+00
-0.1101000E+00  0.0000000E+00
-0.1090000E+00  0.0000000E+00
-0.1079000E+00  0.0000000E+00
-0.1068000E+00  0.0000000E+00
-0.1057000E+00  0.0000000E+00
-0.1046000E+00  0.0000000E+00
-0.1035000E+00  0.0000000E+00
-0.1024000E+00  0.0000000E+00
-0.1013000E+00  0.0000000E+00
-0.1002000E+00  0.0000000E+00
-0.9910000E-01  0.0000000E+00
-0.9800000E-01  0.0000000E+00
-0.9690000E-01  0.0000000E+00
-0.9580000E-01  0.0000000E+00
-0.9470000E-01  0.0000000E+00
-0.9360000E-01  0.0000000E+00
-0.9250000E-01  0.0000000E+00
-0.9140000E-01  0.0000000E+00
-0.9030000E-01  0.0000000E+00
-0.8920000E-01  0.0000000E+00
-0.8810000E-01  0.0000000E+00
-0.8700000E-01  0.0000000E+00
-0.8590000E-01  0.0000000E+00
-0.8480000E-01  0.0000000E+00
-0.8370000E-01  0.0000000E+00
-0.8260000E-01  0.0000000E+00
-0.8150000E-01  0.0000000E+00
-0.8040000E-01  0.0000000E+00
-0.7930000E-01  0.0000000E+00
-0.7820000E-01  0.0000000E+00
-0.7710000E-01  0.0000000E+00
-0.7600000E-01  0.0000000E+00
-0.7490000E-01  0.0000000E+00
-0.7380000E-01  0.0000000E+00
-0.7270000E-01  0.0000000E+00
-0.7160000E-01  0.0000000E+00
-0.7050000E-01  0.0000000E+00
-0.6940000E-01  0.0000000E+00
-0.6830000E-01  0.0000000E+00
-0.6720000E-01  0.0000000E+00
-0.6610000E-01  0.0000000E+00
-0.6500000E-01  0.0000000E+00
-0.6390000E-01  0.0000000E+00
-0.6280000E-01  0.0000000E+00
-0.6170000E-01  0.0000000E+00
-0.6060000E-01  0.0000000E+00
-0.5950000E-01  0.0000000E+00
-0.5840000E-01  0.0000000E+00
-0.5730000E-01  0.0000000E+00
-0.5620000E-01  0.0000000E+00
-0.5510000E-01  0.0000000E+00
-0.5400000E-01  0.0000000E+00
-0.5290000E-01  0.0000000E+00
-0.5180000E-01  0.0000000E+00
-0.5070000E-01  0.0000000E+00
-0.4960000E-01  0.0000000E+00
-0.4850000E-01  0.0000000E+00
-0.4740000E-01  0.0000000E+00
-0.4630000E-01  0.0000000E+00
-0.4520000E-01  0.0000000E+00
-0.4410000E-01  0.0000000E+00
-0.4300000E-01  0.0000000E+00
-0.4190000E-01  0.0000000E+00
-0.4080000E-01  0.0000000E+00
-0.3970000E-01  0.0000000E+00
-0.3860000E-01  0.0000000E+00
-0.3750000E-01  0.0000000E+00
-0.3640000E-01  0.0000000E+00
-0.3530000E-01  0.0000000E+00
-0.3420000E-01  0.0000000E+00
-0.3310000E-01  0.0000000E+00
-0.3200000E-01  0.0000000E+00
-0.3090000E-01  0.0000000E+00
-0.2980000E-01  0.0000000E+00
-0.2870000E-01  0.0000000E+00
-0.2760000E-01  0.0000000E+00
-0.2650000E-01  0.0000000E+00
-0.2540000E-01  0.0000000E+00
-0.2430000E-01  0.0000000E+00
-0.2320000E-01  0.0000000E+00
-0.2210000E-01  0.0000000E+00
-0.2100000E-01  0.0000000E+00
-0.1990000E-01  0.0000000E+00
-0.1880000E-01  0.0000000E+00
-0.1770000E-01  0.0000000E+00
-0.1660000E-01  0.0000000E+00
-0.1550000E-01  0.0000000E+00
-0.1440000E-01  0.0000000E+00
-0.1330000E-01  0.0000000E+00
-0.1220000E-01  0.0000000E+00
-0.1110000E-01  0.0000000E+00
-0.1000000E-01  0.0000000E+00
-0.8900000E-02  0.0000000E+00
-0.7800000E-02  0.0000000E+00
-0.6700000E-02  0.0000000E+00
-0.5600000E-02  0.0000000E+00
-0.4500000E-02  0.0000000E+00
-0.3400000E-02  0.0000000E+00
-0.2300000E-02  0.0000000E+00
-0.1200000E-02  0.0000000E+00
-0.1000000E-03  0.0000000E+00
 0.1000000E-02  0.0000000E+00
 0.2100000E-02  0.0000000E+00
 0.3200000E-02  0.0000000E+00
 0.4300000E-02  0.0000000E+00
 0.5400000E-02  0.0000000E+00
 0.6500000E-02  0.0000000E+00
 0.7600000E-02  0.0000000E+00
 0.8700000E-02  0.0000000E+00
 0.9800000E-02  0.0000000E+00
 0.1090000E-01  0.0000000E+00
 0.1200000E-01  0.0000000E+00
 0.1310000E-01  0.0000000E+00
 0.1420000E-01  0.0000000E+00
 0.1530000E-01  0.0000000E+00
 0.1640000E-01  0.0000000E+00
 0.1750000E-01  0.0000000E+00
 0.1860000E-01  0.0000000E+00
 0.1970000E-01  0.0000000E+00
 0.2080000E-01  0.0000000E+00
 0.2190000E-01  0.0000000E+00
 0.2300000E-01  0.0000000E+00
 0.2410000E-01  0.0000000E+00
 0.2520000E-01  0.0000000E+00
 0.2630000E-01  0.0000000E+00
 0.2740000E-01  0.0000000E+00
 0.2850000E-01  0.0000000E+00
 0.2960000E-01  0.0000000E+00
 0.3070000E-01  0.0000000E+00
 0.3180000E-01  0.0000000E+00
 0.3290000E-01  0.0000000E+00
 0.3400000E-01  0.0000000E+00
 0.3510000E-01  0.0000000E+00
 0.3620000E-01  0.0000000E+00
 0.3730000E-01  0.0000000E+00
 0.3840000E-01  0.0000000E+00
 0.3950000E-01  0.0000000E+00
 0.4060000E-01  0.0000000E+00
 0.4170000E-01  0.0000000E+00
 0.4280000E-01  0.0000000E+00
 0.4390000E-01  0.0000000E+00
 0.4500000E-01  0.0000000E+00
 0.4610000E-01  0.0000000E+00
 0.4720000E-01  0.0000000E+00
 0.4830000E-01  0.0000000E+00
 0.4940000E-01  0.0000000E+00
 0.5050000E-01  0.0000000E+00
 0.5160000E-01  0.0000000E+00
 0.5270000E-01  0.0000000E+00
 0.5380000E-01  0.0000000E+00
 0.5490000E-01  0.0000000E+00
 0.5600000E-01  0.0000000E+00
 0.5710000E-01  0.0000000E+00
 0.5820000E-01  0.0000000E+00
 0.5930000E-01  0.0000000E+00
 0.6040000E-01  0.0000000E+00
 0.6150000E-01  0.0000000E+00
 0.6260000E-01  0.0000000E+00
 0.6370000E-01  0.0000000E+00
 0.6480000E-01  0.0000000E+00
 0.6590000E-01  0.0000000E+00
 0.6700000E-01  0.0000000E+00
 0.6810000E-01  0.0000000E+00
 0.6920000E-01  0.0000000E+00
 0.7030000E-01  0.0000000E+00
 0.7140000E-01  0.0000000E+00
 0.7250000E-01  0.0000000E+00
 0.7360000E-01  0.0000000E+00
 0.7470000E-01  0.0000000E+00
 0.7580000E-01  0.0000000E+00
 0.7690000E-01  0.0000000E+00
 0.7800000E-01  0.0000000E+00
 0.7910000E-01  0.0000000E+00
 0.8020000E-01  0.0000000E+00
 0.8130000E-01  0.0000000E+00
 0.8240000E-01  0.0000000E+00
 0.8350000E-01  0.0000000E+00
 0.8460000E-01  0.0000000E+00
 0.8570000E-01  0.0000000E+00
 0.8680000E-01  0.0000000E+00
 0.8790000E-01  0.0000000E+00
 0.8900000E-01  0.0000000E+00
 0.9010000E-01  0.0000000E+00
 0.9120000E-01  0.0000000E+00
 0.9230000E-01  0.0000000E+00
 0.9340000E-01  0.0000000E+00
 0.9450000E-01  0.0000000E+00
 0.9560000E-01  0.0000000E+00
 0.9670000E-01  0.0000000E+00
 0.9780000E-01  0.0000000E+00
 0.9890000E-01  0.0000000E+00
 0.1000000E+00 -0.0000000E+00
 0.1011000E+00 -0.0000000E+00
 0.1022000E+00 -0.0000000E+00
 0.1033000E+00 -0.0000000E+00
 0.1044000E+00 -0.0000000E+00
 0.1055000E+00  0.0000000E+00
 0.1066000E+00  0.1899690E-37
 0.1077000E+00  0.3220600E-37
 0.1088000E+00  0.1481419E-37
 0.1099000E+00 -0.2521154E-37
 0.1110000E+00 -0.9195788E-37
 0.1121000E+00 -0.1593529E-36
 0.1132000E+00 -0.1596028E-36
 0.1143000E+00 -0.4204286E-37
 0.1154000E+00  0.1798158E-36
 0.1165000E+00  0.4361194E-36
 0.1176000E+00  0.5765755E-36
 0.1187000E+00  0.4412710E-36
 0.1198000E+00 -0.5181885E-37
 0.1209000E+00 -0.8171328E-36
 0.1220000E+00 -0.1583927E-35
 0.1231000E+00 -0.1894445E-35
 0.1242000E+00 -0.1281280E-35
 0.1253000E+00  0.4723615E-36
 0.1264000E+00  0.3041144E-35
 0.1275000E+00  0.5428169E-35
 0.1286000E+00  0.6096646E-35
 0.1297000E+00  0.3562238E-35
 0.1308000E+00 -0.2637108E-35
 0.1319000E+00 -0.1106757E-34
 0.1330000E+00 -0.1809861E-34
 0.1341000E+00 -0.1875017E-34
 0.1352000E+00 -0.8894628E-35
 0.1363000E+00  0.1180880E-34
 0.1374000E+00  0.3755411E-34
 0.1385000E+00  0.5632773E-34
 0.1396000E+00  0.5347249E-34
 0.1407000E+00  0.1874703E-34
 0.1418000E+00 -0.4535424E-34
 0.1429000E+00 -0.1182206E-33
 0.1440000E+00 -0.1633579E-33
 0.1451000E+00 -0.1409332E-33
 0.1462000E+00 -0.2872298E-34
 0.1473000E+00  0.1562911E-33
 0.1484000E+00  0.3477482E-33
 0.1495000E+00  0.4426987E-33
 0.1506000E+00  0.3414408E-33
 0.1517000E+00  0.4980918E-35
 0.1528000E+00 -0.4939680E-33
 0.1539000E+00 -0.9584361E-33
 0.1550000E+00 -0.1118408E-32
 0.1561000E+00 -0.7468012E-33
 0.1572000E+00  0.1950410E-33
 0.1583000E+00  0.1450584E-32
 0.1594000E+00  0.2477405E-32
 0.1605000E+00  0.2619508E-32
 0.1616000E+00  0.1418575E-32
 0.1627000E+00 -0.1048577E-32
 0.1638000E+00 -0.3983096E-32
 0.1649000E+00 -0.5996556E-32
 0.1660000E+00 -0.5624949E-32
 0.1671000E+00 -0.2099260E-32
 0.1682000E+00  0.3948394E-32
 0.1693000E+00  0.1026168E-31
 0.1704000E+00  0.1354167E-31
 0.1715000E+00  0.1083700E-31
 0.1726000E+00  0.1296945E-32
 0.1737000E+00 -0.1254011E-31
 0.1748000E+00 -0.2482127E-31
 0.1759000E+00 -0.2831086E-31
 0.1770000E+00 -0.1783140E-31
 0.1781000E+00  0.6111434E-32
 0.1792000E+00  0.3546206E-31
 0.1803000E+00  0.5621506E-31
 0.1814000E+00  0.5390970E-31
 0.1825000E+00  0.2143421E-31
 0.1836000E+00 -0.3433561E-31
 0.1847000E+00 -0.9119569E-31
 0.1858000E+00 -0.1182897E-30
 0.1869000E+00 -0.9004909E-31
 0.1880000E+00 -0.2298438E-32
 0.1891000E+00  0.1176732E-30
 0.1902000E+00  0.2149164E-30
 0.1913000E+00  0.2274440E-30
 0.1924000E+00  0.1182603E-30
 0.1935000E+00 -0.9499950E-31
 0.1946000E+00 -0.3303058E-30
 0.1957000E+00 -0.4640311E-30
 0.1968000E+00 -0.3853015E-30
 0.1979000E+00 -0.6278639E-31
 0.1990000E+00  0.4091141E-30
 0.2001000E+00  0.8181083E-30
 0.2012000E+00  0.9110083E-30
 0.2023000E+00  0.5215811E-30
 0.2034000E+00 -0.3042688E-30
 0.2045000E+00 -0.1257373E-29
 0.2056000E+00 -0.1843818E-29
 0.2067000E+00 -0.1596012E-29
 0.2078000E+00 -0.3458693E-30
 0.2089000E+00  0.1570568E-29
 0.2100000E+00  0.3316620E-29
 0.2111000E+00  0.3840234E-29
 0.2122000E+00  0.2384114E-29
 0.2133000E+00 -0.9818381E-30
 0.2144000E+00 -0.5093604E-29
 0.2155000E+00 -0.7935727E-29
 0.2166000E+00 -0.7443580E-29
 0.2177000E+00 -0.2624823E-29
 0.2188000E+00  0.5501183E-29
 0.2199000E+00  0.1372529E-28
 0.2210000E+00  0.1760012E-28
 0.2221000E+00  0.1340481E-28
 0.2232000E+00  0.4165700E-30
 0.2243000E+00 -0.1762821E-28
 0.2254000E+00 -0.3295055E-28
 0.2265000E+00 -0.3644983E-28
 0.2276000E+00 -0.2207008E-28
 0.2287000E+00  0.8946394E-29
 0.2298000E+00  0.4620719E-28
 0.2309000E+00  0.7250262E-28
 0.2320000E+00  0.7049100E-28
 0.2331000E+00  0.3167345E-28
 0.2342000E+00 -0.3627608E-28
 0.2353000E+00 -0.1081742E-27
 0.2364000E+00 -0.1486101E-27
 0.2375000E+00 -0.1268377E-27
 0.2386000E+00 -0.3401058E-28
 0.2397000E+00  0.1053632E-27
 0.2408000E+00  0.2354296E-27
 0.2419000E+00  0.2876067E-27
 0.2430000E+00  0.2114264E-27
 0.2441000E+00  0.5641196E-29
 0.2452000E+00 -0.2661118E-27
 0.2463000E+00 -0.4876716E-27
 0.2474000E+00 -0.5328817E-27
 0.2485000E+00 -0.3258297E-27
 0.2496000E+00  0.1062317E-27
 0.2507000E+00  0.6159346E-27
 0.2518000E+00  0.9737432E-27
 0.2529000E+00  0.9577434E-27
 0.2540000E+00  0.4655351E-27
 0.2551000E+00 -0.4009012E-27
 0.2562000E+00 -0.1326883E-26
 0.2573000E+00 -0.1878755E-26
 0.2584000E+00 -0.1681961E-26
 0.2595000E+00 -0.6195138E-27
 0.2606000E+00  0.1040395E-26
 0.2617000E+00  0.2668837E-26
 0.2628000E+00  0.3481391E-26
 0.2639000E+00  0.2872747E-26
 0.2650000E+00  0.7531892E-27
 0.2661000E+00 -0.2274445E-26
 0.2672000E+00 -0.5023145E-26
 0.2683000E+00 -0.6136005E-26
 0.2694000E+00 -0.4685387E-26
 0.2705000E+00 -0.7172917E-27
 0.2716000E+00  0.4531613E-26
 0.2727000E+00  0.8927363E-26
 0.2738000E+00  0.1022675E-25
 0.2749000E+00  0.7105328E-26
 0.2760000E+00 -0.3940299E-29
 0.2771000E+00 -0.8702737E-26
 0.2782000E+00 -0.1529618E-25
 0.2793000E+00 -0.1622734E-25
 0.2804000E+00 -0.9778868E-26
 0.2815000E+00  0.2698059E-26
 0.2826000E+00  0.1671397E-25
 0.2837000E+00  0.2602846E-25
 0.2848000E+00  0.2517531E-25
 0.2859000E+00  0.1220016E-25
 0.2870000E+00 -0.9621962E-26
 0.2881000E+00 -0.3212054E-25
 0.2892000E+00 -0.4491838E-25
 0.2903000E+00 -0.3974950E-25
 0.2914000E+00 -0.1476431E-25
 0.2925000E+00  0.2317146E-25
 0.2936000E+00  0.5968148E-25
 0.2947000E+00  0.7779047E-25
 0.2958000E+00  0.6508464E-25
 0.2969000E+00  0.2032512E-25
 0.2980000E+00 -0.4361313E-25
 0.2991000E+00 -0.1025709E-24
 0.3002000E+00 -0.1295963E-24
 0.3013000E+00 -0.1063964E-24
 0.3024000E+00 -0.3317191E-25
 0.3035000E+00  0.6791294E-25
 0.3046000E+00  0.1584053E-24
 0.3057000E+00  0.1975684E-24
 0.3068000E+00  0.1599798E-24
 0.3079000E+00  0.4947815E-25
 0.3090000E+00 -0.9748108E-25
 0.3101000E+00 -0.2224917E-24
 0.3112000E+00 -0.2675966E-24
 0.3123000E+00 -0.2014027E-24
 0.3134000E+00 -0.3774283E-25
 0.3145000E+00  0.1629306E-24
 0.3156000E+00  0.3131784E-24
 0.3167000E+00  0.3341088E-24
 0.3178000E+00  0.1935012E-24
 0.3189000E+00 -0.7043968E-25
 0.3200000E+00 -0.3532765E-24
 0.3211000E+00 -0.5198887E-24
 0.3222000E+00 -0.4611849E-24
 0.3233000E+00 -0.1502685E-24
 0.3244000E+00  0.3275230E-24
 0.3255000E+00  0.7893685E-24
 0.3266000E+00  0.1016622E-23
 0.3277000E+00  0.8449795E-24
 0.3288000E+00  0.2487005E-24
 0.3299000E+00 -0.6192476E-24
 0.3310000E+00 -0.1456781E-23
 0.3321000E+00 -0.1911789E-23
 0.3332000E+00 -0.1720279E-23
 0.3343000E+00 -0.8311997E-24
 0.3354000E+00  0.5372454E-24
 0.3365000E+00  0.1944260E-23
 0.3376000E+00  0.2871771E-23
 0.3387000E+00  0.2921277E-23
 0.3398000E+00  0.1986410E-23
 0.3409000E+00  0.3253851E-24
 0.3420000E+00 -0.1509540E-23
 0.3431000E+00 -0.2872315E-23
 0.3442000E+00 -0.3281600E-23
 0.3453000E+00 -0.2631442E-23
 0.3464000E+00 -0.1255558E-23
 0.3475000E+00  0.2007459E-24
 0.3486000E+00  0.1066210E-23
 0.3497000E+00  0.9748667E-24
 0.3508000E+00  0.9287148E-25
 0.3519000E+00 -0.8849653E-24
 0.3530000E+00 -0.1009087E-23
 0.3541000E+00  0.4592053E-24
 0.3552000E+00  0.3573546E-23
 0.3563000E+00  0.7443375E-23
 0.3574000E+00  0.1036135E-22
 0.3585000E+00  0.1035054E-22
 0.3596000E+00  0.5985884E-23
 0.3607000E+00 -0.2804457E-23
 0.3618000E+00 -0.1430237E-22
 0.3629000E+00 -0.2518634E-22
 0.3640000E+00 -0.3139253E-22
 0.3651000E+00 -0.2944036E-22
 0.3662000E+00 -0.1779696E-22
 0.3673000E+00  0.2221145E-23
 0.3684000E+00  0.2640003E-22
 0.3695000E+00  0.4854988E-22
 0.3706000E+00  0.6216690E-22
 0.3717000E+00  0.6232213E-22
 0.3728000E+00  0.4715830E-22
 0.3739000E+00  0.1850331E-22
 0.3750000E+00 -0.1857114E-22
 0.3761000E+00 -0.5702930E-22
 0.3772000E+00 -0.8948030E-22
 0.3783000E+00 -0.1095408E-21
 0.3794000E+00 -0.1125749E-21
 0.3805000E+00 -0.9581497E-22
 0.3816000E+00 -0.5824380E-22
 0.3827000E+00 -0.7927810E-24
 0.3838000E+00  0.7276154E-22
 0.3849000E+00  0.1543126E-21
 0.3860000E+00  0.2300912E-21
 0.3871000E+00  0.2806830E-21
 0.3882000E+00  0.2835697E-21
 0.3893000E+00  0.2187054E-21
 0.3904000E+00  0.7642334E-22
 0.3915000E+00 -0.1344183E-21
 0.3926000E+00 -0.3811608E-21
 0.3937000E+00 -0.6081358E-21
 0.3948000E+00 -0.7455709E-21
 0.3959000E+00 -0.7263666E-21
 0.3970000E+00 -0.5076217E-21
 0.3981000E+00 -0.9122181E-22
 0.3992000E+00  0.4634590E-21
 0.4003000E+00  0.1040939E-20
 0.4014000E+00  0.1488331E-20
 0.4025000E+00  0.1649967E-20
 0.4036000E+00  0.1411393E-20
 0.4047000E+00  0.7419331E-21
 0.4058000E+00 -0.2767925E-21
 0.4069000E+00 -0.1447636E-20
 0.4080000E+00 -0.2486344E-20
 0.4091000E+00 -0.3080582E-20
 0.4102000E+00 -0.2969988E-20
 0.4113000E+00 -0.2030061E-20
 0.4124000E+00 -0.3380623E-21
 0.4135000E+00  0.1800976E-20
 0.4146000E+00  0.3884613E-20
 0.4157000E+00  0.5305418E-20
 0.4168000E+00  0.5496245E-20
 0.4179000E+00  0.4102753E-20
 0.4190000E+00  0.1143024E-20
 0.4201000E+00 -0.2893977E-20
 0.4212000E+00 -0.7057183E-20
 0.4223000E+00 -0.1007991E-19
 0.4234000E+00 -0.1066511E-19
 0.4245000E+00 -0.7870723E-20
 0.4256000E+00 -0.1514085E-20
 0.4267000E+00  0.7519103E-20
 0.4278000E+00  0.1718695E-19
 0.4289000E+00  0.2452783E-19
 0.4300000E+00  0.2626255E-19
 0.4311000E+00  0.1970739E-19
 0.4322000E+00  0.3829637E-20
 0.4333000E+00 -0.1982580E-19
 0.4344000E+00 -0.4666637E-19
 0.4355000E+00 -0.6934392E-19
 0.4366000E+00 -0.7899219E-19
 0.4377000E+00 -0.6737427E-19
 0.4388000E+00 -0.2962150E-19
 0.4399000E+00  0.3304028E-19
 0.4410000E+00  0.1113864E-18
 0.4421000E+00  0.1879596E-18
 0.4432000E+00  0.2391612E-18
 0.4443000E+00  0.2398806E-18
 0.4454000E+00  0.1702200E-18
 0.4465000E+00  0.2313155E-19
 0.4476000E+00 -0.1888746E-18
 0.4487000E+00 -0.4301540E-18
 0.4498000E+00 -0.6435599E-18
 0.4509000E+00 -0.7586252E-18
 0.4520000E+00 -0.7062903E-18
 0.4531000E+00 -0.4384011E-18
 0.4542000E+00  0.5168416E-19
 0.4553000E+00  0.7125525E-18
 0.4564000E+00  0.1428067E-17
 0.4575000E+00  0.2025684E-17
 0.4586000E+00  0.2302620E-17
 0.4597000E+00  0.2068973E-17
 0.4608000E+00  0.1202215E-17
 0.4619000E+00 -0.2973381E-18
 0.4630000E+00 -0.2264121E-17
 0.4641000E+00 -0.4353253E-17
 0.4652000E+00 -0.6067824E-17
 0.4663000E+00 -0.6834256E-17
 0.4674000E+00 -0.6122465E-17
 0.4685000E+00 -0.3595199E-17
 0.4696000E+00  0.7414182E-18
 0.4707000E+00  0.6423426E-17
 0.4718000E+00  0.1249089E-16
 0.4729000E+00  0.1756035E-16
 0.4740000E+00  0.2002591E-16
 0.4751000E+00  0.1838098E-16
 0.4762000E+00  0.1162124E-16
 0.4773000E+00 -0.3432896E-18
 0.4784000E+00 -0.1636364E-16
 0.4795000E+00 -0.3392111E-16
 0.4806000E+00 -0.4928317E-16
 0.4817000E+00 -0.5800041E-16
 0.4828000E+00 -0.5573434E-16
 0.4839000E+00 -0.3932550E-16
 0.4850000E+00 -0.7926181E-17
 0.4861000E+00  0.3604699E-16
 0.4872000E+00  0.8641957E-16
 0.4883000E+00  0.1334837E-15
 0.4894000E+00  0.1651131E-15
 0.4905000E+00  0.1687918E-15
 0.4916000E+00  0.1343759E-15
 0.4927000E+00  0.5718761E-16
 0.4938000E+00 -0.5915773E-16
 0.4949000E+00 -0.2009144E-15
 0.4960000E+00 -0.3440800E-15
 0.4971000E+00 -0.4565388E-15
 0.4982000E+00 -0.5026975E-15
 0.4993000E+00 -0.4503530E-15
 0.5004000E+00 -0.2789593E-15
 0.5015000E+00  0.1210001E-16
 0.5026000E+00  0.3970499E-15
 0.5037000E+00  0.8210430E-15
 0.5048000E+00  0.1203004E-14
 0.5059000E+00  0.1445076E-14
 0.5070000E+00  0.1448641E-14
 0.5081000E+00  0.1135480E-14
 0.5092000E+00  0.4710924E-15
 0.5103000E+00 -0.5141462E-15
 0.5114000E+00 -0.1711146E-14
 0.5125000E+00 -0.2930745E-14
 0.5136000E+00 -0.3918903E-14
 0.5147000E+00 -0.4390251E-14
 0.5158000E+00 -0.4078532E-14
 0.5169000E+00 -0.2798489E-14
 0.5180000E+00 -0.5098032E-15
 0.5191000E+00  0.2629551E-14
 0.5202000E+00  0.6234690E-14
 0.5213000E+00  0.9703243E-14
 0.5224000E+00  0.1227226E-13
 0.5235000E+00  0.1312517E-13
 0.5246000E+00  0.1154205E-13
 0.5257000E+00  0.7075691E-14
 0.5268000E+00 -0.2743352E-15
 0.5279000E+00 -0.9924948E-14
 0.5290000E+00 -0.2064860E-13
 0.5301000E+00 -0.3062247E-13
 0.5312000E+00 -0.3761049E-13
 0.5323000E+00 -0.3928132E-13
 0.5334000E+00 -0.3363970E-13
 0.5345000E+00 -0.1952013E-13
 0.5356000E+00  0.2935026E-14
 0.5367000E+00  0.3191008E-13
 0.5378000E+00  0.6376614E-13
 0.5389000E+00  0.9319811E-13
 0.5400000E+00  0.1137568E-12
 0.5411000E+00  0.1187421E-12
 0.5422000E+00  0.1024047E-12
 0.5433000E+00  0.6131735E-13
 0.5444000E+00 -0.4291166E-14
 0.5455000E+00 -0.8950111E-13
 0.5466000E+00 -0.1842412E-12
 0.5477000E+00 -0.2736506E-12
 0.5488000E+00 -0.3394282E-12
 0.5499000E+00 -0.3622000E-12
 0.5510000E+00 -0.3247583E-12
 0.5521000E+00 -0.2158293E-12
 0.5532000E+00 -0.3383625E-13
 0.5543000E+00  0.2100165E-12
 0.5554000E+00  0.4900786E-12
 0.5565000E+00  0.7666925E-12
 0.5576000E+00  0.9892367E-12
 0.5587000E+00  0.1101951E-11
 0.5598000E+00  0.1052285E-11
 0.5609000E+00  0.8010010E-12
 0.5620000E+00  0.3327679E-12
 0.5631000E+00 -0.3344535E-12
 0.5642000E+00 -0.1143152E-11
 0.5653000E+00 -0.1995038E-11
 0.5664000E+00 -0.2756397E-11
 0.5675000E+00 -0.3270865E-11
 0.5686000E+00 -0.3379458E-11
 0.5697000E+00 -0.2946440E-11
 0.5708000E+00 -0.1888289E-11
 0.5719000E+00 -0.2018157E-12
 0.5730000E+00  0.2013363E-11
 0.5741000E+00  0.4543105E-11
 0.5752000E+00  0.7062431E-11
 0.5763000E+00  0.9157977E-11
 0.5774000E+00  0.1037043E-10
 0.5785000E+00  0.1025532E-10
 0.5796000E+00  0.8457282E-11
 0.5807000E+00  0.4789545E-11
 0.5818000E+00 -0.6922465E-12
 0.5829000E+00 -0.7634744E-11
 0.5840000E+00 -0.1536309E-10
 0.5851000E+00 -0.2289999E-10
 0.5862000E+00 -0.2903527E-10
 0.5873000E+00 -0.3244780E-10
 0.5884000E+00 -0.3187447E-10
 0.5895000E+00 -0.2631245E-10
 0.5906000E+00 -0.1523349E-10
 0.5917000E+00  0.1218258E-11
 0.5928000E+00  0.2207696E-10
 0.5939000E+00  0.4548713E-10
 0.5950000E+00  0.6874553E-10
 0.5961000E+00  0.8847226E-10
 0.5972000E+00  0.1009172E-09
 0.5983000E+00  0.1023902E-09
 0.5994000E+00  0.8978428E-10
 0.6005000E+00  0.6114197E-10
 0.6016000E+00  0.1619863E-10
 0.6027000E+00 -0.4317472E-10
 0.6038000E+00 -0.1127089E-09
 0.6049000E+00 -0.1857277E-09
 0.6060000E+00 -0.2534482E-09
 0.6071000E+00 -0.3056178E-09
 0.6082000E+00 -0.3314775E-09
 0.6093000E+00 -0.3210015E-09
 0.6104000E+00 -0.2663140E-09
 0.6115000E+00 -0.1631489E-09
 0.6126000E+00 -0.1218543E-10
 0.6137000E+00  0.1799267E-09
 0.6148000E+00  0.4000311E-09
 0.6159000E+00  0.6285766E-09
 0.6170000E+00  0.8404885E-09
 0.6181000E+00  0.1006845E-08
 0.6192000E+00  0.1097326E-08
 0.6203000E+00  0.1083299E-08
 0.6214000E+00  0.9413462E-09
 0.6225000E+00  0.6569184E-09
 0.6236000E+00  0.2277779E-09
 0.6247000E+00 -0.3331609E-09
 0.6258000E+00 -0.9959691E-09
 0.6269000E+00 -0.1713154E-08
 0.6280000E+00 -0.2420677E-08
 0.6291000E+00 -0.3040680E-08
 0.6302000E+00 -0.3485912E-08
 0.6313000E+00 -0.3665719E-08
 0.6324000E+00 -0.3493279E-08
 0.6335000E+00 -0.2893674E-08
 0.6346000E+00 -0.1812253E-08
 0.6357000E+00 -0.2227366E-09
 0.6368000E+00  0.1865522E-08
 0.6379000E+00  0.4401595E-08
 0.6390000E+00  0.7288722E-08
 0.6401000E+00  0.1038191E-07
 0.6412000E+00  0.1348731E-07
 0.6423000E+00  0.1636315E-07
 0.6434000E+00  0.1872151E-07
 0.6445000E+00  0.2023024E-07
 0.6456000E+00  0.2051392E-07
 0.6467000E+00  0.1915273E-07
 0.6478000E+00  0.1567772E-07
 0.6489000E+00  0.9561256E-08
 0.6500000E+00  0.2011136E-09
 0.6511000E+00 -0.1310312E-07
 0.6522000E+00 -0.3118272E-07
 0.6533000E+00 -0.5504278E-07
 0.6544000E+00 -0.8591672E-07
 0.6555000E+00 -0.1253336E-06
 0.6566000E+00 -0.1751995E-06
 0.6577000E+00 -0.2378942E-06
 0.6588000E+00 -0.3163856E-06
 0.6599000E+00 -0.4143622E-06
 0.6610000E+00 -0.5363884E-06
 0.6621000E+00 -0.6880830E-06
 0.6632000E+00 -0.8763263E-06
 0.6643000E+00 -0.1109498E-05
 0.6654000E+00 -0.1397750E-05
 0.6665000E+00 -0.1753326E-05
 0.6676000E+00 -0.2190917E-05
 0.6687000E+00 -0.2728078E-05
 0.6698000E+00 -0.3385702E-05
 0.6709000E+00 -0.4188549E-05
 0.6720000E+00 -0.5165859E-05
 0.6731000E+00 -0.6352023E-05
 0.6742000E+00 -0.7787354E-05
 0.6753000E+00 -0.9518919E-05
 0.6764000E+00 -0.1160148E-04
 0.6775000E+00 -0.1409848E-04
 0.6786000E+00 -0.1708322E-04
 0.6797000E+00 -0.2063994E-04
 0.6808000E+00 -0.2486518E-04
 0.6819000E+00 -0.2986903E-04
 0.6830000E+00 -0.3577658E-04
 0.6841000E+00 -0.4272932E-04
 0.6852000E+00 -0.5088657E-04
 0.6863000E+00 -0.6042692E-04
 0.6874000E+00 -0.7154962E-04
 0.6885000E+00 -0.8447592E-04
 0.6896000E+00 -0.9945022E-04
 0.6907000E+00 -0.1167411E-03
 0.6918000E+00 -0.1366423E-03
 0.6929000E+00 -0.1594728E-03
 0.6940000E+00 -0.1855773E-03
 0.6951000E+00 -0.2153262E-03
 0.6962000E+00 -0.2491143E-03
 0.6973000E+00 -0.2873597E-03
 0.6984000E+00 -0.3305019E-03
 0.6995000E+00 -0.3789992E-03
 0.7006000E+00 -0.4333248E-03
 0.7017000E+00 -0.4939627E-03
 0.7028000E+00 -0.5614024E-03
 0.7039000E+00 -0.6361324E-03
 0.7050000E+00 -0.7186330E-03
 0.7061000E+00 -0.8093680E-03
 0.7072000E+00 -0.9087752E-03
 0.7083000E+00 -0.1017256E-02
 0.7094000E+00 -0.1135164E-02
 0.7105000E+00 -0.1262792E-02
 0.7116000E+00 -0.1400361E-02
 0.7127000E+00 -0.1548005E-02
 0.7138000E+00 -0.1705756E-02
 0.7149000E+00 -0.1873533E-02
 0.7160000E+00 -0.2051123E-02
 0.7171000E+00 -0.2238171E-02
 0.7182000E+00 -0.2434166E-02
 0.7193000E+00 -0.2638426E-02
 0.7204000E+00 -0.2850090E-02
 0.7215000E+00 -0.3068107E-02
 0.7226000E+00 -0.3291229E-02
 0.7237000E+00 -0.3518007E-02
 0.7248000E+00 -0.3746786E-02
 0.7259000E+00 -0.3975713E-02
 0.7270000E+00 -0.4202734E-02
 0.7281000E+00 -0.4425606E-02
 0.7292000E+00 -0.4641909E-02
 0.7303000E+00 -0.4849064E-02
 0.7314000E+00 -0.5044353E-02
 0.7325000E+00 -0.5224943E-02
 0.7336000E+00 -0.5387918E-02
 0.7347000E+00 -0.5530309E-02
 0.7358000E+00 -0.5649134E-02
 0.7369000E+00 -0.5741436E-02
 0.7380000E+00 -0.5804327E-02
 0.7391000E+00 -0.5835036E-02
 0.7402000E+00 -0.5830950E-02
 0.7413000E+00 -0.5789667E-02
 0.7424000E+00 -0.5709040E-02
 0.7435000E+00 -0.5587226E-02
 0.7446000E+00 -0.5422729E-02
 0.7457000E+00 -0.5214440E-02
 0.7468000E+00 -0.4961682E-02
 0.7479000E+00 -0.4664236E-02
 0.7490000E+00 -0.4322369E-02
 0.7501000E+00 -0.3936859E-02
 0.7512000E+00 -0.3509008E-02
 0.7523000E+00 -0.3040645E-02
 0.7534000E+00 -0.2534129E-02
 0.7545000E+00 -0.1992335E-02
 0.7556000E+00 -0.1418636E-02
 0.7567000E+00 -0.8168765E-03
 0.7578000E+00 -0.1913358E-03
 0.7589000E+00  0.4533173E-03
 0.7600000E+00  0.1112074E-02
 0.7611000E+00  0.1779646E-02
 0.7622000E+00  0.2450526E-02
 0.7633000E+00  0.3119061E-02
 0.7644000E+00  0.3779521E-02
 0.7655000E+00  0.4426176E-02
 0.7666000E+00  0.5053372E-02
 0.7677000E+00  0.5655607E-02
 0.7688000E+00  0.6227605E-02
 0.7699000E+00  0.6764384E-02
 0.7710000E+00  0.7261327E-02
 0.7721000E+00  0.7714242E-02
 0.7732000E+00  0.8119415E-02
 0.7743000E+00  0.8473660E-02
 0.7754000E+00  0.8774358E-02
 0.7765000E+00  0.9019481E-02
 0.7776000E+00  0.9207625E-02
 0.7787000E+00  0.9338005E-02
 0.7798000E+00  0.9410465E-02
 0.7809000E+00  0.9425471E-02
 0.7820000E+00  0.9384084E-02
 0.7831000E+00  0.9287941E-02
 0.7842000E+00  0.9139221E-02
 0.7853000E+00  0.8940593E-02
 0.7864000E+00  0.8695179E-02
 0.7875000E+00  0.8406489E-02
 0.7886000E+00  0.8078374E-02
 0.7897000E+00  0.7714953E-02
 0.7908000E+00  0.7320562E-02
 0.7919000E+00  0.6899680E-02
 0.7930000E+00  0.6456873E-02
 0.7941000E+00  0.5996726E-02
 0.7952000E+00  0.5523791E-02
 0.7963000E+00  0.5042520E-02
 0.7974000E+00  0.4557228E-02
 0.7985000E+00  0.4072035E-02
 0.7996000E+00  0.3590828E-02
 0.8007000E+00  0.3117227E-02
 0.8018000E+00  0.2654554E-02
 0.8029000E+00  0.2205813E-02
 0.8040000E+00  0.1773667E-02
 0.8051000E+00  0.1360433E-02
 0.8062000E+00  0.9680730E-03
 0.8073000E+00  0.5981984E-03
 0.8084000E+00  0.2520717E-03
 0.8095000E+00 -0.6938075E-04
 0.8106000E+00 -0.3655544E-03
 0.8117000E+00 -0.6361484E-03
 0.8128000E+00 -0.8811448E-03
 0.8139000E+00 -0.1100785E-02
 0.8150000E+00 -0.1295546E-02
 0.8161000E+00 -0.1466111E-02
 0.8172000E+00 -0.1613348E-02
 0.8183000E+00 -0.1738274E-02
 0.8194000E+00 -0.1842037E-02
 0.8205000E+00 -0.1925883E-02
 0.8216000E+00 -0.1991134E-02
 0.8227000E+00 -0.2039164E-02
 0.8238000E+00 -0.2071376E-02
 0.8249000E+00 -0.2089185E-02
 0.8260000E+00 -0.2093996E-02
 0.8271000E+00 -0.2087189E-02
 0.8282000E+00 -0.2070107E-02
 0.8293000E+00 -0.2044040E-02
 0.8304000E+00 -0.2010221E-02
 0.8315000E+00 -0.1969812E-02
 0.8326000E+00 -0.1923903E-02
 0.8337000E+00 -0.1873504E-02
 0.8348000E+00 -0.1819548E-02
 0.8359000E+00 -0.1762883E-02
 0.8370000E+00 -0.1704280E-02
 0.8381000E+00 -0.1644429E-02
 0.8392000E+00 -0.1583946E-02
 0.8403000E+00 -0.1523374E-02
 0.8414000E+00 -0.1463189E-02
 0.8425000E+00 -0.1403800E-02
 0.8436000E+00 -0.1345562E-02
 0.8447000E+00 -0.1288773E-02
 0.8458000E+00 -0.1233688E-02
 0.8469000E+00 -0.1180518E-02
 0.8480000E+00 -0.1129439E-02
 0.8491000E+00 -0.1080595E-02
 0.8502000E+00 -0.1034106E-02
 0.8513000E+00 -0.9900674E-03
 0.8524000E+00 -0.9485590E-03
 0.8535000E+00 -0.9096463E-03
 0.8546000E+00 -0.8733847E-03
 0.8557000E+00 -0.8398222E-03
 0.8568000E+00 -0.8090019E-03
 0.8579000E+00 -0.7809635E-03
 0.8590000E+00 -0.7557452E-03
 0.8601000E+00 -0.7333841E-03
 0.8612000E+00 -0.7139182E-03
 0.8623000E+00 -0.6973856E-03
 0.8634000E+00 -0.6838249E-03
 0.8645000E+00 -0.6732738E-03
 0.8656000E+00 -0.6657678E-03
 0.8667000E+00 -0.6613391E-03
 0.8678000E+00 -0.6600152E-03
 0.8689000E+00 -0.6618171E-03
 0.8700000E+00 -0.6667575E-03
 0.8711000E+00 -0.6748394E-03
 0.8722000E+00 -0.6860532E-03
 0.8733000E+00 -0.7003739E-03
 0.8744000E+00 -0.7177592E-03
 0.8755000E+00 -0.7381464E-03
 0.8766000E+00 -0.7614506E-03
 0.8777000E+00 -0.7875629E-03
 0.8788000E+00 -0.8163477E-03
 0.8799000E+00 -0.8476410E-03
 0.8810000E+00 -0.8812489E-03
 0.8821000E+00 -0.9169460E-03
 0.8832000E+00 -0.9544743E-03
 0.8843000E+00 -0.9935426E-03
 0.8854000E+00 -0.1033828E-02
 0.8865000E+00 -0.1074975E-02
 0.8876000E+00 -0.1116597E-02
 0.8887000E+00 -0.1158279E-02
 0.8898000E+00 -0.1199579E-02
 0.8909000E+00 -0.1240033E-02
 0.8920000E+00 -0.1279157E-02
 0.8931000E+00 -0.1316451E-02
 0.8942000E+00 -0.1351407E-02
 0.8953000E+00 -0.1383511E-02
 0.8964000E+00 -0.1412250E-02
 0.8975000E+00 -0.1437117E-02
 0.8986000E+00 -0.1457620E-02
 0.8997000E+00 -0.1473288E-02
 0.9008000E+00 -0.1483675E-02
 0.9019000E+00 -0.1488372E-02
 0.9030000E+00 -0.1487006E-02
 0.9041000E+00 -0.1479254E-02
 0.9052000E+00 -0.1464843E-02
 0.9063000E+00 -0.1443554E-02
 0.9074000E+00 -0.1415232E-02
 0.9085000E+00 -0.1379782E-02
 0.9096000E+00 -0.1337174E-02
 0.9107000E+00 -0.1287448E-02
 0.9118000E+00 -0.1230706E-02
 0.9129000E+00 -0.1167115E-02
 0.9140000E+00 -0.1096905E-02
 0.9151000E+00 -0.1020365E-02
 0.9162000E+00 -0.9378334E-03
 0.9173000E+00 -0.8496981E-03
 0.9184000E+00 -0.7563838E-03
 0.9195000E+00 -0.6583452E-03
 0.9206000E+00 -0.5560580E-03
 0.9217000E+00 -0.4500082E-03
 0.9228000E+00 -0.3406824E-03
 0.9239000E+00 -0.2285567E-03
 0.9250000E+00 -0.1140852E-03
 0.9261000E+00  0.2310751E-05
 0.9272000E+00  0.1202538E-03
 0.9283000E+00  0.2394208E-03
 0.9294000E+00  0.3595526E-03
 0.9305000E+00  0.4804623E-03
 0.9316000E+00  0.6020440E-03
 0.9327000E+00  0.7242791E-03
 0.9338000E+00  0.8472424E-03
 0.9349000E+00  0.9711058E-03
 0.9360000E+00  0.1096140E-02
 0.9371000E+00  0.1222716E-02
 0.9382000E+00  0.1351300E-02
 0.9393000E+00  0.1482452E-02
 0.9404000E+00  0.1616819E-02
 0.9415000E+00  0.1755130E-02
 0.9426000E+00  0.1898181E-02
 0.9437000E+00  0.2046825E-02
 0.9448000E+00  0.2201959E-02
 0.9459000E+00  0.2364504E-02
 0.9470000E+00  0.2535388E-02
 0.9481000E+00  0.2715525E-02
 0.9492000E+00  0.2905795E-02
 0.9503000E+00  0.3107016E-02
 0.9514000E+00  0.3319924E-02
 0.9525000E+00  0.3545146E-02
 0.9536000E+00  0.3783168E-02
 0.9547000E+00  0.4034318E-02
 0.9558000E+00  0.4298727E-02
 0.9569000E+00  0.4576318E-02
 0.9580000E+00  0.4866766E-02
 0.9591000E+00  0.5169485E-02
 0.9602000E+00  0.5483604E-02
 0.9613000E+00  0.5807945E-02
 0.9624000E+00  0.6141009E-02
 0.9635000E+00  0.6480970E-02
 0.9646000E+00  0.6825662E-02
 0.9657000E+00  0.7172578E-02
 0.9668000E+00  0.7518878E-02
 0.9679000E+00  0.7861392E-02
 0.9690000E+00  0.8196638E-02
 0.9701000E+00  0.8520847E-02
 0.9712000E+00  0.8829989E-02
 0.9723000E+00  0.9119806E-02
 0.9734000E+00  0.9385864E-02
 0.9745000E+00  0.9623590E-02
 0.9756000E+00  0.9828333E-02
 0.9767000E+00  0.9995426E-02
 0.9778000E+00  0.1012025E-01
 0.9789000E+00  0.1019829E-01