 -0.12000000000000000          0.0000000000000000     
 -0.11889999999999999          0.0000000000000000     
 -0.11780000000000000          0.0000000000000000     
 -0.11670000000000000          0.0000000000000000     
 -0.11559999999999999          0.0000000000000000     
 -0.11449999999999999          0.0000000000000000     
 -0.11340000000000000          0.0000000000000000     
 -0.11230000000000000          0.0000000000000000     
 -0.11119999999999999          0.0000000000000000     
 -0.11009999999999999          0.0000000000000000     
 -0.10900000000000000          0.0000000000000000     
 -0.10790000000000000          0.0000000000000000     
 -0.10679999999999999          0.0000000000000000     
 -0.10569999999999999         -1.3267419514073599E-044
 -0.10460000000000000          1.1896874186916720E-039
 -0.10349999999999999          1.5933761471275095E-038
 -0.10239999999999999          1.3300184524261553E-037
 -0.10130000000000000          7.0374024127847574E-037
 -0.10020000000000000          3.0115164207605902E-036
  -9.9099999999999994E-002     1.0650629044398454E-035
  -9.7999999999999990E-002     3.1111537075806066E-035
  -9.6899999999999986E-002     7.3877778715129274E-035
  -9.5799999999999996E-002     1.3643797036087259E-034
  -9.4699999999999993E-002     1.7092282915244941E-034
  -9.3599999999999989E-002     5.0910614673470276E-035
  -9.2499999999999999E-002    -3.8451556372998177E-034
  -9.1399999999999995E-002    -1.1196208113863212E-033
  -9.0299999999999991E-002    -1.7072407853838993E-033
  -8.9200000000000002E-002    -1.5740833577353815E-033
  -8.8099999999999984E-002    -1.5344205042293796E-033
  -8.6999999999999994E-002    -5.1578211259019903E-033
  -8.5899999999999990E-002    -1.4248419612416886E-032
  -8.4799999999999986E-002    -1.2001170599049765E-032
  -8.3699999999999997E-002     5.5153587942726004E-032
  -8.2599999999999993E-002     2.4360238146612886E-031
  -8.1499999999999989E-002     4.4752217210533843E-031
  -8.0399999999999999E-002     1.3332499431040639E-031
  -7.9299999999999995E-002    -1.6446461894489130E-030
  -7.8199999999999992E-002    -5.1622568580647386E-030
  -7.7100000000000002E-002    -7.4316408585055660E-030
  -7.5999999999999984E-002     1.5881167009433099E-031
  -7.4899999999999994E-002     2.8359835096966234E-029
  -7.3799999999999991E-002     7.3572715054644476E-029
  -7.2699999999999987E-002     9.0160842653528547E-029
  -7.1599999999999997E-002    -2.1493630725598701E-029
  -7.0499999999999993E-002    -3.5523649773829586E-028
  -6.9399999999999989E-002    -8.2234514632159032E-028
  -6.8300000000000000E-002    -9.2129852507831562E-028
  -6.7199999999999996E-002     2.7097915881052811E-028
  -6.6099999999999992E-002     3.4521364069592627E-027
  -6.5000000000000002E-002     7.5916564312755036E-027
  -6.3899999999999985E-002     8.3182048464666869E-027
  -6.2799999999999995E-002    -1.6197192190780556E-027
  -6.1699999999999991E-002    -2.6995440007286035E-026
  -6.0599999999999994E-002    -5.9342069204590408E-026
  -5.9499999999999990E-002    -6.6897318921708639E-026
  -5.8399999999999994E-002     2.3516941506843137E-028
  -5.7299999999999990E-002     1.7352567311616326E-025
  -5.6199999999999986E-002     3.9865886481931817E-025
  -5.5099999999999996E-002     4.7752067604518110E-025
  -5.3999999999999992E-002     1.0363833967507087E-025
  -5.2899999999999989E-002    -9.2421726750422734E-025
  -5.1799999999999985E-002    -2.3250535375025686E-024
  -5.0699999999999995E-002    -3.0191392789208257E-024
  -4.9599999999999991E-002    -1.3082992785355909E-024
  -4.8499999999999988E-002     4.0316594136264316E-024
  -4.7399999999999998E-002     1.1838196265406438E-023
  -4.6299999999999994E-002     1.6919663699521635E-023
  -4.5199999999999990E-002     1.0742432835956417E-023
  -4.4099999999999986E-002    -1.3619577666089153E-023
  -4.2999999999999997E-002    -5.2618911972032709E-023
  -4.1899999999999993E-002    -8.4170880105976550E-023
  -4.0799999999999989E-002    -6.9314575914110592E-023
  -3.9699999999999985E-002     2.7835340410723453E-023
  -3.8599999999999995E-002     2.0242700415478203E-022
  -3.7499999999999992E-002     3.7175239636404326E-022
  -3.6399999999999988E-002     3.7433724685080065E-022
  -3.5299999999999984E-002     4.1252838562659701E-023
  -3.4199999999999994E-002    -6.5728919964419274E-022
  -3.3099999999999991E-002    -1.4531487765275426E-021
  -3.1999999999999987E-002    -1.7409241515343525E-021
  -3.0899999999999997E-002    -8.0073647920466005E-022
  -2.9799999999999993E-002     1.6804656893969411E-021
  -2.8699999999999989E-002     4.9820552152136179E-021
  -2.7599999999999986E-002     7.0651693901724154E-021
  -2.6499999999999996E-002     5.1591385833742557E-021
  -2.5399999999999992E-002    -2.5552882860526043E-021
  -2.4299999999999988E-002    -1.4674904461611887E-020
  -2.3199999999999985E-002    -2.5112573824014218E-020
  -2.2099999999999995E-002    -2.4266178749305580E-020
  -2.0999999999999991E-002    -3.8996980947074720E-021
  -1.9899999999999987E-002     3.5344878704175601E-020
  -1.8799999999999983E-002     7.7770976854232810E-020
  -1.7699999999999994E-002     9.3579644949341407E-020
  -1.6599999999999990E-002     5.1328287020814843E-020
  -1.5499999999999986E-002    -5.9523866225780179E-020
  -1.4399999999999996E-002    -2.0607857493875189E-019
  -1.3299999999999992E-002    -3.0639390414472024E-019
  -1.2199999999999989E-002    -2.5631746364874788E-019
  -1.1099999999999985E-002     9.6690581418424932E-021
  -9.9999999999999950E-003     4.4602674105246682E-019
  -8.8999999999999913E-003     8.5721260915787204E-019
  -7.7999999999999875E-003     9.4106489578896348E-019
  -6.6999999999999837E-003     4.3422166500228506E-019
  -5.5999999999999939E-003    -6.8138421498509647E-019
  -4.4999999999999901E-003    -2.0190913140466797E-018
  -3.3999999999999864E-003    -2.8130711014932744E-018
  -2.2999999999999826E-003    -2.2171991469107094E-018
  -1.1999999999999927E-003     1.7289031205247385E-019
  -9.9999999999988987E-005     3.8044111656628828E-018
   1.0000000000000148E-003     7.0081491165701621E-018
   2.1000000000000185E-003     7.4910430211427236E-018
   3.2000000000000084E-003     3.4961748973865625E-018
   4.3000000000000121E-003    -4.7876223880424487E-018
   5.4000000000000159E-003    -1.4357937610467911E-017
   6.5000000000000058E-003    -1.9901339783885031E-017
   7.6000000000000234E-003    -1.6009398244018136E-017
   8.7000000000000133E-003    -5.1352658426564404E-019
   9.8000000000000032E-003     2.2646892839916978E-017
   1.0900000000000021E-002     4.3037864312676816E-017
   1.2000000000000011E-002     4.7182009459705399E-017
   1.3100000000000001E-002     2.5400508460051485E-017
   1.4200000000000018E-002    -2.0701692326023432E-017
   1.5300000000000008E-002    -7.4414211218792087E-017
   1.6400000000000026E-002    -1.0760624956796871E-016
   1.7500000000000016E-002    -9.2740834526579773E-017
   1.8600000000000005E-002    -1.9312386325044074E-017
   1.9700000000000023E-002     9.3393520147934181E-017
   2.0800000000000013E-002     1.9620786072149187E-016
   2.1900000000000003E-002     2.2743955862780849E-016
   2.3000000000000020E-002     1.4385096851310624E-016
   2.4100000000000010E-002    -4.8034173587972853E-017
   2.5200000000000000E-002    -2.7844435769656673E-016
   2.6300000000000018E-002    -4.3264362296159043E-016
   2.7400000000000008E-002    -4.0105519445695765E-016
   2.8500000000000025E-002    -1.4274728504689221E-016
   2.9600000000000015E-002     2.6996123399341322E-016
   3.0700000000000005E-002     6.5733263659724848E-016
   3.1800000000000023E-002     8.0071015232619838E-016
   3.2900000000000013E-002     5.5348954251433570E-016
   3.4000000000000002E-002    -5.6185766699954136E-017
   3.5100000000000020E-002    -7.9200330615228089E-016
   3.6200000000000010E-002    -1.2842701943228491E-015
   3.7300000000000028E-002    -1.2008781496672122E-015
   3.8400000000000017E-002    -4.4381982988800336E-016
   3.9500000000000007E-002     7.3373202519648240E-016
   4.0600000000000025E-002     1.7781961663477648E-015
   4.1700000000000015E-002     2.0705658061584880E-015
   4.2800000000000005E-002     1.2608436093870594E-015
   4.3900000000000022E-002    -4.6256740984362845E-016
   4.5000000000000012E-002    -2.3397081568290433E-015
   4.6100000000000002E-002    -3.3236964222131495E-015
   4.7200000000000020E-002    -2.6047563244157333E-015
   4.8300000000000010E-002    -1.3814529624220324E-016
   4.9400000000000027E-002     3.1233937565172672E-015
   5.0500000000000017E-002     5.5024403805652215E-015
   5.1600000000000007E-002     5.3535420353540213E-015
   5.2700000000000025E-002     2.0044939038986907E-015
   5.3800000000000014E-002    -3.5966288748761161E-015
   5.4900000000000004E-002    -8.9645795019619234E-015
   5.6000000000000022E-002    -1.1030652538121134E-014
   5.7100000000000012E-002    -7.6634614287841687E-015
   5.8200000000000002E-002     9.2929150523173685E-016
   5.9300000000000019E-002     1.1701602836779660E-014
   6.0400000000000009E-002     1.9651901075543556E-014
   6.1500000000000027E-002     1.9938706759664621E-014
   6.2600000000000017E-002     1.0397224989780944E-014
   6.3700000000000007E-002    -6.7586901909562621E-015
   6.4800000000000024E-002    -2.5085841920800657E-014
   6.5900000000000014E-002    -3.6195293498253164E-014
   6.7000000000000004E-002    -3.3416601322281497E-014
   6.8100000000000022E-002    -1.5262815980839920E-014
   6.9200000000000012E-002     1.3034073294548698E-014
   7.0300000000000029E-002     4.0938628984829865E-014
   7.1400000000000019E-002     5.6673704688423465E-014
   7.2500000000000009E-002     5.2283560238940991E-014
   7.3600000000000027E-002     2.7393500645466097E-014
   7.4700000000000016E-002    -1.0195521883965498E-014
   7.5800000000000006E-002    -4.7506396036892358E-014
   7.6900000000000024E-002    -7.1647665160050626E-014
   7.8000000000000014E-002    -7.4832309800375954E-014
   7.9100000000000004E-002    -5.6754041496380699E-014
   8.0200000000000021E-002    -2.3354100845547645E-014
   8.1300000000000011E-002     1.6941171099974992E-014
   8.2400000000000029E-002     5.6935390168609835E-014
   8.3500000000000019E-002     9.1800965879604983E-014
   8.4600000000000009E-002     1.1689694013177838E-013
   8.5700000000000026E-002     1.2416135978622789E-013
   8.6800000000000016E-002     1.0084701990104244E-013
   8.7900000000000006E-002     3.3957165145758133E-014
   8.9000000000000024E-002    -7.9390588962390335E-014
   9.0100000000000013E-002    -2.2006961815834692E-013
   9.1200000000000003E-002    -3.4147188229238877E-013
   9.2300000000000021E-002    -3.7816042503838304E-013
   9.3400000000000011E-002    -2.7100949798326014E-013
   9.4500000000000028E-002    -2.1292834605044788E-015
   9.5600000000000018E-002     3.7588565812443503E-013
   9.6700000000000008E-002     7.3510776240524895E-013
   9.7800000000000026E-002     9.0454824180578529E-013
   9.8900000000000016E-002     7.3715616545325377E-013
  0.10000000000000001          1.9006623807207760E-013
  0.10110000000000002         -6.1763673397494772E-013
  0.10220000000000001         -1.4059243144578525E-012
  0.10330000000000003         -1.8123616735702501E-012
  0.10440000000000002         -1.5348598271201161E-012
  0.10550000000000001         -4.9039225011519276E-013
  0.10660000000000003          1.0801947469282407E-012
  0.10770000000000002          2.6256022563430848E-012
  0.10880000000000001          3.4429594442570076E-012
  0.10990000000000003          2.9501116598840627E-012
  0.11100000000000002          9.7959190882298564E-013
  0.11210000000000001         -2.0305873047214902E-012
  0.11320000000000002         -5.0598853860410524E-012
  0.11430000000000001         -6.7864126871172923E-012
  0.11540000000000003         -6.0704317226928513E-012
  0.11650000000000002         -2.4853541827532569E-012
  0.11760000000000001          3.3138678640518569E-012
  0.11870000000000003          9.5748445928533815E-012
  0.11980000000000002          1.3872149442741603E-011
  0.12090000000000001          1.3901778195674263E-011
  0.12200000000000003          8.4144490250452867E-012
  0.12310000000000001         -2.0443334854785398E-012
  0.12420000000000003         -1.4910457212276397E-011
  0.12530000000000002         -2.6082611447907759E-011
  0.12640000000000001         -3.1069371655312871E-011
  0.12750000000000003         -2.6510029557012152E-011
  0.12860000000000002         -1.1591141231951271E-011
  0.12970000000000001          1.1160865194918182E-011
  0.13080000000000003          3.6091522684151948E-011
  0.13190000000000002          5.5719869854351503E-011
  0.13300000000000001          6.2848364606155103E-011
  0.13410000000000000          5.2883387178708267E-011
  0.13520000000000004          2.5622000356076389E-011
  0.13630000000000003         -1.4142419487913583E-011
  0.13740000000000002         -5.7507650673804955E-011
  0.13850000000000001         -9.3674224375634277E-011
  0.13960000000000000         -1.1284477155017002E-010
  0.14070000000000005         -1.0889509321358027E-010
  0.14180000000000004         -8.0935477065867501E-011
  0.14290000000000003         -3.3251677219078314E-011
  0.14400000000000002          2.6286066603602415E-011
  0.14510000000000001          8.8646063819849758E-011
  0.14620000000000000          1.4582138272636607E-010
  0.14730000000000004          1.9177866050561406E-010
  0.14840000000000003          2.2171701429635124E-010
  0.14950000000000002          2.3005096682657150E-010
  0.15060000000000001          2.0838141639865013E-010
  0.15170000000000000          1.4514689677131720E-010
  0.15280000000000005          2.8344378905034965E-011
  0.15390000000000004         -1.4838688596335168E-010
  0.15500000000000003         -3.7763720265056843E-010
  0.15610000000000002         -6.3092648711645840E-010
  0.15720000000000001         -8.5590559525658203E-010
  0.15830000000000000         -9.8122995862436675E-010
  0.15940000000000004         -9.3032733347609358E-010
  0.16050000000000003         -6.4230999755898435E-010
  0.16160000000000002         -9.5207519242896103E-011
  0.16270000000000001          6.7531466258849060E-010
  0.16380000000000000          1.5685743970663515E-009
  0.16490000000000005          2.4272597601405458E-009
  0.16600000000000004          3.0617554310845720E-009
  0.16710000000000003          3.2857560896571140E-009
  0.16820000000000002          2.9548321426663710E-009
  0.16930000000000001          1.9985370972252312E-009
  0.17040000000000000          4.3877012070523862E-010
  0.17150000000000004         -1.6081763684429713E-009
  0.17260000000000003         -3.9429292405689349E-009
  0.17370000000000002         -6.3007025822522501E-009
  0.17480000000000001         -8.3676816578134549E-009
  0.17590000000000000         -9.7919598197178497E-009
  0.17700000000000005         -1.0191337623186783E-008
  0.17810000000000004         -9.1671422934407085E-009
  0.17920000000000003         -6.3370707976323330E-009
  0.18030000000000002         -1.3981718007810712E-009
  0.18140000000000001          5.7772522634590421E-009
  0.18250000000000000          1.5022960291789747E-008
  0.18360000000000004          2.5760615869381172E-008
  0.18470000000000003          3.6913485233313737E-008
  0.18580000000000002          4.6881648623985319E-008
  0.18690000000000001          5.3595284234061245E-008
  0.18800000000000000          5.4640494836515343E-008
  0.18910000000000005          4.7427076288934217E-008
  0.19020000000000004          2.9347838499220772E-008
  0.19130000000000003         -2.1279384162621867E-009
  0.19240000000000002         -4.9474745983897748E-008
  0.19350000000000001         -1.1526774440947369E-007
  0.19460000000000005         -2.0246670415757893E-007
  0.19570000000000004         -3.1478727328106770E-007
  0.19680000000000003         -4.5710355222962386E-007
  0.19790000000000002         -6.3582997720267425E-007
  0.19900000000000001         -8.5925449432283726E-007
  0.20010000000000000         -1.1378335408175618E-006
  0.20120000000000005         -1.4844954892457492E-006
  0.20230000000000004         -1.9150245083462610E-006
  0.20340000000000003         -2.4485971475443386E-006
  0.20450000000000002         -3.1085195537769321E-006
  0.20560000000000000         -3.9231747999740232E-006
  0.20670000000000005         -4.9271435163240779E-006
  0.20780000000000004         -6.1624332229292943E-006
  0.20890000000000003         -7.6797586524913537E-006
  0.21000000000000002         -9.5398378503111520E-006
  0.21110000000000001         -1.1814733451477591E-005
  0.21220000000000000         -1.4589322619364978E-005
  0.21330000000000005         -1.7963025410609507E-005
  0.21440000000000003         -2.2051924071134603E-005
  0.21550000000000002         -2.6991378751937494E-005
  0.21660000000000001         -3.2939175304480707E-005
  0.21770000000000000         -4.0079152083577977E-005
  0.21880000000000005         -4.8625189704379798E-005
  0.21990000000000004         -5.8825445218061847E-005
  0.22100000000000003         -7.0966643855385184E-005
  0.22210000000000002         -8.5378429322845376E-005
  0.22320000000000001         -1.0243773604949334E-004
  0.22430000000000000         -1.2257327445888336E-004
  0.22540000000000004         -1.4627025879340261E-004
  0.22650000000000003         -1.7407542471290164E-004
  0.22760000000000002         -2.0660237298880619E-004
  0.22870000000000001         -2.4453706062011442E-004
  0.22980000000000000         -2.8864336254419166E-004
  0.23090000000000005         -3.3976835152156636E-004
  0.23200000000000004         -3.9884690875353565E-004
  0.23310000000000003         -4.6690569565607863E-004
  0.23420000000000002         -5.4506612083151317E-004
  0.23530000000000001         -6.3454620032624837E-004
  0.23640000000000000         -7.3666127955826478E-004
  0.23750000000000004         -8.5282350197909626E-004
  0.23860000000000003         -9.8453994866785520E-004
  0.23970000000000002         -1.1334084851544611E-003
  0.24080000000000001         -1.3011120606025656E-003
  0.24190000000000000         -1.4894095839874115E-003
  0.24300000000000005         -1.7001241051105682E-003
  0.24410000000000004         -1.9351275803816746E-003
  0.24520000000000003         -2.1963217326603913E-003
  0.24630000000000002         -2.4856155592390384E-003
  0.24740000000000001         -2.8048994175374114E-003
  0.24850000000000005         -3.1560153259265517E-003
  0.24960000000000004         -3.5407242634227991E-003
  0.25070000000000003         -3.9606697282772874E-003
  0.25180000000000002         -4.4173379097781447E-003
  0.25290000000000001         -4.9120150251916574E-003
  0.25400000000000000         -5.4457406716819853E-003
  0.25510000000000005         -6.0192585472069026E-003
  0.25620000000000004         -6.6329644924532985E-003
  0.25730000000000003         -7.2868537923918598E-003
  0.25840000000000002         -7.9804666366129207E-003
  0.25950000000000001         -8.7128381322628332E-003
  0.26060000000000005         -9.4824458662871140E-003
  0.26170000000000004         -1.0287162870258569E-002
  0.26280000000000003         -1.1124216533603877E-002
  0.26390000000000002         -1.1990148407732552E-002
  0.26500000000000001         -1.2880782783014185E-002
  0.26610000000000000         -1.3791202995093156E-002
  0.26720000000000005         -1.4715734904201808E-002
  0.26830000000000004         -1.5647944143748975E-002
  0.26940000000000003         -1.6580644948899236E-002
  0.27050000000000002         -1.7505919446009981E-002
  0.27160000000000001         -1.8415158313669647E-002
  0.27270000000000005         -1.9299108518631390E-002
  0.27380000000000004         -2.0147942554427346E-002
  0.27490000000000003         -2.0951344048343666E-002
  0.27600000000000002         -2.1698594852771230E-002
  0.27710000000000001         -2.2378694679041057E-002
  0.27820000000000000         -2.2980477147173960E-002
  0.27930000000000005         -2.3492751790612436E-002
  0.28040000000000004         -2.3904448485611678E-002
  0.28150000000000003         -2.4204782259855950E-002
  0.28260000000000002         -2.4383416880871402E-002
  0.28370000000000001         -2.4430638138116814E-002
  0.28480000000000005         -2.4337531533315138E-002
  0.28590000000000004         -2.4096155388676120E-002
  0.28700000000000003         -2.3699709828172821E-002
  0.28810000000000002         -2.3142699886609257E-002
  0.28920000000000001         -2.2421080555747284E-002
  0.29030000000000000         -2.1532391096726340E-002
  0.29140000000000005         -2.0475869975457684E-002
  0.29250000000000004         -1.9252550327738448E-002
  0.29360000000000003         -1.7865329965850451E-002
  0.29470000000000002         -1.6319022007959691E-002
  0.29580000000000001         -1.4620375363662494E-002
  0.29690000000000005         -1.2778063214924850E-002
  0.29800000000000004         -1.0802645498411888E-002
  0.29910000000000003         -8.7064921806348870E-003
  0.30020000000000002         -6.5036794035708920E-003
  0.30130000000000001         -4.2098528654662456E-003
  0.30240000000000000         -1.8420604427114356E-003
  0.30350000000000005          5.8143716916474446E-004
  0.30460000000000004          3.0413834378993595E-003
  0.30570000000000003          5.5177578805490034E-003
  0.30680000000000002          7.9900256060129599E-003
  0.30790000000000001          1.0437396771478405E-002
  0.30900000000000005          1.2839097440949139E-002
  0.31010000000000004          1.5174642199603700E-002
  0.31120000000000003          1.7424111838011656E-002
  0.31230000000000002          1.9568418286423885E-002
  0.31340000000000001          2.1589564611952897E-002
  0.31450000000000006          2.3470880672753179E-002
  0.31560000000000005          2.5197247265600090E-002
  0.31670000000000004          2.6755282732926378E-002
  0.31780000000000003          2.8133512544196472E-002
  0.31890000000000002          2.9322505722301953E-002
  0.32000000000000001          3.0314974308922729E-002
  0.32110000000000005          3.1105841166656517E-002
  0.32220000000000004          3.1692275810431367E-002
  0.32330000000000003          3.2073689704212052E-002
  0.32440000000000002          3.2251704135476511E-002
  0.32550000000000001          3.2230079028990333E-002
  0.32660000000000006          3.2014604970241889E-002
  0.32770000000000005          3.1612984398414104E-002
  0.32880000000000004          3.1034657471745143E-002
  0.32990000000000003          3.0290632777924410E-002
  0.33100000000000002          2.9393294560475958E-002
  0.33210000000000001          2.8356179863143288E-002
  0.33320000000000005          2.7193769141306286E-002
  0.33430000000000004          2.5921256107685420E-002
  0.33540000000000003          2.4554321483412241E-002
  0.33650000000000002          2.3108908169984396E-002
  0.33760000000000001          2.1600996395512016E-002
  0.33870000000000006          2.0046394850981385E-002
  0.33980000000000005          1.8460543871740023E-002
  0.34090000000000004          1.6858331599064531E-002
  0.34200000000000003          1.5253936693190480E-002
  0.34310000000000002          1.3660693315081338E-002
  0.34420000000000001          1.2090970633055986E-002
  0.34530000000000005          1.0556079039195728E-002
  0.34640000000000004          9.0661980041167999E-003
  0.34750000000000003          7.6303233382046028E-003
  0.34860000000000002          6.2562387600293198E-003
  0.34970000000000001          4.9505029391521118E-003
  0.35080000000000006          3.7184585630669247E-003
  0.35190000000000005          2.5642575177504765E-003
  0.35300000000000004          1.4909039495586938E-003
  0.35410000000000003          5.0031152456233782E-004
  0.35520000000000002         -4.0662344479324699E-004
  0.35630000000000001         -1.2299407849331273E-003
  0.35740000000000005         -1.9705263100328585E-003
  0.35850000000000004         -2.6300216869573670E-003
  0.35960000000000003         -3.2107333790361561E-003
  0.36070000000000002         -3.7155431461959503E-003
  0.36180000000000001         -4.1478200450642648E-003
  0.36290000000000006         -4.5113331010000523E-003
  0.36400000000000005         -4.8101649918973095E-003
  0.36510000000000004         -5.0486285084901470E-003
  0.36620000000000003         -5.2311895905965168E-003
  0.36730000000000002         -5.3623950846326957E-003
  0.36840000000000006         -5.4468097085758182E-003
  0.36950000000000005         -5.4889597001591683E-003
  0.37060000000000004         -5.4932840148371803E-003
  0.37170000000000003         -5.4640936435091832E-003
  0.37280000000000002         -5.4055384493674682E-003
  0.37390000000000001         -5.3215808825500697E-003
  0.37500000000000006         -5.2159750026903404E-003
  0.37610000000000005         -5.0922486954625892E-003
  0.37720000000000004         -4.9536902372054152E-003
  0.37830000000000003         -4.8033370439749682E-003
  0.37940000000000002         -4.6439707959748319E-003
  0.38050000000000006         -4.4781151753872026E-003
  0.38160000000000005         -4.3080398209021584E-003
  0.38270000000000004         -4.1357680071186396E-003
  0.38380000000000003         -3.9630847258013569E-003
  0.38490000000000002         -3.7915465423937183E-003
  0.38600000000000001         -3.6224912400184663E-003
  0.38710000000000000         -3.4570459255458940E-003
  0.38819999999999999         -3.2961376190837515E-003
  0.38930000000000009         -3.1405044862769125E-003
  0.39040000000000008         -2.9907090892271676E-003
  0.39150000000000007         -2.8471536526331960E-003
  0.39260000000000006         -2.7100959155791681E-003
  0.39370000000000005         -2.5796655506383328E-003
  0.39480000000000004         -2.4558815619070504E-003
  0.39590000000000003         -2.3386691917960194E-003
  0.39700000000000002         -2.2278764491790665E-003
  0.39810000000000001         -2.1232874327670758E-003
  0.39920000000000000         -2.0246350320324577E-003
  0.40029999999999999         -1.9316112291721749E-003
  0.40140000000000009         -1.8438771233007792E-003
  0.40250000000000008         -1.7610744751887443E-003
  0.40360000000000007         -1.6828373706572228E-003
  0.40470000000000006         -1.6088044315806268E-003
  0.40580000000000005         -1.5386294938540470E-003
  0.40690000000000004         -1.4719898622550774E-003
  0.40800000000000003         -1.4085923635202590E-003
  0.40910000000000002         -1.3481760303072927E-003
  0.41020000000000001         -1.2905144224949596E-003
  0.41130000000000000         -1.2354156505495562E-003
  0.41239999999999999         -1.1827219981006790E-003
  0.41350000000000009         -1.1323075413400075E-003
  0.41460000000000008         -1.0840748022840037E-003
  0.41570000000000007         -1.0379505883997514E-003
  0.41680000000000006         -9.9388186607816324E-004
  0.41790000000000005         -9.5183181815332524E-004
  0.41900000000000004         -9.1177643968185255E-004
  0.42010000000000003         -8.7369959017593517E-004
  0.42120000000000002         -8.3758736833882655E-004
  0.42230000000000001         -8.0342151314403726E-004
  0.42340000000000000         -7.7117347177622160E-004
  0.42449999999999999         -7.4080063417854866E-004
  0.42560000000000009         -7.1224458007978890E-004
  0.42670000000000008         -6.8543132333785748E-004
  0.42780000000000007         -6.6027162861292282E-004
  0.42890000000000006         -6.3666085590529612E-004
  0.43000000000000005         -6.1447801815074882E-004
  0.43110000000000004         -5.9358457598587420E-004
  0.43220000000000003         -5.7382467068662095E-004
  0.43330000000000002         -5.5502722422016634E-004
  0.43440000000000001         -5.3700964014646716E-004
  0.43550000000000000         -5.1958200689384410E-004
  0.43659999999999999         -5.0255039408296487E-004
  0.43770000000000009         -4.8571892762981443E-004
  0.43880000000000008         -4.6889046666176556E-004
  0.43990000000000007         -4.5186604117050362E-004
  0.44100000000000006         -4.3444353014233841E-004
  0.44210000000000005         -4.1641528957507752E-004
  0.44320000000000004         -3.9756424765472950E-004
  0.44430000000000003         -3.7765822872246031E-004
  0.44540000000000002         -3.5644288862910796E-004
  0.44650000000000001         -3.3363384516057841E-004
  0.44760000000000000         -3.0890812583845353E-004
  0.44869999999999999         -2.8189512456895872E-004
  0.44980000000000009         -2.5216652207086664E-004
  0.45090000000000008         -2.1922472059068512E-004
  0.45200000000000007         -1.8248969562072631E-004
  0.45310000000000006         -1.4128528129857395E-004
  0.45420000000000005         -9.4825362346565880E-005
  0.45530000000000004         -4.2200959172472374E-005
  0.45640000000000003          1.7631487240554362E-005
  0.45750000000000002          8.5860827267933323E-005
  0.45860000000000001          1.6383102280534168E-004
  0.45970000000000000          2.5304979109763096E-004
  0.46079999999999999          3.5519567564818268E-004
  0.46190000000000009          4.7212329467683737E-004
  0.46300000000000008          6.0586615786060885E-004
  0.46410000000000007          7.5863756116058712E-004
  0.46520000000000006          9.3282910241367122E-004
  0.46630000000000005          1.1310068700518558E-003
  0.46740000000000004          1.3559041031830240E-003
  0.46850000000000003          1.6104103641055708E-003
  0.46960000000000002          1.8975561793386705E-003
  0.47070000000000001          2.2204937568578980E-003
  0.47180000000000000          2.5824735378568251E-003
  0.47289999999999999          2.9868179714252758E-003
  0.47400000000000009          3.4368909058693298E-003
  0.47510000000000008          3.9360625140742846E-003
  0.47620000000000007          4.4876683683127078E-003
  0.47730000000000006          5.0949606073912006E-003
  0.47840000000000005          5.7610525043204023E-003