-0.1200000E+00  0.0000000E+00
-0.1189000E+00  0.0000000E+00
-0.1178000E+00  0.0000000E+00
-0.1167000E+00  0.0000000E+00
-0.1156000E+00  0.0000000E+00
-0.1145000E+00  0.0000000E+00
-0.1134000E+00  0.0000000E+00
-0.1123000E+00  0.0000000E+00
-0.1112000E+00  0.0000000E+00
-0.1101000E+00  0.0000000E+00
-0.1090000E+00  0.0000000E+00
-0.1079000E+00  0.0000000E+00
-0.1068000E+00  0.0000000E+00
-0.1057000E+00  0.0000000E+00
-0.1046000E+00  0.0000000E+00
-0.1035000E+00  0.0000000E+00
-0.1024000E+00  0.0000000E+00
-0.1013000E+00  0.0000000E+00
-0.1002000E+00  0.0000000E+00
-0.9910000E-01  0.0000000E+00
-0.9800000E-01  0.0000000E+00
-0.9690000E-01  0.0000000E+00
-0.9580000E-01  0.0000000E+00
-0.9470000E-01  0.0000000E+00
-0.9360000E-01  0.0000000E+00
-0.9250000E-01  0.0000000E+00
-0.9140000E-01  0.0000000E+00
-0.9030000E-01  0.0000000E+00
-0.8920000E-01  0.0000000E+00
-0.8810000E-01  0.0000000E+00
-0.8700000E-01  0.0000000E+00
-0.8590000E-01  0.0000000E+00
-0.8480000E-01  0.0000000E+00
-0.8370000E-01  0.0000000E+00
-0.8260000E-01  0.0000000E+00
-0.8150000E-01  0.0000000E+00
-0.8040000E-01  0.0000000E+00
-0.7930000E-01  0.0000000E+00
-0.7820000E-01  0.0000000E+00
-0.7710000E-01  0.0000000E+00
-0.7600000E-01  0.0000000E+00
-0.7490000E-01  0.0000000E+00
-0.7380000E-01  0.0000000E+00
-0.7270000E-01  0.0000000E+00
-0.7160000E-01  0.0000000E+00
-0.7050000E-01  0.0000000E+00
-0.6940000E-01  0.0000000E+00
-0.6830000E-01  0.0000000E+00
-0.6720000E-01  0.0000000E+00
-0.6610000E-01  0.0000000E+00
-0.6500000E-01  0.0000000E+00
-0.6390000E-01  0.0000000E+00
-0.6280000E-01  0.0000000E+00
-0.6170000E-01  0.0000000E+00
-0.6060000E-01  0.0000000E+00
-0.5950000E-01  0.0000000E+00
-0.5840000E-01  0.0000000E+00
-0.5730000E-01  0.0000000E+00
-0.5620000E-01  0.0000000E+00
-0.5510000E-01  0.0000000E+00
-0.5400000E-01  0.0000000E+00
-0.5290000E-01  0.0000000E+00
-0.5180000E-01  0.0000000E+00
-0.5070000E-01  0.0000000E+00
-0.4960000E-01  0.0000000E+00
-0.4850000E-01  0.0000000E+00
-0.4740000E-01  0.0000000E+00
-0.4630000E-01  0.0000000E+00
-0.4520000E-01  0.0000000E+00
-0.4410000E-01  0.0000000E+00
-0.4300000E-01  0.0000000E+00
-0.4190000E-01  0.0000000E+00
-0.4080000E-01  0.0000000E+00
-0.3970000E-01  0.0000000E+00
-0.3860000E-01  0.0000000E+00
-0.3750000E-01  0.0000000E+00
-0.3640000E-01  0.0000000E+00
-0.3530000E-01  0.0000000E+00
-0.3420000E-01  0.0000000E+00
-0.3310000E-01  0.0000000E+00
-0.3200000E-01  0.0000000E+00
-0.3090000E-01  0.0000000E+00
-0.2980000E-01  0.0000000E+00
-0.2870000E-01  0.0000000E+00
-0.2760000E-01  0.0000000E+00
-0.2650000E-01  0.0000000E+00
-0.2540000E-01  0.0000000E+00
-0.2430000E-01  0.0000000E+00
-0.2320000E-01  0.0000000E+00
-0.2210000E-01  0.0000000E+00
-0.2100000E-01  0.0000000E+00
-0.1990000E-01  0.0000000E+00
-0.1880000E-01  0.0000000E+00
-0.1770000E-01  0.0000000E+00
-0.1660000E-01  0.0000000E+00
-0.1550000E-01  0.0000000E+00
-0.1440000E-01  0.0000000E+00
-0.1330000E-01  0.0000000E+00
-0.1220000E-01  0.0000000E+00
-0.1110000E-01  0.0000000E+00
-0.1000000E-01  0.0000000E+00
-0.8900000E-02  0.0000000E+00
-0.7800000E-02  0.0000000E+00
-0.6700000E-02  0.0000000E+00
-0.5600000E-02  0.0000000E+00
-0.4500000E-02  0.0000000E+00
-0.3400000E-02  0.0000000E+00
-0.2300000E-02  0.0000000E+00
-0.1200000E-02  0.0000000E+00
-0.1000000E-03  0.0000000E+00
 0.1000000E-02  0.0000000E+00
 0.2100000E-02  0.0000000E+00
 0.3200000E-02  0.0000000E+00
 0.4300000E-02  0.0000000E+00
 0.5400000E-02  0.0000000E+00
 0.6500000E-02  0.0000000E+00
 0.7600000E-02  0.0000000E+00
 0.8700000E-02  0.0000000E+00
 0.9800000E-02  0.0000000E+00
 0.1090000E-01  0.0000000E+00
 0.1200000E-01  0.0000000E+00
 0.1310000E-01  0.0000000E+00
 0.1420000E-01  0.0000000E+00
 0.1530000E-01  0.0000000E+00
 0.1640000E-01  0.0000000E+00
 0.1750000E-01  0.0000000E+00
 0.1860000E-01  0.0000000E+00
 0.1970000E-01  0.0000000E+00
 0.2080000E-01  0.0000000E+00
 0.2190000E-01  0.0000000E+00
 0.2300000E-01  0.0000000E+00
 0.2410000E-01  0.0000000E+00
 0.2520000E-01  0.0000000E+00
 0.2630000E-01  0.0000000E+00
 0.2740000E-01  0.0000000E+00
 0.2850000E-01  0.0000000E+00
 0.2960000E-01  0.0000000E+00
 0.3070000E-01  0.0000000E+00
 0.3180000E-01  0.0000000E+00
 0.3290000E-01  0.0000000E+00
 0.3400000E-01  0.0000000E+00
 0.3510000E-01  0.0000000E+00
 0.3620000E-01 -0.0000000E+00
 0.3730000E-01 -0.2941848E-37
 0.3840000E-01 -0.4243975E-37
 0.3950000E-01 -0.2242116E-37
 0.4060000E-01  0.0000000E+00
 0.4170000E-01  0.0000000E+00
 0.4280000E-01  0.0000000E+00
 0.4390000E-01  0.3569861E-37
 0.4500000E-01  0.9587736E-37
 0.4610000E-01  0.9968829E-37
 0.4720000E-01 -0.8737309E-37
 0.4830000E-01 -0.4943170E-36
 0.4940000E-01 -0.9566833E-36
 0.5050000E-01 -0.1092620E-35
 0.5160000E-01 -0.4497535E-36
 0.5270000E-01  0.1239701E-35
 0.5380000E-01  0.3678885E-35
 0.5490000E-01  0.5735869E-35
 0.5600000E-01  0.5553814E-35
 0.5710000E-01  0.1215273E-35
 0.5820000E-01 -0.7943421E-35
 0.5930000E-01 -0.1980183E-34
 0.6040000E-01 -0.2853298E-34
 0.6150000E-01 -0.2543980E-34
 0.6260000E-01 -0.2441004E-35
 0.6370000E-01  0.4192475E-34
 0.6480000E-01  0.9599574E-34
 0.6590000E-01  0.1319472E-33
 0.6700000E-01  0.1110768E-33
 0.6810000E-01  0.5925916E-36
 0.6920000E-01 -0.2000727E-33
 0.7030000E-01 -0.4332706E-33
 0.7140000E-01 -0.5747819E-33
 0.7250000E-01 -0.4621901E-33
 0.7360000E-01  0.3029040E-34
 0.7470000E-01  0.8835693E-33
 0.7580000E-01  0.1836346E-32
 0.7690000E-01  0.2368858E-32
 0.7800000E-01  0.1837654E-32
 0.7910000E-01 -0.2136123E-33
 0.8020000E-01 -0.3635443E-32
 0.8130000E-01 -0.7329997E-32
 0.8240000E-01 -0.9251263E-32
 0.8350000E-01 -0.6987356E-32
 0.8460000E-01  0.1029813E-32
 0.8570000E-01  0.1399687E-31
 0.8680000E-01  0.2760654E-31
 0.8790000E-01  0.3426058E-31
 0.8900000E-01  0.2539324E-31
 0.9010000E-01 -0.4099539E-32
 0.9120000E-01 -0.5059617E-31
 0.9230000E-01 -0.9823635E-31
 0.9340000E-01 -0.1203478E-30
 0.9450000E-01 -0.8808647E-31
 0.9560000E-01  0.1426836E-31
 0.9670000E-01  0.1721671E-30
 0.9780000E-01  0.3306003E-30
 0.9890000E-01  0.4009465E-30
 0.1000000E+00  0.2910918E-30
 0.1011000E+00 -0.4466573E-31
 0.1022000E+00 -0.5527984E-30
 0.1033000E+00 -0.1053092E-29
 0.1044000E+00 -0.1266548E-29
 0.1055000E+00 -0.9142240E-30
 0.1066000E+00  0.1287112E-30
 0.1077000E+00  0.1679156E-29
 0.1088000E+00  0.3178110E-29
 0.1099000E+00  0.3792564E-29
 0.1110000E+00  0.2721825E-29
 0.1121000E+00 -0.3520136E-30
 0.1132000E+00 -0.4840743E-29
 0.1143000E+00 -0.9098746E-29
 0.1154000E+00 -0.1076490E-28
 0.1165000E+00 -0.7661638E-29
 0.1176000E+00  0.9559732E-30
 0.1187000E+00  0.1330003E-28
 0.1198000E+00  0.2476119E-28
 0.1209000E+00  0.2897781E-28
 0.1220000E+00  0.2034127E-28
 0.1231000E+00 -0.2714697E-29
 0.1242000E+00 -0.3501703E-28
 0.1253000E+00 -0.6424608E-28
 0.1264000E+00 -0.7407901E-28
 0.1275000E+00 -0.5083806E-28
 0.1286000E+00  0.8270937E-29
 0.1297000E+00  0.8892953E-28
 0.1308000E+00  0.1596127E-27
 0.1319000E+00  0.1803371E-27
 0.1330000E+00  0.1195082E-27
 0.1341000E+00 -0.2640792E-28
 0.1352000E+00 -0.2193545E-27
 0.1363000E+00 -0.3818159E-27
 0.1374000E+00 -0.4199747E-27
 0.1385000E+00 -0.2646112E-27
 0.1396000E+00  0.8399709E-28
 0.1407000E+00  0.5284833E-27
 0.1418000E+00  0.8850316E-27
 0.1429000E+00  0.9418946E-27
 0.1440000E+00  0.5548012E-27
 0.1451000E+00 -0.2547392E-27
 0.1462000E+00 -0.1246737E-26
 0.1473000E+00 -0.1999507E-26
 0.1484000E+00 -0.2051186E-26
 0.1495000E+00 -0.1114212E-26
 0.1506000E+00  0.7174384E-27
 0.1517000E+00  0.2874260E-26
 0.1528000E+00  0.4418524E-26
 0.1539000E+00  0.4372383E-26
 0.1550000E+00  0.2183532E-26
 0.1561000E+00 -0.1852528E-26
 0.1572000E+00 -0.6436749E-26
 0.1583000E+00 -0.9546806E-26
 0.1594000E+00 -0.9167134E-26
 0.1605000E+00 -0.4266738E-26
 0.1616000E+00  0.4366792E-26
 0.1627000E+00  0.1389012E-25
 0.1638000E+00  0.2007771E-25
 0.1649000E+00  0.1888217E-25
 0.1660000E+00  0.8421265E-26
 0.1671000E+00 -0.9423024E-26
 0.1682000E+00 -0.2868250E-25
 0.1693000E+00 -0.4081730E-25
 0.1704000E+00 -0.3792457E-25
 0.1715000E+00 -0.1664698E-25
 0.1726000E+00  0.1885226E-25
 0.1737000E+00  0.5653737E-25
 0.1748000E+00  0.7972968E-25
 0.1759000E+00  0.7347415E-25
 0.1770000E+00  0.3198760E-25
 0.1781000E+00 -0.3597940E-25
 0.1792000E+00 -0.1069797E-24
 0.1803000E+00 -0.1494821E-24
 0.1814000E+00 -0.1361190E-24
 0.1825000E+00 -0.5747228E-25
 0.1836000E+00  0.6857239E-25
 0.1847000E+00  0.1974818E-24
 0.1858000E+00  0.2712189E-24
 0.1869000E+00  0.2412371E-24
 0.1880000E+00  0.9339332E-25
 0.1891000E+00 -0.1362067E-24
 0.1902000E+00 -0.3642074E-24
 0.1913000E+00 -0.4855617E-24
 0.1924000E+00 -0.4159532E-24
 0.1935000E+00 -0.1360911E-24
 0.1946000E+00  0.2819681E-24
 0.1957000E+00  0.6833357E-24
 0.1968000E+00  0.8789877E-24
 0.1979000E+00  0.7230137E-24
 0.1990000E+00  0.1907034E-24
 0.2001000E+00 -0.5778421E-24
 0.2012000E+00 -0.1297374E-23
 0.2023000E+00 -0.1627964E-23
 0.2034000E+00 -0.1313732E-23
 0.2045000E+00 -0.3197954E-24
 0.2056000E+00  0.1094440E-23
 0.2067000E+00  0.2414495E-23
 0.2078000E+00  0.3033247E-23
 0.2089000E+00  0.2495041E-23
 0.2100000E+00  0.7335464E-24
 0.2111000E+00 -0.1803003E-23
 0.2122000E+00 -0.4221227E-23
 0.2133000E+00 -0.5462336E-23
 0.2144000E+00 -0.4719173E-23
 0.2155000E+00 -0.1840592E-23
 0.2166000E+00  0.2455317E-23
 0.2177000E+00  0.6694288E-23
 0.2188000E+00  0.9108174E-23
 0.2199000E+00  0.8322496E-23
 0.2210000E+00  0.4020657E-23
 0.2221000E+00 -0.2706654E-23
 0.2232000E+00 -0.9543123E-23
 0.2243000E+00 -0.1369017E-22
 0.2254000E+00 -0.1296482E-22
 0.2265000E+00 -0.6848231E-23
 0.2276000E+00  0.2980169E-23
 0.2287000E+00  0.1295762E-22
 0.2298000E+00  0.1883384E-22
 0.2309000E+00  0.1739964E-22
 0.2320000E+00  0.8096266E-23
 0.2331000E+00 -0.6227550E-23
 0.2342000E+00 -0.1991842E-22
 0.2353000E+00 -0.2649394E-22
 0.2364000E+00 -0.2140108E-22
 0.2375000E+00 -0.4498272E-23
 0.2386000E+00  0.1889938E-22
 0.2397000E+00  0.3918672E-22
 0.2408000E+00  0.4581502E-22
 0.2419000E+00  0.3182528E-22
 0.2430000E+00 -0.2157325E-23
 0.2441000E+00 -0.4633074E-22
 0.2452000E+00 -0.8375040E-22
 0.2463000E+00 -0.9591940E-22
 0.2474000E+00 -0.7033036E-22
 0.2485000E+00 -0.7190705E-23
 0.2496000E+00  0.7766462E-22
 0.2507000E+00  0.1556822E-21
 0.2518000E+00  0.1943134E-21
 0.2529000E+00  0.1691446E-21
 0.2540000E+00  0.7517971E-22
 0.2551000E+00 -0.6741513E-22
 0.2562000E+00 -0.2163818E-21
 0.2573000E+00 -0.3195443E-21
 0.2584000E+00 -0.3327726E-21
 0.2595000E+00 -0.2375900E-21
 0.2606000E+00 -0.5149705E-22
 0.2617000E+00  0.1740052E-21
 0.2628000E+00  0.3684879E-21
 0.2639000E+00  0.4664315E-21
 0.2650000E+00  0.4314369E-21
 0.2661000E+00  0.2712821E-21
 0.2672000E+00  0.3693484E-22
 0.2683000E+00 -0.1955155E-21
 0.2694000E+00 -0.3540237E-21
 0.2705000E+00 -0.3994898E-21
 0.2716000E+00 -0.3418496E-21
 0.2727000E+00 -0.2349174E-21
 0.2738000E+00 -0.1499678E-21
 0.2749000E+00 -0.1377322E-21
 0.2760000E+00 -0.1953968E-21
 0.2771000E+00 -0.2557729E-21
 0.2782000E+00 -0.2087247E-21
 0.2793000E+00  0.4808214E-22
 0.2804000E+00  0.5463617E-21
 0.2815000E+00  0.1199120E-20
 0.2826000E+00  0.1793830E-20
 0.2837000E+00  0.2041449E-20
 0.2848000E+00  0.1675083E-20
 0.2859000E+00  0.5695507E-21
 0.2870000E+00 -0.1162203E-20
 0.2881000E+00 -0.3140197E-20
 0.2892000E+00 -0.4782877E-20
 0.2903000E+00 -0.5462453E-20
 0.2914000E+00 -0.4710445E-20
 0.2925000E+00 -0.2408102E-20
 0.2936000E+00  0.1108450E-20
 0.2947000E+00  0.5077539E-20
 0.2958000E+00  0.8483133E-20
 0.2969000E+00  0.1032581E-19
 0.2980000E+00  0.9912676E-20
 0.2991000E+00  0.7072889E-20
 0.3002000E+00  0.2226844E-20
 0.3013000E+00 -0.3714132E-20
 0.3024000E+00 -0.9580747E-20
 0.3035000E+00 -0.1422772E-19
 0.3046000E+00 -0.1676687E-19
 0.3057000E+00 -0.1668014E-19
 0.3068000E+00 -0.1380018E-19
 0.3079000E+00 -0.8212455E-20
 0.3090000E+00 -0.1763148E-21
 0.3101000E+00  0.9842674E-20
 0.3112000E+00  0.2099672E-19
 0.3123000E+00  0.3180094E-19
 0.3134000E+00  0.3995880E-19
 0.3145000E+00  0.4247120E-19
 0.3156000E+00  0.3618756E-19
 0.3167000E+00  0.1881593E-19
 0.3178000E+00 -0.9797955E-20
 0.3189000E+00 -0.4651789E-19
 0.3200000E+00 -0.8440304E-19
 0.3211000E+00 -0.1133009E-18
 0.3222000E+00 -0.1217782E-18
 0.3233000E+00 -0.1002222E-18
 0.3244000E+00 -0.4448155E-19
 0.3255000E+00  0.4096825E-19
 0.3266000E+00  0.1415041E-18
 0.3277000E+00  0.2334683E-18
 0.3288000E+00  0.2883631E-18
 0.3299000E+00  0.2797520E-18
 0.3310000E+00  0.1915781E-18
 0.3321000E+00  0.2584375E-19
 0.3332000E+00 -0.1927652E-18
 0.3343000E+00 -0.4174859E-18
 0.3354000E+00 -0.5865832E-18
 0.3365000E+00 -0.6367251E-18
 0.3376000E+00 -0.5205903E-18
 0.3387000E+00 -0.2249310E-18
 0.3398000E+00  0.2158616E-18
 0.3409000E+00  0.7158021E-18
 0.3420000E+00  0.1146889E-17
 0.3431000E+00  0.1363535E-17
 0.3442000E+00  0.1239395E-17
 0.3453000E+00  0.7099163E-18
 0.3464000E+00 -0.1898163E-18
 0.3475000E+00 -0.1304309E-17
 0.3486000E+00 -0.2365441E-17
 0.3497000E+00 -0.3035761E-17
 0.3508000E+00 -0.2986239E-17
 0.3519000E+00 -0.1996972E-17
 0.3530000E+00 -0.5877634E-19
 0.3541000E+00  0.2554041E-17
 0.3552000E+00  0.5270911E-17
 0.3563000E+00  0.7296123E-17
 0.3574000E+00  0.7770899E-17
 0.3585000E+00  0.6008934E-17
 0.3596000E+00  0.1760319E-17
 0.3607000E+00 -0.4564647E-17
 0.3618000E+00 -0.1179119E-16
 0.3629000E+00 -0.1806599E-16
 0.3640000E+00 -0.2117146E-16
 0.3651000E+00 -0.1905263E-16
 0.3662000E+00 -0.1047385E-16
 0.3673000E+00  0.4341758E-17
 0.3684000E+00  0.2327987E-16
 0.3695000E+00  0.4230101E-16
 0.3706000E+00  0.5594466E-16
 0.3717000E+00  0.5840317E-16
 0.3728000E+00  0.4504739E-16
 0.3739000E+00  0.1412220E-16
 0.3750000E+00 -0.3180486E-16
 0.3761000E+00 -0.8512091E-16
 0.3772000E+00 -0.1335995E-15
 0.3783000E+00 -0.1622324E-15
 0.3794000E+00 -0.1564054E-15
 0.3805000E+00 -0.1059792E-15
 0.3816000E+00 -0.9467413E-17
 0.3827000E+00  0.1227742E-15
 0.3838000E+00  0.2674913E-15
 0.3849000E+00  0.3905412E-15
 0.3860000E+00  0.4523769E-15
 0.3871000E+00  0.4166350E-15
 0.3882000E+00  0.2605496E-15
 0.3893000E+00 -0.1493252E-16
 0.3904000E+00 -0.3779992E-15
 0.3915000E+00 -0.7644749E-15
 0.3926000E+00 -0.1084026E-14
 0.3937000E+00 -0.1234777E-14
 0.3948000E+00 -0.1125176E-14
 0.3959000E+00 -0.6997995E-15
 0.3970000E+00  0.3607518E-16
 0.3981000E+00  0.9994851E-15
 0.3992000E+00  0.2026664E-14
 0.4003000E+00  0.2888480E-14
 0.4014000E+00  0.3325994E-14
 0.4025000E+00  0.3103345E-14
 0.4036000E+00  0.2070343E-14
 0.4047000E+00  0.2228160E-15
 0.4058000E+00 -0.2253943E-14
 0.4069000E+00 -0.4973293E-14
 0.4080000E+00 -0.7378288E-14
 0.4091000E+00 -0.8820231E-14
 0.4102000E+00 -0.8679850E-14
 0.4113000E+00 -0.6515382E-14
 0.4124000E+00 -0.2211798E-14
 0.4135000E+00  0.3901474E-14
 0.4146000E+00  0.1099848E-13
 0.4157000E+00  0.1779896E-13
 0.4168000E+00  0.2272044E-13
 0.4179000E+00  0.2413639E-13
 0.4190000E+00  0.2071310E-13
 0.4201000E+00  0.1177472E-13
 0.4212000E+00 -0.2372739E-14
 0.4223000E+00 -0.2023615E-13
 0.4234000E+00 -0.3912152E-13
 0.4245000E+00 -0.5536362E-13
 0.4256000E+00 -0.6481441E-13
 0.4267000E+00 -0.6355808E-13
 0.4278000E+00 -0.4876755E-13
 0.4289000E+00 -0.1956858E-13
 0.4300000E+00  0.2225625E-13
 0.4311000E+00  0.7190169E-13
 0.4322000E+00  0.1216686E-12
 0.4333000E+00  0.1616880E-12
 0.4344000E+00  0.1812523E-12
 0.4355000E+00  0.1706568E-12
 0.4366000E+00  0.1233323E-12
 0.4377000E+00  0.3794521E-13
 0.4388000E+00 -0.7993275E-13
 0.4399000E+00 -0.2170048E-12
 0.4410000E+00 -0.3526442E-12
 0.4421000E+00 -0.4607441E-12
 0.4432000E+00 -0.5130574E-12
 0.4443000E+00 -0.4838079E-12
 0.4454000E+00 -0.3550713E-12
 0.4465000E+00 -0.1221666E-12
 0.4476000E+00  0.2018978E-12
 0.4487000E+00  0.5839485E-12
 0.4498000E+00  0.9710871E-12
 0.4509000E+00  0.1294721E-11
 0.4520000E+00  0.1478415E-11
 0.4531000E+00  0.1449189E-11
 0.4542000E+00  0.1151223E-11
 0.4553000E+00  0.5602328E-12
 0.4564000E+00 -0.3037533E-12
 0.4575000E+00 -0.1367783E-11
 0.4586000E+00 -0.2504077E-11
 0.4597000E+00 -0.3536868E-11
 0.4608000E+00 -0.4259102E-11
 0.4619000E+00 -0.4458755E-11
 0.4630000E+00 -0.3952905E-11
 0.4641000E+00 -0.2625952E-11
 0.4652000E+00 -0.4668168E-12
 0.4663000E+00  0.2401145E-11
 0.4674000E+00  0.5704175E-11
 0.4685000E+00  0.9022158E-11
 0.4696000E+00  0.1181705E-10
 0.4707000E+00  0.1348734E-10
 0.4718000E+00  0.1344649E-10
 0.4729000E+00  0.1121914E-10
 0.4740000E+00  0.6544717E-11
 0.4751000E+00 -0.5256670E-12
 0.4762000E+00 -0.9555248E-11
 0.4773000E+00 -0.1968729E-10
 0.4784000E+00 -0.2966515E-10
 0.4795000E+00 -0.3791683E-10
 0.4806000E+00 -0.4270722E-10
 0.4817000E+00 -0.4235192E-10
 0.4828000E+00 -0.3547670E-10
 0.4839000E+00 -0.2129638E-10
 0.4850000E+00  0.1216664E-12
 0.4861000E+00  0.2764969E-10
 0.4872000E+00  0.5898921E-10
 0.4883000E+00  0.9069558E-10
 0.4894000E+00  0.1183654E-09
 0.4905000E+00  0.1369986E-09
 0.4916000E+00  0.1415267E-09
 0.4927000E+00  0.1274761E-09
 0.4938000E+00  0.9170922E-10
 0.4949000E+00  0.3316685E-10
 0.4960000E+00 -0.4648308E-10
 0.4971000E+00 -0.1423924E-09
 0.4982000E+00 -0.2463739E-09
 0.4993000E+00 -0.3471216E-09
 0.5004000E+00 -0.4308632E-09
 0.5015000E+00 -0.4824620E-09
 0.5026000E+00 -0.4869337E-09
 0.5037000E+00 -0.4312880E-09
 0.5048000E+00 -0.3065566E-09
 0.5059000E+00 -0.1098180E-09
 0.5070000E+00  0.1540024E-09
 0.5081000E+00  0.4707955E-09
 0.5092000E+00  0.8166214E-09
 0.5103000E+00  0.1157954E-08
 0.5114000E+00  0.1452957E-08
 0.5125000E+00  0.1653849E-08
 0.5136000E+00  0.1710334E-08
 0.5147000E+00  0.1573962E-08
 0.5158000E+00  0.1203183E-08
 0.5169000E+00  0.5687918E-09
 0.5180000E+00 -0.3406155E-09
 0.5191000E+00 -0.1513565E-08
 0.5202000E+00 -0.2911383E-08
 0.5213000E+00 -0.4464932E-08
 0.5224000E+00 -0.6072622E-08
 0.5235000E+00 -0.7599724E-08
 0.5246000E+00 -0.8878880E-08
 0.5257000E+00 -0.9711477E-08
 0.5268000E+00 -0.9869354E-08
 0.5279000E+00 -0.9096143E-08
 0.5290000E+00 -0.7107376E-08
 0.5301000E+00 -0.3588377E-08
 0.5312000E+00  0.1811106E-08
 0.5323000E+00  0.9486582E-08
 0.5334000E+00  0.1989386E-07
 0.5345000E+00  0.3357033E-07
 0.5356000E+00  0.5116344E-07
 0.5367000E+00  0.7346689E-07
 0.5378000E+00  0.1014654E-06
 0.5389000E+00  0.1363886E-06
 0.5400000E+00  0.1797741E-06
 0.5411000E+00  0.2335415E-06
 0.5422000E+00  0.3000762E-06
 0.5433000E+00  0.3823261E-06
 0.5444000E+00  0.4839106E-06
 0.5455000E+00  0.6092446E-06
 0.5466000E+00  0.7636789E-06
 0.5477000E+00  0.9536597E-06
 0.5488000E+00  0.1186909E-05
 0.5499000E+00  0.1472632E-05
 0.5510000E+00  0.1821747E-05
 0.5521000E+00  0.2247150E-05
 0.5532000E+00  0.2764015E-05
 0.5543000E+00  0.3390125E-05
 0.5554000E+00  0.4146250E-05
 0.5565000E+00  0.5056558E-05
 0.5576000E+00  0.6149076E-05
 0.5587000E+00  0.7456185E-05
 0.5598000E+00  0.9015160E-05
 0.5609000E+00  0.1086875E-04
 0.5620000E+00  0.1306578E-04
 0.5631000E+00  0.1566180E-04
 0.5642000E+00  0.1871973E-04
 0.5653000E+00  0.2231055E-04
 0.5664000E+00  0.2651393E-04
 0.5675000E+00  0.3141891E-04
 0.5686000E+00  0.3712450E-04
 0.5697000E+00  0.4374023E-04
 0.5708000E+00  0.5138666E-04
 0.5719000E+00  0.6019576E-04
 0.5730000E+00  0.7031114E-04
 0.5741000E+00  0.8188823E-04
 0.5752000E+00  0.9509410E-04
 0.5763000E+00  0.1101072E-03
 0.5774000E+00  0.1271167E-03
 0.5785000E+00  0.1463219E-03
 0.5796000E+00  0.1679305E-03
 0.5807000E+00  0.1921575E-03
 0.5818000E+00  0.2192231E-03
 0.5829000E+00  0.2493501E-03
 0.5840000E+00  0.2827610E-03
 0.5851000E+00  0.3196748E-03
 0.5862000E+00  0.3603030E-03
 0.5873000E+00  0.4048453E-03
 0.5884000E+00  0.4534844E-03
 0.5895000E+00  0.5063809E-03
 0.5906000E+00  0.5636673E-03
 0.5917000E+00  0.6254418E-03
 0.5928000E+00  0.6917620E-03
 0.5939000E+00  0.7626378E-03
 0.5950000E+00  0.8380242E-03
 0.5961000E+00  0.9178149E-03
 0.5972000E+00  0.1001835E-02
 0.5983000E+00  0.1089834E-02
 0.5994000E+00  0.1181481E-02
 0.6005000E+00  0.1276356E-02
 0.6016000E+00  0.1373951E-02
 0.6027000E+00  0.1473658E-02
 0.6038000E+00  0.1574773E-02
 0.6049000E+00  0.1676491E-02
 0.6060000E+00  0.1777908E-02
 0.6071000E+00  0.1878023E-02
 0.6082000E+00  0.1975737E-02
 0.6093000E+00  0.2069868E-02
 0.6104000E+00  0.2159148E-02
 0.6115000E+00  0.2242242E-02
 0.6126000E+00  0.2317755E-02
 0.6137000E+00  0.2384246E-02
 0.6148000E+00  0.2440247E-02
 0.6159000E+00  0.2484279E-02
 0.6170000E+00  0.2514872E-02
 0.6181000E+00  0.2530589E-02
 0.6192000E+00  0.2530044E-02
 0.6203000E+00  0.2511929E-02
 0.6214000E+00  0.2475040E-02
 0.6225000E+00  0.2418294E-02
 0.6236000E+00  0.2340762E-02
 0.6247000E+00  0.2241684E-02
 0.6258000E+00  0.2120498E-02
 0.6269000E+00  0.1976853E-02
 0.6280000E+00  0.1810631E-02
 0.6291000E+00  0.1621964E-02
 0.6302000E+00  0.1411240E-02
 0.6313000E+00  0.1179117E-02
 0.6324000E+00  0.9265243E-03
 0.6335000E+00  0.6546641E-03
 0.6346000E+00  0.3650066E-03
 0.6357000E+00  0.5928181E-04
 0.6368000E+00 -0.2605337E-03
 0.6379000E+00 -0.5922337E-03
 0.6390000E+00 -0.9334037E-03
 0.6401000E+00 -0.1281447E-02
 0.6412000E+00 -0.1633613E-02
 0.6423000E+00 -0.1987031E-02
 0.6434000E+00 -0.2338746E-02
 0.6445000E+00 -0.2685755E-02
 0.6456000E+00 -0.3025043E-02
 0.6467000E+00 -0.3353630E-02
 0.6478000E+00 -0.3668604E-02
 0.6489000E+00 -0.3967162E-02
 0.6500000E+00 -0.4246647E-02
 0.6511000E+00 -0.4504587E-02
 0.6522000E+00 -0.4738722E-02
 0.6533000E+00 -0.4947044E-02
 0.6544000E+00 -0.5127813E-02
 0.6555000E+00 -0.5279585E-02
 0.6566000E+00 -0.5401228E-02
 0.6577000E+00 -0.5491932E-02
 0.6588000E+00 -0.5551221E-02
 0.6599000E+00 -0.5578950E-02
 0.6610000E+00 -0.5575305E-02
 0.6621000E+00 -0.5540796E-02
 0.6632000E+00 -0.5476242E-02
 0.6643000E+00 -0.5382760E-02
 0.6654000E+00 -0.5261738E-02
 0.6665000E+00 -0.5114815E-02
 0.6676000E+00 -0.4943850E-02
 0.6687000E+00 -0.4750896E-02
 0.6698000E+00 -0.4538162E-02
 0.6709000E+00 -0.4307989E-02
 0.6720000E+00 -0.4062809E-02
 0.6731000E+00 -0.3805115E-02
 0.6742000E+00 -0.3537429E-02
 0.6753000E+00 -0.3262267E-02
 0.6764000E+00 -0.2982111E-02
 0.6775000E+00 -0.2699378E-02
 0.6786000E+00 -0.2416397E-02
 0.6797000E+00 -0.2135379E-02
 0.6808000E+00 -0.1858405E-02
 0.6819000E+00 -0.1587399E-02
 0.6830000E+00 -0.1324121E-02
 0.6841000E+00 -0.1070152E-02
 0.6852000E+00 -0.8268886E-03
 0.6863000E+00 -0.5955330E-03
 0.6874000E+00 -0.3770945E-03
 0.6885000E+00 -0.1723879E-03
 0.6896000E+00  0.1796275E-04
 0.6907000E+00  0.1935175E-03
 0.6918000E+00  0.3540122E-03
 0.6929000E+00  0.4993479E-03
 0.6940000E+00  0.6295801E-03
 0.6951000E+00  0.7449062E-03
 0.6962000E+00  0.8456525E-03
 0.6973000E+00  0.9322600E-03
 0.6984000E+00  0.1005269E-02
 0.6995000E+00  0.1065303E-02
 0.7006000E+00  0.1113053E-02
 0.7017000E+00  0.1149263E-02
 0.7028000E+00  0.1174715E-02
 0.7039000E+00  0.1190213E-02
 0.7050000E+00  0.1196574E-02
 0.7061000E+00  0.1194614E-02
 0.7072000E+00  0.1185136E-02
 0.7083000E+00  0.1168925E-02
 0.7094000E+00  0.1146729E-02
 0.7105000E+00  0.1119265E-02
 0.7116000E+00  0.1087200E-02
 0.7127000E+00  0.1051156E-02
 0.7138000E+00  0.1011702E-02
 0.7149000E+00  0.9693545E-03
 0.7160000E+00  0.9245754E-03
 0.7171000E+00  0.8777747E-03
 0.7182000E+00  0.8293110E-03
 0.7193000E+00  0.7794941E-03
 0.7204000E+00  0.7285886E-03
 0.7215000E+00  0.6768181E-03
 0.7226000E+00  0.6243700E-03
 0.7237000E+00  0.5714013E-03
 0.7248000E+00  0.5180443E-03
 0.7259000E+00  0.4644123E-03
 0.7270000E+00  0.4106042E-03
 0.7281000E+00  0.3567103E-03
 0.7292000E+00  0.3028168E-03
 0.7303000E+00  0.2490107E-03
 0.7314000E+00  0.1953842E-03
 0.7325000E+00  0.1420380E-03
 0.7336000E+00  0.8908376E-04
 0.7347000E+00  0.3664598E-04
 0.7358000E+00 -0.1513745E-04
 0.7369000E+00 -0.6611472E-04
 0.7380000E+00 -0.1161205E-03
 0.7391000E+00 -0.1649768E-03
 0.7402000E+00 -0.2124946E-03
 0.7413000E+00 -0.2584764E-03
 0.7424000E+00 -0.3027191E-03
 0.7435000E+00 -0.3450170E-03
 0.7446000E+00 -0.3851658E-03
 0.7457000E+00 -0.4229649E-03
 0.7468000E+00 -0.4582216E-03
 0.7479000E+00 -0.4907544E-03
 0.7490000E+00 -0.5203965E-03
 0.7501000E+00 -0.5469982E-03
 0.7512000E+00 -0.5704305E-03
 0.7523000E+00 -0.5905863E-03
 0.7534000E+00 -0.6073827E-03
 0.7545000E+00 -0.6207615E-03
 0.7556000E+00 -0.6306909E-03
 0.7567000E+00 -0.6371656E-03
 0.7578000E+00 -0.6402064E-03
 0.7589000E+00 -0.6398592E-03
 0.7600000E+00 -0.6361937E-03
 0.7611000E+00 -0.6293010E-03
 0.7622000E+00 -0.6192920E-03
 0.7633000E+00 -0.6062956E-03
 0.7644000E+00 -0.5904569E-03
 0.7655000E+00 -0.5719349E-03
 0.7666000E+00 -0.5508999E-03
 0.7677000E+00 -0.5275313E-03
 0.7688000E+00 -0.5020147E-03
 0.7699000E+00 -0.4745399E-03
 0.7710000E+00 -0.4452988E-03
 0.7721000E+00 -0.4144845E-03
 0.7732000E+00 -0.3822900E-03
 0.7743000E+00 -0.3489073E-03
 0.7754000E+00 -0.3145261E-03
 0.7765000E+00 -0.2793338E-03
 0.7776000E+00 -0.2435150E-03
 0.7787000E+00 -0.2072515E-03
 0.7798000E+00 -0.1707225E-03
 0.7809000E+00 -0.1341051E-03
 0.7820000E+00 -0.9757453E-04
 0.7831000E+00 -0.6130425E-04
 0.7842000E+00 -0.2546638E-04
 0.7853000E+00  0.9768266E-05
 0.7864000E+00  0.4423012E-04
 0.7875000E+00  0.7775132E-04
 0.7886000E+00  0.1101664E-03
 0.7897000E+00  0.1413138E-03
 0.7908000E+00  0.1710366E-03
 0.7919000E+00  0.1991849E-03
 0.7930000E+00  0.2256162E-03
 0.7941000E+00  0.2501973E-03
 0.7952000E+00  0.2728060E-03
 0.7963000E+00  0.2933330E-03
 0.7974000E+00  0.3116843E-03
 0.7985000E+00  0.3277842E-03
 0.7996000E+00  0.3415772E-03
 0.8007000E+00  0.3530301E-03
 0.8018000E+00  0.3621333E-03
 0.8029000E+00  0.3689016E-03
 0.8040000E+00  0.3733748E-03
 0.8051000E+00  0.3756183E-03
 0.8062000E+00  0.3757223E-03
 0.8073000E+00  0.3738016E-03
 0.8084000E+00  0.3699936E-03
 0.8095000E+00  0.3644564E-03
 0.8106000E+00  0.3573659E-03
 0.8117000E+00  0.3489124E-03
 0.8128000E+00  0.3392972E-03
 0.8139000E+00  0.3287277E-03
 0.8150000E+00  0.3174129E-03
 0.8161000E+00  0.3055590E-03
 0.8172000E+00  0.2933642E-03
 0.8183000E+00  0.2810144E-03
 0.8194000E+00  0.2686792E-03
 0.8205000E+00  0.2565085E-03
 0.8216000E+00  0.2446285E-03
 0.8227000E+00  0.2331388E-03
 0.8238000E+00  0.2221096E-03
 0.8249000E+00  0.2115798E-03
 0.8260000E+00  0.2015558E-03
 0.8271000E+00  0.1920117E-03
 0.8282000E+00  0.1828898E-03
 0.8293000E+00  0.1741023E-03
 0.8304000E+00  0.1655325E-03
 0.8315000E+00  0.1570381E-03
 0.8326000E+00  0.1484531E-03
 0.8337000E+00  0.1395913E-03
 0.8348000E+00  0.1302501E-03
 0.8359000E+00  0.1202135E-03
 0.8370000E+00  0.1092557E-03
 0.8381000E+00  0.9714456E-04
 0.8392000E+00  0.8364396E-04
 0.8403000E+00  0.6851663E-04
 0.8414000E+00  0.5152577E-04
 0.8425000E+00  0.3243578E-04
 0.8436000E+00  0.1101202E-04
 0.8447000E+00 -0.1298052E-04
 0.8458000E+00 -0.3977915E-04
 0.8469000E+00 -0.6962581E-04
 0.8480000E+00 -0.1027696E-03
 0.8491000E+00 -0.1394693E-03
 0.8502000E+00 -0.1799967E-03
 0.8513000E+00 -0.2246401E-03
 0.8524000E+00 -0.2737081E-03
 0.8535000E+00 -0.3275332E-03
 0.8546000E+00 -0.3864755E-03
 0.8557000E+00 -0.4509242E-03
 0.8568000E+00 -0.5212987E-03
 0.8579000E+00 -0.5980472E-03
 0.8590000E+00 -0.6816452E-03
 0.8601000E+00 -0.7725920E-03
 0.8612000E+00 -0.8714042E-03
 0.8623000E+00 -0.9786094E-03
 0.8634000E+00 -0.1094737E-02
 0.8645000E+00 -0.1220305E-02
 0.8656000E+00 -0.1355808E-02
 0.8667000E+00 -0.1501702E-02
 0.8678000E+00 -0.1658387E-02
 0.8689000E+00 -0.1826185E-02
 0.8700000E+00 -0.2005324E-02
 0.8711000E+00 -0.2195915E-02
 0.8722000E+00 -0.2397935E-02
 0.8733000E+00 -0.2611199E-02
 0.8744000E+00 -0.2835350E-02
 0.8755000E+00 -0.3069832E-02
 0.8766000E+00 -0.3313879E-02
 0.8777000E+00 -0.3566493E-02
 0.8788000E+00 -0.3826437E-02
 0.8799000E+00 -0.4092221E-02
 0.8810000E+00 -0.4362098E-02
 0.8821000E+00 -0.4634064E-02
 0.8832000E+00 -0.4905859E-02
 0.8843000E+00 -0.5174980E-02
 0.8854000E+00 -0.5438693E-02
 0.8865000E+00 -0.5694050E-02
 0.8876000E+00 -0.5937913E-02
 0.8887000E+00 -0.6166988E-02
 0.8898000E+00 -0.6377856E-02
 0.8909000E+00 -0.6567015E-02
 0.8920000E+00 -0.6730928E-02
 0.8931000E+00 -0.6866067E-02
 0.8942000E+00 -0.6968968E-02
 0.8953000E+00 -0.7036285E-02
 0.8964000E+00 -0.7064842E-02
 0.8975000E+00 -0.7051693E-02
 0.8986000E+00 -0.6994174E-02
 0.8997000E+00 -0.6889962E-02
 0.9008000E+00 -0.6737122E-02
 0.9019000E+00 -0.6534157E-02
 0.9030000E+00 -0.6280054E-02
 0.9041000E+00 -0.5974318E-02
 0.9052000E+00 -0.5617008E-02
 0.9063000E+00 -0.5208753E-02
 0.9074000E+00 -0.4750774E-02
 0.9085000E+00 -0.4244888E-02
 0.9096000E+00 -0.3693497E-02
 0.9107000E+00 -0.3099587E-02
 0.9118000E+00 -0.2466696E-02
 0.9129000E+00 -0.1798887E-02
 0.9140000E+00 -0.1100705E-02
 0.9151000E+00 -0.3771287E-03
 0.9162000E+00  0.3664886E-03
 0.9173000E+00  0.1124484E-02
 0.9184000E+00  0.1890957E-02
 0.9195000E+00  0.2659841E-02
 0.9206000E+00  0.3424985E-02
 0.9217000E+00  0.4180233E-02
 0.9228000E+00  0.4919506E-02
 0.9239000E+00  0.5636879E-02
 0.9250000E+00  0.6326661E-02
 0.9261000E+00  0.6983469E-02
 0.9272000E+00  0.7602294E-02
 0.9283000E+00  0.8178568E-02
 0.9294000E+00  0.8708214E-02
 0.9305000E+00  0.9187697E-02
 0.9316000E+00  0.9614058E-02
 0.9327000E+00  0.9984944E-02
 0.9338000E+00  0.1029863E-01
 0.9349000E+00  0.1055400E-01
 0.9360000E+00  0.1075060E-01
 0.9371000E+00  0.1088857E-01
 0.9382000E+00  0.1096865E-01
 0.9393000E+00  0.1099215E-01
 0.9404000E+00  0.1096090E-01
 0.9415000E+00  0.1087723E-01
 0.9426000E+00  0.1074390E-01
 0.9437000E+00  0.1056405E-01
 0.9448000E+00  0.1034114E-01
 0.9459000E+00  0.1007891E-01
 0.9470000E+00  0.9781304E-02
 0.9481000E+00  0.9452396E-02
 0.9492000E+00  0.9096364E-02
 0.9503000E+00  0.8717410E-02
 0.9514000E+00  0.8319713E-02
 0.9525000E+00  0.7907381E-02
 0.9536000E+00  0.7484400E-02
 0.9547000E+00  0.7054596E-02
 0.9558000E+00  0.6621600E-02
 0.9569000E+00  0.6188816E-02
 0.9580000E+00  0.5759398E-02
 0.9591000E+00  0.5336232E-02
 0.9602000E+00  0.4921921E-02
 0.9613000E+00  0.4518778E-02
 0.9624000E+00  0.4128818E-02
 0.9635000E+00  0.3753765E-02
 0.9646000E+00  0.3395047E-02
 0.9657000E+00  0.3053811E-02
 0.9668000E+00  0.2730929E-02
 0.9679000E+00  0.2427014E-02
 0.9690000E+00  0.2142434E-02
 0.9701000E+00  0.1877326E-02
 0.9712000E+00  0.1631616E-02
 0.9723000E+00  0.1405033E-02
 0.9734000E+00  0.1197132E-02
 0.9745000E+00  0.1007307E-02
 0.9756000E+00  0.8348135E-03
 0.9767000E+00  0.6787862E-03
 0.9778000E+00  0.5382550E-03
 0.9789000E+00  0.4121635E-03