 -0.119999997         0.00000000    
 -0.119000003         0.00000000    
 -0.118000001         0.00000000    
 -0.116999999         0.00000000    
 -0.115999997         0.00000000    
 -0.115000002         0.00000000    
 -0.114000000         0.00000000    
 -0.112999998         0.00000000    
 -0.112000003         0.00000000    
 -0.111000001         0.00000000    
 -0.109999999         0.00000000    
 -0.108999997         0.00000000    
 -0.108000003         0.00000000    
 -0.107000001         0.00000000    
 -0.105999999         0.00000000    
 -0.104999997        -0.00000000    
 -0.104000002        -0.00000000    
 -0.103000000        -7.78074504E-38
 -0.101999998        -3.64967266E-37
 -0.101000004        -1.37622163E-36
 -0.100000001        -4.51727290E-36
  -9.89999995E-02    -1.29122013E-35
  -9.79999974E-02    -3.17930556E-35
  -9.70000029E-02    -6.63652255E-35
  -9.60000008E-02    -1.13556543E-34
  -9.49999988E-02    -1.45778174E-34
  -9.39999968E-02    -9.48469198E-35
  -9.30000022E-02     1.37573178E-34
  -9.20000002E-02     6.09845000E-34
  -9.09999982E-02     1.22551549E-33
  -9.00000036E-02     1.71509107E-33
  -8.90000015E-02     1.94967181E-33
  -8.79999995E-02     2.55244805E-33
  -8.69999975E-02     4.81834363E-33
  -8.60000029E-02     7.81027320E-33
  -8.50000009E-02     1.51586150E-33
  -8.39999989E-02    -3.82507801E-32
  -8.29999968E-02    -1.34776493E-31
  -8.20000023E-02    -2.50365250E-31
  -8.10000002E-02    -1.85787623E-31
  -7.99999982E-02     4.62118427E-31
  -7.90000036E-02     2.05457266E-30
  -7.80000016E-02     4.13303626E-30
  -7.69999996E-02     4.25068462E-30
  -7.59999976E-02    -2.47506881E-30
  -7.50000030E-02    -2.08125604E-29
  -7.40000010E-02    -4.76826701E-29
  -7.29999989E-02    -6.06459210E-29
  -7.19999969E-02    -1.22414515E-29
  -7.10000023E-02     1.50818924E-28
  -7.00000003E-02     4.25117691E-28
  -6.89999983E-02     6.52502176E-28
  -6.80000037E-02     4.54069762E-28
  -6.70000017E-02    -6.66771825E-28
  -6.59999996E-02    -2.90730064E-27
  -6.49999976E-02    -5.44614316E-27
  -6.40000030E-02    -5.80878498E-27
  -6.30000010E-02    -1.76017900E-28
  -6.19999990E-02     1.43439564E-26
  -6.10000007E-02     3.52067482E-26
  -5.99999987E-02     4.94671563E-26
  -5.90000004E-02     3.29990008E-26
  -5.79999983E-02    -3.97760062E-26
  -5.70000000E-02    -1.72018602E-25
  -5.60000017E-02    -3.12504930E-25
  -5.49999997E-02    -3.36959865E-25
  -5.40000014E-02    -7.67286669E-26
  -5.29999994E-02     5.76520849E-25
  -5.20000011E-02     1.49981154E-24
  -5.09999990E-02     2.18341375E-24
  -5.00000007E-02     1.74861472E-24
  -4.89999987E-02    -6.88631148E-25
  -4.80000004E-02    -5.25781039E-24
  -4.69999984E-02    -1.04193356E-23
  -4.60000001E-02    -1.25154542E-23
  -4.50000018E-02    -6.63302490E-24
  -4.39999998E-02     1.06382989E-23
  -4.30000015E-02     3.69657601E-23
  -4.19999994E-02     6.05591919E-23
  -4.10000011E-02     6.04369122E-23
  -3.99999991E-02     1.41312977E-23
  -3.90000008E-02    -8.64194345E-23
  -3.79999988E-02    -2.15717410E-22
  -3.70000005E-02    -3.03984003E-22
  -3.59999985E-02    -2.50185734E-22
  -3.50000001E-02     3.07534111E-23
  -3.40000018E-02     5.32747986E-22
  -3.29999998E-02     1.08705225E-21
  -3.20000015E-02     1.34885521E-21
  -3.09999995E-02     8.97615769E-22
  -2.99999993E-02    -5.30648884E-22
  -2.89999992E-02    -2.73956080E-21
  -2.80000009E-02    -4.85256136E-21
  -2.70000007E-02    -5.38986606E-21
  -2.60000005E-02    -2.80785348E-21
  -2.50000004E-02     3.52654318E-21
  -2.40000002E-02     1.22639494E-20
  -2.30000000E-02     1.95399706E-20
  -2.19999999E-02     1.97011416E-20
  -2.09999997E-02     7.67561489E-21
  -1.99999996E-02    -1.74284225E-20
  -1.89999994E-02    -4.89709146E-20
  -1.79999992E-02    -7.19433746E-20
  -1.70000009E-02    -6.67778126E-20
  -1.60000008E-02    -1.83717767E-20
  -1.49999997E-02     7.19692692E-20
  -1.40000004E-02     1.77152852E-19
  -1.30000003E-02     2.44685014E-19
  -1.20000001E-02     2.12379333E-19
  -1.09999999E-02     3.90135632E-20
  -9.99999978E-03    -2.59524453E-19
  -8.99999961E-03    -5.86614829E-19
  -8.00000038E-03    -7.74494429E-19
  -7.00000022E-03    -6.39789928E-19
  -6.00000005E-03    -7.81392094E-20
  -4.99999989E-03     8.34910409E-19
  -4.00000019E-03     1.79021613E-18
  -3.00000003E-03     2.29295520E-18
  -2.00000009E-03     1.83724817E-18
  -1.00000005E-03     1.74778378E-19
   0.00000000        -2.42316605E-18
   1.00000005E-03    -5.05572914E-18
   2.00000009E-03    -6.36654820E-18
   3.00000003E-03    -5.04207405E-18
   4.00000019E-03    -5.18892104E-19
   4.99999989E-03     6.37880247E-18
   6.00000005E-03     1.32376981E-17
   7.00000022E-03     1.65869201E-17
   8.00000038E-03     1.32043528E-17
   8.99999961E-03     1.85428871E-18
   9.99999978E-03    -1.52532006E-17
   1.09999999E-02    -3.21388222E-17
   1.20000001E-02    -4.04896406E-17
   1.30000003E-02    -3.28302393E-17
   1.40000004E-02    -6.52015688E-18
   1.49999997E-02     3.30949868E-17
   1.60000008E-02     7.22573367E-17
   1.70000009E-02     9.23136144E-17
   1.79999992E-02     7.68843733E-17
   1.89999994E-02     2.04931184E-17
   1.99999996E-02    -6.50198703E-17
   2.09999997E-02    -1.50157210E-16
   2.19999999E-02    -1.95707955E-16
   2.30000000E-02    -1.67910716E-16
   2.40000002E-02    -5.59480416E-17
   2.50000004E-02     1.15796074E-16
   2.60000005E-02     2.88150418E-16
   2.70000007E-02     3.83924274E-16
   2.80000009E-02     3.38050717E-16
   2.89999992E-02     1.30906030E-16
   2.99999993E-02    -1.89864116E-16
   3.09999995E-02    -5.12455833E-16
   3.20000015E-02    -6.94441021E-16
   3.29999998E-02    -6.19432071E-16
   3.40000018E-02    -2.56755830E-16
   3.50000001E-02     3.02771848E-16
   3.59999985E-02     8.57768878E-16
   3.70000005E-02     1.16077744E-15
   3.79999988E-02     1.01990263E-15
   3.90000008E-02     3.99674455E-16
   3.99999991E-02    -5.25892793E-16
   4.10000011E-02    -1.40433764E-15
   4.19999994E-02    -1.82574902E-15
   4.30000015E-02    -1.49895260E-15
   4.39999998E-02    -4.13934943E-16
   4.50000018E-02     1.08853051E-15
   4.60000001E-02     2.39455515E-15
   4.69999984E-02     2.84071705E-15
   4.80000004E-02     2.01371495E-15
   4.89999987E-02     4.30267260E-18
   5.00000007E-02    -2.51367022E-15
   5.09999990E-02    -4.45733724E-15
   5.20000011E-02    -4.74128344E-15
   5.29999994E-02    -2.78354868E-15
   5.40000014E-02     1.09822014E-15
   5.49999997E-02     5.60772657E-15
   5.60000017E-02     8.81821607E-15
   5.70000000E-02     8.88945069E-15
   5.79999983E-02     4.91604328E-15
   5.90000004E-02    -2.44110533E-15
   5.99999987E-02    -1.08674751E-14
   6.10000007E-02    -1.70084910E-14
   6.19999990E-02    -1.76668931E-14
   6.30000010E-02    -1.11901904E-14
   6.40000030E-02     1.50422008E-15
   6.49999976E-02     1.67685215E-14
   6.59999996E-02     2.91565579E-14
   6.70000017E-02     3.32579389E-14
   6.80000037E-02     2.58367224E-14
   6.89999983E-02     7.45734837E-15
   7.00000003E-02    -1.71301368E-14
   7.10000023E-02    -4.01693381E-14
   7.19999969E-02    -5.33738161E-14
   7.29999989E-02    -5.08812827E-14
   7.40000010E-02    -3.15914151E-14
   7.50000030E-02     5.88078895E-17
   7.59999976E-02     3.52775907E-14
   7.69999996E-02     6.36981922E-14
   7.80000016E-02     7.67436719E-14
   7.90000036E-02     7.03058285E-14
   7.99999982E-02     4.57451764E-14
   8.10000002E-02     8.93930705E-15
   8.20000023E-02    -3.20357314E-14
   8.29999968E-02    -6.94145127E-14
   8.39999989E-02    -9.72513086E-14
   8.50000009E-02    -1.11361407E-13
   8.60000029E-02    -1.08122312E-13
   8.69999975E-02    -8.34270126E-14
   8.79999995E-02    -3.32897636E-14
   8.90000015E-02     4.31247377E-14
   9.00000036E-02     1.38773555E-13
   9.09999982E-02     2.34664556E-13
   9.20000002E-02     2.99670390E-13
   9.30000022E-02     2.96821866E-13
   9.39999968E-02     1.96334404E-13
   9.49999988E-02    -7.81135224E-15
   9.60000008E-02    -2.84090622E-13
   9.70000029E-02    -5.60089030E-13
   9.79999974E-02    -7.35353293E-13
   9.89999995E-02    -7.11025639E-13
  0.100000001        -4.29676504E-13
  0.101000004         8.78612775E-14
  0.101999998         7.24851819E-13
  0.103000000         1.28347170E-12
  0.104000002         1.53605850E-12
  0.104999997         1.30323638E-12
  0.105999999         5.35986674E-13
  0.107000001        -6.29081748E-13
  0.108000003        -1.86976823E-12
  0.108999997        -2.74826689E-12
  0.109999999        -2.84287524E-12
  0.111000001        -1.90796684E-12
  0.112000003        -1.01535533E-14
  0.112999998         2.41500570E-12
  0.114000000         4.62542071E-12
  0.115000002         5.75985093E-12
  0.115999997         5.11295390E-12
  0.116999999         2.42172146E-12
  0.118000001        -1.93329532E-12
  0.119000003        -6.89964145E-12
  0.119999997        -1.09446393E-11
  0.120999999        -1.24501451E-11
  0.122000001        -1.02230386E-11
  0.123000003        -3.97961612E-12
  0.123999998         5.35617471E-12
  0.125000000         1.56709177E-11
  0.126000002         2.40506816E-11
  0.127000004         2.74900120E-11
  0.128000006         2.37641833E-11
  0.128999993         1.22335102E-11
  0.129999995        -5.66729823E-12
  0.130999997        -2.64462254E-11
  0.131999999        -4.51495022E-11
  0.133000001        -5.64513748E-11
  0.134000003        -5.60026192E-11
  0.135000005        -4.17009101E-11
  0.136000007        -1.45299302E-11
  0.136999995         2.13027148E-11
  0.137999997         5.90302529E-11
  0.138999999         9.06824615E-11
  0.140000001         1.08821764E-10
  0.141000003         1.08224846E-10
  0.142000005         8.70703856E-11
  0.143000007         4.73200090E-11
  0.143999994        -5.79031181E-12
  0.144999996        -6.49623272E-11
  0.145999998        -1.22343094E-10
  0.147000000        -1.70825243E-10
  0.148000002        -2.04717729E-10
  0.149000004        -2.19614812E-10
  0.150000006        -2.11641177E-10
  0.150999993        -1.76586440E-10
  0.151999995        -1.09627210E-10
  0.152999997        -6.26554407E-12
  0.153999999         1.35247105E-10
  0.155000001         3.10316106E-10
  0.156000003         5.04205455E-10
  0.157000005         6.89490576E-10
  0.158000007         8.26330948E-10
  0.158999994         8.66727745E-10
  0.159999996         7.63017205E-10
  0.160999998         4.79607742E-10
  0.162000000         5.71641909E-12
  0.163000003        -6.33996855E-10
  0.164000005        -1.37413425E-09
  0.165000007        -2.11107398E-09
  0.165999994        -2.71418421E-09
  0.166999996        -3.04459480E-09
  0.167999998        -2.97843172E-09
  0.169000000        -2.43013631E-09
  0.170000002        -1.37131095E-09
  0.171000004         1.58417973E-10
  0.172000006         2.05001993E-09
  0.172999993         4.13229095E-09
  0.173999995         6.18488150E-09
  0.174999997         7.95349830E-09
  0.175999999         9.16435550E-09
  0.177000001         9.53702628E-09
  0.178000003         8.79756978E-09
  0.179000005         6.69622313E-09
  0.180000007         3.03484149E-09
  0.180999994        -2.29200614E-09
  0.181999996        -9.24200450E-09
  0.182999998        -1.75609429E-08
  0.184000000        -2.67194853E-08
  0.185000002        -3.58643106E-08
  0.186000004        -4.37970513E-08
  0.187000006        -4.89903513E-08
  0.187999994        -4.96421535E-08
  0.188999996        -4.37589947E-08
  0.189999998        -2.92491151E-08
  0.191000000        -3.99935551E-09
  0.192000002         3.40914568E-08
  0.193000004         8.71446275E-08
  0.194000006         1.57410142E-07
  0.194999993         2.47448440E-07
  0.195999995         3.60368688E-07
  0.196999997         5.00097769E-07
  0.197999999         6.71652742E-07
  0.199000001         8.81396772E-07
  0.200000003         1.13727185E-06
  0.201000005         1.44901981E-06
  0.202000007         1.82841700E-06
  0.202999994         2.28956105E-06
  0.203999996         2.84924249E-06
  0.204999998         3.52742859E-06
  0.206000000         4.34787080E-06
  0.207000002         5.33882167E-06
  0.208000004         6.53383540E-06
  0.209000006         7.97263237E-06
  0.209999993         9.70199017E-06
  0.210999995         1.17766667E-05
  0.211999997         1.42603758E-05
  0.213000000         1.72268537E-05
  0.214000002         2.07610956E-05
  0.215000004         2.49608038E-05
  0.216000006         2.99381227E-05
  0.216999993         3.58216603E-05
  0.217999995         4.27587947E-05
  0.218999997         5.09182028E-05
  0.219999999         6.04925845E-05
  0.221000001         7.17014264E-05
  0.222000003         8.47938427E-05
  0.223000005         1.00051395E-04
  0.224000007         1.17790907E-04
  0.224999994         1.38367366E-04
  0.225999996         1.62176890E-04
  0.226999998         1.89659739E-04
  0.228000000         2.21303693E-04
  0.229000002         2.57647305E-04
  0.230000004         2.99283158E-04
  0.231000006         3.46861169E-04
  0.231999993         4.01091500E-04
  0.232999995         4.62746888E-04
  0.233999997         5.32664708E-04
  0.234999999         6.11748197E-04
  0.236000001         7.00966862E-04
  0.237000003         8.01356451E-04
  0.238000005         9.14017553E-04
  0.238999993         1.04011386E-03
  0.239999995         1.18086883E-03
  0.240999997         1.33756129E-03
  0.241999999         1.51151943E-03
  0.243000001         1.70411344E-03
  0.244000003         1.91674544E-03
  0.245000005         2.15083803E-03
  0.246000007         2.40782090E-03
  0.246999994         2.68911407E-03
  0.247999996         2.99611129E-03
  0.248999998         3.33015877E-03
  0.250000000         3.69253499E-03
  0.250999987         4.08442505E-03
  0.252000004         4.50689765E-03
  0.252999991         4.96087503E-03
  0.254000008         5.44710690E-03
  0.254999995         5.96613903E-03
  0.256000012         6.51827967E-03
  0.256999999         7.10357027E-03
  0.257999986         7.72174913E-03
  0.259000003         8.37222021E-03
  0.259999990         9.05402098E-03
  0.261000007         9.76579264E-03
  0.261999995         1.05057498E-02
  0.263000011         1.12716584E-02
  0.263999999         1.20608108E-02
  0.264999986         1.28700091E-02
  0.266000003         1.36955483E-02
  0.266999990         1.45332078E-02
  0.268000007         1.53782526E-02
  0.268999994         1.62254330E-02
  0.270000011         1.70689952E-02
  0.270999998         1.79027021E-02
  0.272000015         1.87198631E-02
  0.273000002         1.95133649E-02
  0.273999989         2.02757213E-02
  0.275000006         2.09991243E-02
  0.275999993         2.16755047E-02
  0.277000010         2.22966075E-02
  0.277999997         2.28540655E-02
  0.279000014         2.33394839E-02
  0.280000001         2.37445310E-02
  0.280999988         2.40610316E-02
  0.282000005         2.42810734E-02
  0.282999992         2.43971106E-02
  0.284000009         2.44020689E-02
  0.284999996         2.42894609E-02
  0.286000013         2.40534935E-02
  0.287000000         2.36891620E-02
  0.287999988         2.31923591E-02
  0.289000005         2.25599688E-02
  0.289999992         2.17899419E-02
  0.291000009         2.08813772E-02
  0.291999996         1.98345780E-02
  0.293000013         1.86511017E-02
  0.294000000         1.73338018E-02
  0.294999987         1.58868413E-02
  0.296000004         1.43157095E-02
  0.296999991         1.26271956E-02
  0.298000008         1.08293751E-02
  0.298999995         8.93155206E-03
  0.300000012         6.94420049E-03
  0.300999999         4.87888092E-03
  0.301999986         2.74813594E-03
  0.303000003         5.65380149E-04
  0.303999990        -1.65523030E-03
  0.305000007        -3.89893772E-03
  0.305999994        -6.15053438E-03
  0.307000011        -8.39451794E-03
  0.307999998        -1.06152594E-02
  0.308999985        -1.27971685E-02
  0.310000002        -1.49248643E-02
  0.310999990        -1.69833396E-02
  0.312000006        -1.89581364E-02
  0.312999994        -2.08354965E-02
  0.314000010        -2.26025209E-02
  0.314999998        -2.42473129E-02
  0.316000015        -2.57590972E-02
  0.317000002        -2.71283481E-02
  0.317999989        -2.83468701E-02
  0.319000006        -2.94078849E-02
  0.319999993        -3.03060878E-02
  0.321000010        -3.10376827E-02
  0.321999997        -3.16004157E-02
  0.323000014        -3.19935642E-02
  0.324000001        -3.22179161E-02
  0.324999988        -3.22757512E-02
  0.326000005        -3.21707539E-02
  0.326999992        -3.19079719E-02
  0.328000009        -3.14937122E-02
  0.328999996        -3.09354328E-02
  0.330000013        -3.02416310E-02
  0.331000000        -2.94217225E-02
  0.331999987        -2.84859072E-02
  0.333000004        -2.74450313E-02
  0.333999991        -2.63104495E-02
  0.335000008        -2.50938851E-02
  0.335999995        -2.38072835E-02
  0.337000012        -2.24626753E-02
  0.338000000        -2.10720468E-02
  0.338999987        -1.96472034E-02
  0.340000004        -1.81996599E-02
  0.340999991        -1.67405307E-02
  0.342000008        -1.52804255E-02
  0.342999995        -1.38293728E-02
  0.344000012        -1.23967370E-02
  0.344999999        -1.09911589E-02
  0.345999986        -9.62051470E-03
  0.347000003        -8.29187781E-03
  0.347999990        -7.01149832E-03
  0.349000007        -5.78479329E-03
  0.349999994        -4.61634388E-03
  0.351000011        -3.50990379E-03
  0.351999998        -2.46841880E-03
  0.352999985        -1.49405259E-03
  0.354000002        -5.88225143E-04
  0.354999989         2.48343829E-04
  0.356000006         1.01558387E-03
  0.356999993         1.71401922E-03
  0.358000010         2.34471168E-03
  0.358999997         2.90920329E-03
  0.360000014         3.40945832E-03
  0.361000001         3.84780578E-03
  0.361999989         4.22688480E-03
  0.363000005         4.54959087E-03
  0.363999993         4.81902249E-03
  0.365000010         5.03843324E-03
  0.365999997         5.21118380E-03
  0.367000014         5.34069818E-03
  0.368000001         5.43042039E-03
  0.368999988         5.48378006E-03
  0.370000005         5.50415646E-03
  0.370999992         5.49485255E-03
  0.372000009         5.45906927E-03
  0.372999996         5.39989118E-03
  0.374000013         5.32026729E-03
  0.375000000         5.22300089E-03
  0.375999987         5.11073880E-03
  0.377000004         4.98596486E-03
  0.377999991         4.85099293E-03
  0.379000008         4.70796367E-03
  0.379999995         4.55884309E-03
  0.381000012         4.40542167E-03
  0.381999999         4.24931757E-03
  0.382999986         4.09197900E-03
  0.384000003         3.93469119E-03
  0.384999990         3.77858290E-03
  0.386000007         3.62463319E-03
  0.386999995         3.47367954E-03
  0.388000011         3.32642673E-03
  0.388999999         3.18345241E-03
  0.389999986         3.04521504E-03
  0.391000003         2.91205989E-03
  0.391999990         2.78422842E-03
  0.393000007         2.66186544E-03
  0.393999994         2.54503195E-03
  0.395000011         2.43371562E-03
  0.395999998         2.32784241E-03
  0.397000015         2.22728681E-03
  0.398000002         2.13188119E-03
  0.398999989         2.04142276E-03
  0.400000006         1.95568125E-03
  0.400999993         1.87440601E-03
  0.402000010         1.79733220E-03
  0.402999997         1.72418728E-03
  0.404000014         1.65469840E-03
  0.405000001         1.58859766E-03
  0.405999988         1.52562757E-03
  0.407000005         1.46554562E-03
  0.407999992         1.40812830E-03
  0.409000009         1.35317480E-03
  0.409999996         1.30050885E-03
  0.411000013         1.24997983E-03
  0.412000000         1.20146235E-03
  0.412999988         1.15485373E-03
  0.414000005         1.11007213E-03
  0.414999992         1.06705294E-03
  0.416000009         1.02574751E-03
  0.416999996         9.86119965E-04
  0.418000013         9.48145811E-04
  0.419000000         9.11808864E-04
  0.419999987         8.77098006E-04
  0.421000004         8.44003342E-04
  0.421999991         8.12512124E-04
  0.423000008         7.82605493E-04
  0.423999995         7.54256325E-04
  0.425000012         7.27427949E-04
  0.425999999         7.02073216E-04
  0.426999986         6.78134325E-04
  0.428000003         6.55542244E-04
  0.428999990         6.34216296E-04
  0.430000007         6.14063640E-04
  0.430999994         5.94979676E-04
  0.432000011         5.76848630E-04
  0.432999998         5.59544889E-04
  0.433999985         5.42934635E-04
  0.435000002         5.26877469E-04
  0.435999990         5.11227699E-04
  0.437000006         4.95836022E-04
  0.437999994         4.80550341E-04
  0.439000010         4.65217076E-04
  0.439999998         4.49681364E-04
  0.441000015         4.33786598E-04
  0.442000002         4.17373201E-04
  0.442999989         4.00275836E-04
  0.444000006         3.82320053E-04
  0.444999993         3.63317697E-04
  0.446000010         3.43061867E-04
  0.446999997         3.21321626E-04
  0.448000014         2.97836203E-04
  0.449000001         2.72308738E-04
  0.449999988         2.44399795E-04
  0.451000005         2.13720268E-04
  0.451999992         1.79823692E-04
  0.453000009         1.42198376E-04
  0.453999996         1.00259094E-04
  0.455000013         5.33386410E-05
  0.456000000         6.79810455E-07
  0.456999987        -5.85721064E-05
  0.458000004        -1.25375867E-04
  0.458999991        -2.00799594E-04
  0.460000008        -2.86024908E-04
  0.460999995        -3.82350088E-04
  0.462000012        -4.91192448E-04
  0.463000000        -6.14090182E-04
  0.463999987        -7.52703403E-04
  0.465000004        -9.08813963E-04
  0.465999991        -1.08432362E-03
  0.467000008        -1.28124945E-03
  0.467999995        -1.50171784E-03
  0.469000012        -1.74795487E-03
  0.469999999        -2.02227454E-03
  0.470999986        -2.32706731E-03
  0.472000003        -2.66478304E-03
  0.472999990        -3.03791487E-03
  0.474000007        -3.44897993E-03
  0.474999994        -3.90049559E-03
  0.476000011        -4.39495360E-03
  0.476999998        -4.93479054E-03
  0.477999985        -5.52235264E-03
  0.479000002        -6.15986111E-03
  0.479999989        -6.84937043E-03
  0.481000006        -7.59272417E-03
  0.481999993        -8.39150697E-03
  0.483000010        -9.24699567E-03
  0.483999997        -1.01601025E-02
  0.485000014        -1.11313201E-02
  0.486000001        -1.21606644E-02
  0.486999989        -1.32476157E-02
  0.488000005        -1.43910591E-02
  0.488999993        -1.55892251E-02
  0.490000010        -1.68396346E-02
  0.490999997        -1.81390420E-02
  0.492000014        -1.94833819E-02
  0.493000001        -2.08677296E-02
  0.493999988        -2.22862586E-02
  0.495000005        -2.37322189E-02
  0.495999992        -2.51979064E-02
  0.497000009        -2.66746562E-02
  0.497999996        -2.81528570E-02
  0.499000013        -2.96219699E-02
  0.500000000        -3.10705490E-02
  0.500999987        -3.24863158E-02
  0.501999974        -3.38562056E-02
  0.503000021        -3.51664759E-02
  0.504000008        -3.64027955E-02
  0.504999995        -3.75503637E-02
  0.505999982        -3.85940596E-02
  0.507000029        -3.95185761E-02
  0.508000016        -4.03086208E-02
  0.509000003        -4.09490503E-02
  0.509999990        -4.14251015E-02
  0.510999978        -4.17225771E-02
  0.512000024        -4.18280512E-02
  0.513000011        -4.17290777E-02
  0.513999999        -4.14143875E-02
  0.514999986        -4.08741049E-02
  0.515999973        -4.00999375E-02
  0.517000020        -3.90853547E-02
  0.518000007        -3.78257558E-02
  0.518999994        -3.63186263E-02
  0.519999981        -3.45636569E-02
  0.521000028        -3.25628556E-02
  0.522000015        -3.03206146E-02
  0.523000002        -2.78437529E-02
  0.523999989        -2.51415372E-02
  0.524999976        -2.22256593E-02
  0.526000023        -1.91101898E-02
  0.527000010        -1.58114843E-02
  0.527999997        -1.23480726E-02
  0.528999984        -8.74049589E-03
  0.529999971        -5.01113292E-03
  0.531000018        -1.18398038E-03
  0.532000005         2.71558086E-03
  0.532999992         6.66104723E-03
  0.533999979         1.06250737E-02
  0.535000026         1.45797636E-02
  0.536000013         1.84969772E-02
  0.537000000         2.23486405E-02
  0.537999988         2.61070579E-02
  0.538999975         2.97452249E-02
  0.540000021         3.32371145E-02
  0.541000009         3.65579911E-02
  0.541999996         3.96846496E-02
  0.542999983         4.25956845E-02
  0.544000030         4.52717282E-02
  0.545000017         4.76956144E-02
  0.546000004         4.98525724E-02
  0.546999991         5.17303683E-02
  0.547999978         5.33193909E-02
  0.549000025         5.46127260E-02
  0.550000012         5.56061827E-02
  0.550999999         5.62983043E-02
  0.551999986         5.66903017E-02
  0.552999973         5.67860194E-02
  0.554000020         5.65918013E-02
  0.555000007         5.61163612E-02
  0.555999994         5.53706475E-02
  0.556999981         5.43676354E-02
  0.558000028         5.31221330E-02
  0.559000015         5.16505837E-02
  0.560000002         4.99708243E-02
  0.560999990         4.81018610E-02
  0.561999977         4.60636169E-02
  0.563000023         4.38766964E-02
  0.564000010         4.15621325E-02
  0.564999998         3.91411558E-02
  0.565999985         3.66349630E-02
  0.566999972         3.40645015E-02
  0.568000019         3.14502642E-02
  0.569000006         2.88121179E-02
  0.569999993         2.61691175E-02
  0.570999980         2.35393643E-02
  0.572000027         2.09398735E-02
  0.573000014         1.83864683E-02
  0.574000001         1.58936866E-02
  0.574999988         1.34747084E-02
  0.575999975         1.11413244E-02
  0.577000022         8.90388433E-03
  0.578000009         6.77130045E-03
  0.578999996         4.75104898E-03
  0.579999983         2.84919352E-03
  0.580999970         1.07042410E-03
  0.582000017        -5.81889704E-04
  0.583000004        -2.10563745E-03
  0.583999991        -3.49989557E-03
  0.584999979        -4.76484699E-03
  0.586000025        -5.90169663E-03
  0.587000012        -6.91258116E-03
  0.588000000        -7.80047523E-03
  0.588999987        -8.56909528E-03
  0.589999974        -9.22280364E-03
  0.591000021        -9.76651255E-03
  0.592000008        -1.02055930E-02
  0.592999995        -1.05457855E-02
  0.593999982        -1.07931159E-02
  0.595000029        -1.09538129E-02
  0.596000016        -1.10342363E-02
  0.597000003        -1.10408040E-02
  0.597999990        -1.09799262E-02
  0.598999977        -1.08579490E-02
  0.600000024        -1.06811011E-02
  0.601000011        -1.04554528E-02
  0.601999998        -1.01868734E-02
  0.602999985        -9.88100190E-03
  0.603999972        -9.54322238E-03
  0.605000019        -9.17864218E-03
  0.606000006        -8.79207626E-03
  0.606999993        -8.38803500E-03
  0.607999980        -7.97072332E-03
  0.609000027        -7.54403509E-03
  0.610000014        -7.11155403E-03
  0.611000001        -6.67656120E-03
  0.611999989        -6.24204008E-03
  0.612999976        -5.81068592E-03
  0.614000022        -5.38491691E-03
  0.615000010        -4.96688765E-03
  0.615999997        -4.55850270E-03
  0.616999984        -4.16143145E-03
  0.617999971        -3.77712399E-03
  0.619000018        -3.40682734E-03
  0.620000005        -3.05160135E-03
  0.620999992        -2.71233241E-03
  0.621999979        -2.38974905E-03
  0.623000026        -2.08443380E-03
  0.624000013        -1.79683417E-03
  0.625000000        -1.52727263E-03
  0.625999987        -1.27595640E-03
  0.626999974        -1.04298547E-03
  0.628000021        -8.28360498E-04
  0.629000008        -6.31990086E-04
  0.629999995        -4.53697110E-04
  0.630999982        -2.93223973E-04
  0.632000029        -1.50237538E-04
  0.633000016        -2.43328304E-05
  0.634000003         8.49635544E-05
  0.634999990         1.78189410E-04
  0.635999978         2.55943480E-04
  0.637000024         3.18881794E-04
  0.638000011         3.67713423E-04
  0.638999999         4.03197308E-04
  0.639999986         4.26138518E-04
  0.640999973         4.37384268E-04
  0.642000020         4.37819457E-04
  0.643000007         4.28360654E-04
  0.643999994         4.09949309E-04
  0.644999981         3.83544422E-04
  0.646000028         3.50114744E-04
  0.647000015         3.10631149E-04
  0.648000002         2.66059185E-04
  0.648999989         2.17351015E-04
  0.649999976         1.65437348E-04
  0.651000023         1.11218884E-04
  0.652000010         5.55582737E-05
  0.652999997        -7.27270901E-07
  0.653999984        -5.68721880E-05
  0.654999971        -1.12167669E-04
  0.656000018        -1.65966048E-04
  0.657000005        -2.17685039E-04
  0.657999992        -2.66811694E-04
  0.658999979        -3.12905991E-04
  0.660000026        -3.55603290E-04
  0.661000013        -3.94615170E-04
  0.662000000        -4.29728127E-04
  0.662999988        -4.60800598E-04
  0.663999975        -4.87758691E-04
  0.665000021        -5.10591082E-04
  0.666000009        -5.29344194E-04
  0.666999996        -5.44116658E-04
  0.667999983        -5.55053819E-04
  0.669000030        -5.62341767E-04
  0.670000017        -5.66200702E-04
  0.671000004        -5.66878007E-04
  0.671999991        -5.64641610E-04
  0.672999978        -5.59773587E-04
  0.674000025        -5.52563870E-04
  0.675000012        -5.43303962E-04
  0.675999999        -5.32280887E-04
  0.676999986        -5.19770780E-04
  0.677999973        -5.06032840E-04
  0.679000020        -4.91304847E-04
  0.680000007        -4.75799985E-04
  0.680999994        -4.59705014E-04
  0.681999981        -4.43180150E-04
  0.683000028        -4.26359358E-04
  0.684000015        -4.09351254E-04
  0.685000002        -3.92239599E-04
  0.685999990        -3.75084259E-04
  0.686999977        -3.57922690E-04
  0.688000023        -3.40771774E-04
  0.689000010        -3.23630375E-04