-0.1200000E+00  0.0000000E+00
-0.1189000E+00  0.0000000E+00
-0.1178000E+00  0.0000000E+00
-0.1167000E+00  0.0000000E+00
-0.1156000E+00  0.0000000E+00
-0.1145000E+00  0.0000000E+00
-0.1134000E+00  0.0000000E+00
-0.1123000E+00  0.0000000E+00
-0.1112000E+00  0.0000000E+00
-0.1101000E+00  0.0000000E+00
-0.1090000E+00  0.0000000E+00
-0.1079000E+00  0.0000000E+00
-0.1068000E+00  0.0000000E+00
-0.1057000E+00  0.0000000E+00
-0.1046000E+00  0.0000000E+00
-0.1035000E+00  0.0000000E+00
-0.1024000E+00  0.0000000E+00
-0.1013000E+00  0.0000000E+00
-0.1002000E+00  0.0000000E+00
-0.9910000E-01  0.0000000E+00
-0.9800000E-01  0.0000000E+00
-0.9690000E-01  0.0000000E+00
-0.9580000E-01  0.0000000E+00
-0.9470000E-01  0.0000000E+00
-0.9360000E-01  0.0000000E+00
-0.9250000E-01  0.0000000E+00
-0.9140000E-01  0.0000000E+00
-0.9030000E-01  0.0000000E+00
-0.8920000E-01  0.0000000E+00
-0.8810000E-01  0.0000000E+00
-0.8700000E-01  0.0000000E+00
-0.8590000E-01  0.0000000E+00
-0.8480000E-01  0.0000000E+00
-0.8370000E-01  0.0000000E+00
-0.8260000E-01  0.0000000E+00
-0.8150000E-01  0.0000000E+00
-0.8040000E-01  0.0000000E+00
-0.7930000E-01  0.0000000E+00
-0.7820000E-01  0.0000000E+00
-0.7710000E-01  0.0000000E+00
-0.7600000E-01  0.0000000E+00
-0.7490000E-01  0.0000000E+00
-0.7380000E-01  0.0000000E+00
-0.7270000E-01  0.0000000E+00
-0.7160000E-01  0.0000000E+00
-0.7050000E-01  0.0000000E+00
-0.6940000E-01  0.0000000E+00
-0.6830000E-01  0.0000000E+00
-0.6720000E-01  0.0000000E+00
-0.6610000E-01  0.0000000E+00
-0.6500000E-01  0.0000000E+00
-0.6390000E-01  0.0000000E+00
-0.6280000E-01  0.0000000E+00
-0.6170000E-01  0.0000000E+00
-0.6060000E-01  0.0000000E+00
-0.5950000E-01  0.0000000E+00
-0.5840000E-01  0.0000000E+00
-0.5730000E-01  0.0000000E+00
-0.5620000E-01  0.0000000E+00
-0.5510000E-01  0.0000000E+00
-0.5400000E-01  0.0000000E+00
-0.5290000E-01  0.0000000E+00
-0.5180000E-01  0.0000000E+00
-0.5070000E-01  0.0000000E+00
-0.4960000E-01  0.0000000E+00
-0.4850000E-01  0.0000000E+00
-0.4740000E-01  0.0000000E+00
-0.4630000E-01  0.0000000E+00
-0.4520000E-01  0.0000000E+00
-0.4410000E-01  0.0000000E+00
-0.4300000E-01  0.0000000E+00
-0.4190000E-01  0.0000000E+00
-0.4080000E-01  0.0000000E+00
-0.3970000E-01  0.0000000E+00
-0.3860000E-01  0.0000000E+00
-0.3750000E-01  0.0000000E+00
-0.3640000E-01  0.0000000E+00
-0.3530000E-01  0.0000000E+00
-0.3420000E-01  0.0000000E+00
-0.3310000E-01  0.0000000E+00
-0.3200000E-01  0.0000000E+00
-0.3090000E-01  0.0000000E+00
-0.2980000E-01  0.0000000E+00
-0.2870000E-01  0.0000000E+00
-0.2760000E-01  0.0000000E+00
-0.2650000E-01  0.0000000E+00
-0.2540000E-01  0.0000000E+00
-0.2430000E-01  0.0000000E+00
-0.2320000E-01  0.0000000E+00
-0.2210000E-01  0.0000000E+00
-0.2100000E-01  0.0000000E+00
-0.1990000E-01  0.0000000E+00
-0.1880000E-01  0.0000000E+00
-0.1770000E-01  0.0000000E+00
-0.1660000E-01  0.0000000E+00
-0.1550000E-01  0.0000000E+00
-0.1440000E-01  0.0000000E+00
-0.1330000E-01  0.0000000E+00
-0.1220000E-01  0.0000000E+00
-0.1110000E-01  0.0000000E+00
-0.1000000E-01  0.0000000E+00
-0.8900000E-02  0.0000000E+00
-0.7800000E-02  0.0000000E+00
-0.6700000E-02  0.0000000E+00
-0.5600000E-02  0.0000000E+00
-0.4500000E-02  0.0000000E+00
-0.3400000E-02  0.0000000E+00
-0.2300000E-02  0.0000000E+00
-0.1200000E-02  0.0000000E+00
-0.1000000E-03  0.0000000E+00
 0.1000000E-02  0.0000000E+00
 0.2100000E-02  0.0000000E+00
 0.3200000E-02  0.0000000E+00
 0.4300000E-02  0.0000000E+00
 0.5400000E-02  0.0000000E+00
 0.6500000E-02  0.0000000E+00
 0.7600000E-02  0.0000000E+00
 0.8700000E-02  0.0000000E+00
 0.9800000E-02  0.0000000E+00
 0.1090000E-01  0.0000000E+00
 0.1200000E-01  0.0000000E+00
 0.1310000E-01  0.0000000E+00
 0.1420000E-01  0.0000000E+00
 0.1530000E-01  0.0000000E+00
 0.1640000E-01  0.0000000E+00
 0.1750000E-01  0.0000000E+00
 0.1860000E-01  0.0000000E+00
 0.1970000E-01  0.0000000E+00
 0.2080000E-01  0.0000000E+00
 0.2190000E-01  0.0000000E+00
 0.2300000E-01  0.0000000E+00
 0.2410000E-01  0.0000000E+00
 0.2520000E-01  0.0000000E+00
 0.2630000E-01  0.0000000E+00
 0.2740000E-01  0.0000000E+00
 0.2850000E-01  0.0000000E+00
 0.2960000E-01 -0.0000000E+00
 0.3070000E-01 -0.0000000E+00
 0.3180000E-01 -0.0000000E+00
 0.3290000E-01 -0.0000000E+00
 0.3400000E-01 -0.0000000E+00
 0.3510000E-01  0.0000000E+00
 0.3620000E-01  0.4457682E-37
 0.3730000E-01  0.7670772E-37
 0.3840000E-01  0.5781770E-37
 0.3950000E-01 -0.3850022E-37
 0.4060000E-01 -0.1723995E-36
 0.4170000E-01 -0.2838736E-36
 0.4280000E-01 -0.3001712E-36
 0.4390000E-01 -0.1659768E-36
 0.4500000E-01  0.1521186E-36
 0.4610000E-01  0.6485518E-36
 0.4720000E-01  0.1207533E-35
 0.4830000E-01  0.1481115E-35
 0.4940000E-01  0.9281666E-36
 0.5050000E-01 -0.9126186E-36
 0.5160000E-01 -0.3915049E-35
 0.5270000E-01 -0.6954543E-35
 0.5380000E-01 -0.7783592E-35
 0.5490000E-01 -0.3698823E-35
 0.5600000E-01  0.6847128E-35
 0.5710000E-01  0.2210261E-34
 0.5820000E-01  0.3535329E-34
 0.5930000E-01  0.3542569E-34
 0.6040000E-01  0.1078418E-34
 0.6150000E-01 -0.4265609E-34
 0.6260000E-01 -0.1124277E-33
 0.6370000E-01 -0.1643583E-33
 0.6480000E-01 -0.1482294E-33
 0.6590000E-01 -0.1902642E-34
 0.6700000E-01  0.2283274E-33
 0.6810000E-01  0.5237607E-33
 0.6920000E-01  0.7098129E-33
 0.7030000E-01  0.5783160E-33
 0.7140000E-01 -0.3116664E-34
 0.7250000E-01 -0.1089841E-32
 0.7360000E-01 -0.2256215E-32
 0.7470000E-01 -0.2864734E-32
 0.7580000E-01 -0.2115558E-32
 0.7690000E-01  0.5122250E-33
 0.7800000E-01  0.4729963E-32
 0.7910000E-01  0.9047012E-32
 0.8020000E-01  0.1086121E-31
 0.8130000E-01  0.7307502E-32
 0.8240000E-01 -0.3150574E-32
 0.8350000E-01 -0.1887644E-31
 0.8460000E-01 -0.3393471E-31
 0.8570000E-01 -0.3884766E-31
 0.8680000E-01 -0.2399529E-31
 0.8790000E-01  0.1470669E-31
 0.8900000E-01  0.6983028E-31
 0.9010000E-01  0.1195579E-30
 0.9120000E-01  0.1315450E-30
 0.9230000E-01  0.7536841E-31
 0.9340000E-01 -0.5857195E-31
 0.9450000E-01 -0.2409124E-30
 0.9560000E-01 -0.3969826E-30
 0.9670000E-01 -0.4228598E-30
 0.9780000E-01 -0.2275462E-30
 0.9890000E-01  0.2079689E-30
 0.1000000E+00  0.7789263E-30
 0.1011000E+00  0.1245807E-29
 0.1022000E+00  0.1292968E-29
 0.1033000E+00  0.6620921E-30
 0.1044000E+00 -0.6737308E-30
 0.1055000E+00 -0.2370520E-29
 0.1066000E+00 -0.3704258E-29
 0.1077000E+00 -0.3765504E-29
 0.1088000E+00 -0.1856466E-29
 0.1099000E+00  0.2022898E-29
 0.1110000E+00  0.6819514E-29
 0.1121000E+00  0.1046106E-28
 0.1132000E+00  0.1045413E-28
 0.1143000E+00  0.5001951E-29
 0.1154000E+00 -0.5704856E-29
 0.1165000E+00 -0.1863086E-28
 0.1176000E+00 -0.2813421E-28
 0.1187000E+00 -0.2769094E-28
 0.1198000E+00 -0.1288719E-28
 0.1209000E+00  0.1531057E-28
 0.1220000E+00  0.4859639E-28
 0.1231000E+00  0.7229500E-28
 0.1242000E+00  0.7006812E-28
 0.1253000E+00  0.3156926E-28
 0.1264000E+00 -0.3962435E-28
 0.1275000E+00 -0.1217805E-27
 0.1286000E+00 -0.1782593E-27
 0.1297000E+00 -0.1697687E-27
 0.1308000E+00 -0.7316372E-28
 0.1319000E+00  0.1000720E-27
 0.1330000E+00  0.2952206E-27
 0.1341000E+00  0.4240583E-27
 0.1352000E+00  0.3954886E-27
 0.1363000E+00  0.1600644E-27
 0.1374000E+00 -0.2484975E-27
 0.1385000E+00 -0.6969378E-27
 0.1396000E+00 -0.9794272E-27
 0.1407000E+00 -0.8914251E-27
 0.1418000E+00 -0.3317700E-27
 0.1429000E+00  0.6070540E-27
 0.1440000E+00  0.1610038E-26
 0.1451000E+00  0.2210005E-26
 0.1462000E+00  0.1959962E-26
 0.1473000E+00  0.6605495E-27
 0.1484000E+00 -0.1449184E-26
 0.1495000E+00 -0.3645396E-26
 0.1506000E+00 -0.4893577E-26
 0.1517000E+00 -0.4238593E-26
 0.1528000E+00 -0.1298245E-26
 0.1539000E+00  0.3343296E-26
 0.1550000E+00  0.8069874E-26
 0.1561000E+00  0.1064421E-25
 0.1572000E+00  0.9064513E-26
 0.1583000E+00  0.2609062E-26
 0.1594000E+00 -0.7369945E-26
 0.1605000E+00 -0.1737177E-25
 0.1616000E+00 -0.2267449E-25
 0.1627000E+00 -0.1916102E-25
 0.1638000E+00 -0.5475186E-26
 0.1649000E+00  0.1540914E-25
 0.1660000E+00  0.3614648E-25
 0.1671000E+00  0.4702869E-25
 0.1682000E+00  0.3976374E-25
 0.1693000E+00  0.1181410E-25
 0.1704000E+00 -0.3056840E-25
 0.1715000E+00 -0.7245278E-25
 0.1726000E+00 -0.9442570E-25
 0.1737000E+00 -0.8019093E-25
 0.1748000E+00 -0.2507868E-25
 0.1759000E+00  0.5822240E-25
 0.1770000E+00  0.1402280E-24
 0.1781000E+00  0.1831641E-24
 0.1792000E+00  0.1558596E-24
 0.1803000E+00  0.5003665E-25
 0.1814000E+00 -0.1091282E-24
 0.1825000E+00 -0.2647375E-24
 0.1836000E+00 -0.3450058E-24
 0.1847000E+00 -0.2918244E-24
 0.1858000E+00 -0.9130228E-25
 0.1869000E+00  0.2071963E-24
 0.1880000E+00  0.4955563E-24
 0.1891000E+00  0.6395981E-24
 0.1902000E+00  0.5329572E-24
 0.1913000E+00  0.1534744E-24
 0.1924000E+00 -0.4029688E-24
 0.1935000E+00 -0.9329253E-24
 0.1946000E+00 -0.1187737E-23
 0.1957000E+00 -0.9737974E-24
 0.1968000E+00 -0.2556659E-24
 0.1979000E+00  0.7838969E-24
 0.1990000E+00  0.1765910E-23
 0.2001000E+00  0.2231575E-23
 0.2012000E+00  0.1826275E-23
 0.2023000E+00  0.4867931E-24
 0.2034000E+00 -0.1451186E-23
 0.2045000E+00 -0.3294457E-23
 0.2056000E+00 -0.4203367E-23
 0.2067000E+00 -0.3523324E-23
 0.2078000E+00 -0.1121295E-23
 0.2089000E+00  0.2419833E-23
 0.2100000E+00  0.5870709E-23
 0.2111000E+00  0.7724800E-23
 0.2122000E+00  0.6780782E-23
 0.2133000E+00  0.2736574E-23
 0.2144000E+00 -0.3460613E-23
 0.2155000E+00 -0.9718985E-23
 0.2166000E+00 -0.1342468E-22
 0.2177000E+00 -0.1243484E-22
 0.2188000E+00 -0.6098709E-23
 0.2199000E+00  0.4127289E-23
 0.2210000E+00  0.1482791E-22
 0.2221000E+00  0.2164921E-22
 0.2232000E+00  0.2094573E-22
 0.2243000E+00  0.1148394E-22
 0.2254000E+00 -0.4519483E-23
 0.2265000E+00 -0.2161782E-22
 0.2276000E+00 -0.3279113E-22
 0.2287000E+00 -0.3213483E-22
 0.2298000E+00 -0.1763986E-22
 0.2309000E+00  0.7120607E-23
 0.2320000E+00  0.3336609E-22
 0.2331000E+00  0.4982992E-22
 0.2342000E+00  0.4715487E-22
 0.2353000E+00  0.2241808E-22
 0.2364000E+00 -0.1815396E-22
 0.2375000E+00 -0.5986080E-22
 0.2386000E+00 -0.8405385E-22
 0.2397000E+00 -0.7541154E-22
 0.2408000E+00 -0.2943463E-22
 0.2419000E+00  0.4301774E-22
 0.2430000E+00  0.1167624E-21
 0.2441000E+00  0.1597034E-21
 0.2452000E+00  0.1448934E-21
 0.2463000E+00  0.6318159E-22
 0.2474000E+00 -0.6873657E-22
 0.2485000E+00 -0.2092234E-21
 0.2496000E+00 -0.3030999E-21
 0.2507000E+00 -0.3010584E-21
 0.2518000E+00 -0.1808026E-21
 0.2529000E+00  0.3832552E-22
 0.2540000E+00  0.2944132E-21
 0.2551000E+00  0.4987316E-21
 0.2562000E+00  0.5649829E-21
 0.2573000E+00  0.4428437E-21
 0.2584000E+00  0.1432882E-21
 0.2595000E+00 -0.2556539E-21
 0.2606000E+00 -0.6280857E-21
 0.2617000E+00 -0.8406510E-21
 0.2628000E+00 -0.8013850E-21
 0.2639000E+00 -0.4989565E-21
 0.2650000E+00 -0.1550989E-22
 0.2661000E+00  0.4953797E-21
 0.2672000E+00  0.8611242E-21
 0.2683000E+00  0.9553505E-21
 0.2694000E+00  0.7507182E-21
 0.2705000E+00  0.3358638E-21
 0.2716000E+00 -0.1150753E-21
 0.2727000E+00 -0.4132817E-21
 0.2738000E+00 -0.4408227E-21
 0.2749000E+00 -0.2148882E-21
 0.2760000E+00  0.1019742E-21
 0.2771000E+00  0.2600633E-21
 0.2782000E+00  0.3573610E-22
 0.2793000E+00 -0.6410910E-21
 0.2804000E+00 -0.1600776E-20
 0.2815000E+00 -0.2438529E-20
 0.2826000E+00 -0.2630364E-20
 0.2837000E+00 -0.1737509E-20
 0.2848000E+00  0.3667274E-21
 0.2859000E+00  0.3338104E-20
 0.2870000E+00  0.6353500E-20
 0.2881000E+00  0.8293832E-20
 0.2892000E+00  0.8090382E-20
 0.2903000E+00  0.5137282E-20
 0.2914000E+00 -0.3720109E-21
 0.2925000E+00 -0.7324768E-20
 0.2936000E+00 -0.1387082E-19
 0.2947000E+00 -0.1789486E-19
 0.2958000E+00 -0.1766087E-19
 0.2969000E+00 -0.1243101E-19
 0.2980000E+00 -0.2843660E-20
 0.2991000E+00  0.9106526E-20
 0.3002000E+00  0.2052190E-19
 0.3013000E+00  0.2837691E-19
 0.3024000E+00  0.3038233E-19
 0.3035000E+00  0.2565893E-19
 0.3046000E+00  0.1499176E-19
 0.3057000E+00  0.5743185E-21
 0.3068000E+00 -0.1466784E-19
 0.3079000E+00 -0.2792761E-19
 0.3090000E+00 -0.3722382E-19
 0.3101000E+00 -0.4169941E-19
 0.3112000E+00 -0.4140708E-19
 0.3123000E+00 -0.3669904E-19
 0.3134000E+00 -0.2753273E-19
 0.3145000E+00 -0.1308903E-19
 0.3156000E+00  0.7975247E-20
 0.3167000E+00  0.3654825E-19
 0.3178000E+00  0.7158477E-19
 0.3189000E+00  0.1086568E-18
 0.3200000E+00  0.1392273E-18
 0.3211000E+00  0.1512845E-18
 0.3222000E+00  0.1316766E-18
 0.3233000E+00  0.6999533E-19
 0.3244000E+00 -0.3670987E-19
 0.3255000E+00 -0.1795883E-18
 0.3266000E+00 -0.3354847E-18
 0.3277000E+00 -0.4676716E-18
 0.3288000E+00 -0.5307670E-18
 0.3299000E+00 -0.4799733E-18
 0.3310000E+00 -0.2836970E-18
 0.3321000E+00  0.6259400E-19
 0.3332000E+00  0.5245176E-18
 0.3343000E+00  0.1022879E-17
 0.3354000E+00  0.1437678E-17
 0.3365000E+00  0.1624913E-17
 0.3376000E+00  0.1446786E-17
 0.3387000E+00  0.8123927E-18
 0.3398000E+00 -0.2782626E-18
 0.3409000E+00 -0.1698174E-17
 0.3420000E+00 -0.3178943E-17
 0.3431000E+00 -0.4331339E-17
 0.3442000E+00 -0.4709203E-17
 0.3453000E+00 -0.3915554E-17
 0.3464000E+00 -0.1736451E-17
 0.3475000E+00  0.1726182E-17
 0.3486000E+00  0.5962909E-17
 0.3497000E+00  0.1004990E-16
 0.3508000E+00  0.1276181E-16
 0.3519000E+00  0.1281658E-16
 0.3530000E+00  0.9229154E-17
 0.3541000E+00  0.1709529E-17
 0.3552000E+00 -0.8996850E-17
 0.3563000E+00 -0.2094847E-16
 0.3574000E+00 -0.3114002E-16
 0.3585000E+00 -0.3599431E-16
 0.3596000E+00 -0.3219809E-16
 0.3607000E+00 -0.1775926E-16
 0.3618000E+00  0.6945200E-17
 0.3629000E+00  0.3843868E-16
 0.3640000E+00  0.7005453E-16
 0.3651000E+00  0.9273417E-16
 0.3662000E+00  0.9679099E-16
 0.3673000E+00  0.7446669E-16
 0.3684000E+00  0.2282095E-16
 0.3695000E+00 -0.5375429E-16
 0.3706000E+00 -0.1422368E-15
 0.3717000E+00 -0.2216720E-15
 0.3728000E+00 -0.2663450E-15
 0.3739000E+00 -0.2513725E-15
 0.3750000E+00 -0.1599648E-15
 0.3761000E+00  0.9100958E-17
 0.3772000E+00  0.2358008E-15
 0.3783000E+00  0.4771414E-15
 0.3794000E+00  0.6711895E-15
 0.3805000E+00  0.7476565E-15
 0.3816000E+00  0.6443215E-15
 0.3827000E+00  0.3267565E-15
 0.3838000E+00 -0.1929000E-15
 0.3849000E+00 -0.8434930E-15
 0.3860000E+00 -0.1494139E-14
 0.3871000E+00 -0.1969268E-14
 0.3882000E+00 -0.2080551E-14
 0.3893000E+00 -0.1672713E-14
 0.3904000E+00 -0.6756540E-15
 0.3915000E+00  0.8487862E-15
 0.3926000E+00  0.2679351E-14
 0.3937000E+00  0.4440480E-14
 0.3948000E+00  0.5649061E-14
 0.3959000E+00  0.5803988E-14
 0.3970000E+00  0.4509084E-14
 0.3981000E+00  0.1608553E-14
 0.3992000E+00 -0.2695468E-14
 0.4003000E+00 -0.7778486E-14
 0.4014000E+00 -0.1261500E-13
 0.4025000E+00 -0.1590682E-13
 0.4036000E+00 -0.1631931E-13
 0.4047000E+00 -0.1280032E-13
 0.4058000E+00 -0.4928786E-14
 0.4069000E+00  0.6783409E-14
 0.4080000E+00  0.2072334E-13
 0.4091000E+00  0.3422371E-13
 0.4102000E+00  0.4387719E-13
 0.4113000E+00  0.4612293E-13
 0.4124000E+00  0.3804675E-13
 0.4135000E+00  0.1826917E-13
 0.4146000E+00 -0.1226125E-13
 0.4157000E+00 -0.4978155E-13
 0.4168000E+00 -0.8773680E-13
 0.4179000E+00 -0.1174529E-12
 0.4190000E+00 -0.1294923E-12
 0.4201000E+00 -0.1155798E-12
 0.4212000E+00 -0.7082437E-13
 0.4223000E+00  0.4176725E-14
 0.4234000E+00  0.1018555E-12
 0.4245000E+00  0.2073137E-12
 0.4256000E+00  0.2994781E-12
 0.4267000E+00  0.3539362E-12
 0.4278000E+00  0.3472997E-12
 0.4289000E+00  0.2625701E-12
 0.4300000E+00  0.9463095E-13
 0.4311000E+00 -0.1452703E-12
 0.4322000E+00 -0.4272687E-12
 0.4333000E+00 -0.7039281E-12
 0.4344000E+00 -0.9152461E-12
 0.4355000E+00 -0.9976317E-12
 0.4366000E+00 -0.8960560E-12
 0.4377000E+00 -0.5777273E-12
 0.4388000E+00 -0.4491839E-13
 0.4399000E+00  0.6558550E-12
 0.4410000E+00  0.1431078E-11
 0.4421000E+00  0.2146096E-11
 0.4432000E+00  0.2640640E-11
 0.4443000E+00  0.2753430E-11
 0.4454000E+00  0.2353410E-11
 0.4465000E+00  0.1373237E-11
 0.4476000E+00 -0.1607549E-12
 0.4487000E+00 -0.2108712E-11
 0.4498000E+00 -0.4213729E-11
 0.4509000E+00 -0.6119345E-11
 0.4520000E+00 -0.7409964E-11
 0.4531000E+00 -0.7672397E-11
 0.4542000E+00 -0.6572462E-11
 0.4553000E+00 -0.3936447E-11
 0.4564000E+00  0.1759587E-12
 0.4575000E+00  0.5422284E-11
 0.4586000E+00  0.1116575E-10
 0.4597000E+00  0.1651264E-10
 0.4608000E+00  0.2040356E-10
 0.4619000E+00  0.2175582E-10
 0.4630000E+00  0.1964436E-10
 0.4641000E+00  0.1349996E-10
 0.4652000E+00  0.3295265E-11
 0.4663000E+00 -0.1031493E-10
 0.4674000E+00 -0.2593285E-10
 0.4685000E+00 -0.4146464E-10
 0.4696000E+00 -0.5429193E-10
 0.4707000E+00 -0.6156890E-10
 0.4718000E+00 -0.6062614E-10
 0.4729000E+00 -0.4944153E-10
 0.4740000E+00 -0.2711952E-10
 0.4751000E+00  0.5693474E-11
 0.4762000E+00  0.4653567E-10
 0.4773000E+00  0.9107170E-10
 0.4784000E+00  0.1333055E-09
 0.4795000E+00  0.1660923E-09
 0.4806000E+00  0.1819387E-09
 0.4817000E+00  0.1740359E-09
 0.4828000E+00  0.1374272E-09
 0.4839000E+00  0.7016946E-10
 0.4850000E+00 -0.2567786E-10
 0.4861000E+00 -0.1434106E-09
 0.4872000E+00 -0.2715483E-09
 0.4883000E+00 -0.3943375E-09
 0.4894000E+00 -0.4929511E-09
 0.4905000E+00 -0.5473660E-09
 0.4916000E+00 -0.5388063E-09
 0.4927000E+00 -0.4525421E-09
 0.4938000E+00 -0.2807541E-09
 0.4949000E+00 -0.2510357E-10
 0.4960000E+00  0.3013708E-09
 0.4971000E+00  0.6734023E-09
 0.4982000E+00  0.1053994E-08
 0.4993000E+00  0.1396462E-08
 0.5004000E+00  0.1648067E-08
 0.5015000E+00  0.1755102E-08
 0.5026000E+00  0.1669110E-08
 0.5037000E+00  0.1353724E-08
 0.5048000E+00  0.7914850E-09
 0.5059000E+00 -0.1011714E-10
 0.5070000E+00 -0.1014156E-08
 0.5081000E+00 -0.2152051E-08
 0.5092000E+00 -0.3324197E-08
 0.5103000E+00 -0.4403836E-08
 0.5114000E+00 -0.5244241E-08
 0.5125000E+00 -0.5689036E-08
 0.5136000E+00 -0.5585113E-08
 0.5147000E+00 -0.4797374E-08
 0.5158000E+00 -0.3224264E-08
 0.5169000E+00 -0.8129878E-09
 0.5180000E+00  0.2426749E-08
 0.5191000E+00  0.6411477E-08
 0.5202000E+00  0.1097594E-07
 0.5213000E+00  0.1586873E-07
 0.5224000E+00  0.2075143E-07
 0.5235000E+00  0.2520092E-07
 0.5246000E+00  0.2871342E-07
 0.5257000E+00  0.3070900E-07
 0.5268000E+00  0.3053445E-07
 0.5279000E+00  0.2746206E-07
 0.5290000E+00  0.2068206E-07
 0.5301000E+00  0.9285902E-08
 0.5312000E+00 -0.7761999E-08
 0.5323000E+00 -0.3166654E-07
 0.5334000E+00 -0.6386026E-07
 0.5345000E+00 -0.1060799E-06
 0.5356000E+00 -0.1604625E-06
 0.5367000E+00 -0.2296638E-06
 0.5378000E+00 -0.3169993E-06
 0.5389000E+00 -0.4266111E-06
 0.5400000E+00 -0.5636630E-06
 0.5411000E+00 -0.7345661E-06
 0.5422000E+00 -0.9472400E-06
 0.5433000E+00 -0.1211413E-05
 0.5444000E+00 -0.1538968E-05
 0.5455000E+00 -0.1944341E-05
 0.5466000E+00 -0.2444980E-05
 0.5477000E+00 -0.3061872E-05
 0.5488000E+00 -0.3820149E-05
 0.5499000E+00 -0.4749780E-05
 0.5510000E+00 -0.5886363E-05
 0.5521000E+00 -0.7272023E-05
 0.5532000E+00 -0.8956426E-05
 0.5543000E+00 -0.1099792E-04
 0.5554000E+00 -0.1346482E-04
 0.5565000E+00 -0.1643679E-04
 0.5576000E+00 -0.2000642E-04
 0.5587000E+00 -0.2428091E-04
 0.5598000E+00 -0.2938391E-04
 0.5609000E+00 -0.3545749E-04
 0.5620000E+00 -0.4266420E-04
 0.5631000E+00 -0.5118929E-04
 0.5642000E+00 -0.6124300E-04
 0.5653000E+00 -0.7306290E-04
 0.5664000E+00 -0.8691624E-04
 0.5675000E+00 -0.1031023E-03
 0.5686000E+00 -0.1219547E-03
 0.5697000E+00 -0.1438434E-03
 0.5708000E+00 -0.1691770E-03
 0.5719000E+00 -0.1984039E-03
 0.5730000E+00 -0.2320143E-03
 0.5741000E+00 -0.2705400E-03
 0.5752000E+00 -0.3145559E-03
 0.5763000E+00 -0.3646786E-03
 0.5774000E+00 -0.4215655E-03
 0.5785000E+00 -0.4859126E-03
 0.5796000E+00 -0.5584516E-03
 0.5807000E+00 -0.6399449E-03
 0.5818000E+00 -0.7311802E-03
 0.5829000E+00 -0.8329631E-03
 0.5840000E+00 -0.9461088E-03
 0.5851000E+00 -0.1071432E-02
 0.5862000E+00 -0.1209733E-02
 0.5873000E+00 -0.1361789E-02
 0.5884000E+00 -0.1528331E-02
 0.5895000E+00 -0.1710035E-02
 0.5906000E+00 -0.1907498E-02
 0.5917000E+00 -0.2121221E-02
 0.5928000E+00 -0.2351585E-02
 0.5939000E+00 -0.2598830E-02
 0.5950000E+00 -0.2863035E-02
 0.5961000E+00 -0.3144090E-02
 0.5972000E+00 -0.3441675E-02
 0.5983000E+00 -0.3755237E-02
 0.5994000E+00 -0.4083968E-02
 0.6005000E+00 -0.4426784E-02
 0.6016000E+00 -0.4782308E-02
 0.6027000E+00 -0.5148854E-02
 0.6038000E+00 -0.5524414E-02
 0.6049000E+00 -0.5906650E-02
 0.6060000E+00 -0.6292892E-02
 0.6071000E+00 -0.6680137E-02
 0.6082000E+00 -0.7065059E-02
 0.6093000E+00 -0.7444016E-02
 0.6104000E+00 -0.7813077E-02
 0.6115000E+00 -0.8168046E-02
 0.6126000E+00 -0.8504492E-02
 0.6137000E+00 -0.8817793E-02
 0.6148000E+00 -0.9103180E-02
 0.6159000E+00 -0.9355794E-02
 0.6170000E+00 -0.9570740E-02
 0.6181000E+00 -0.9743158E-02
 0.6192000E+00 -0.9868287E-02
 0.6203000E+00 -0.9941541E-02
 0.6214000E+00 -0.9958586E-02
 0.6225000E+00 -0.9915414E-02
 0.6236000E+00 -0.9808422E-02
 0.6247000E+00 -0.9634488E-02
 0.6258000E+00 -0.9391043E-02
 0.6269000E+00 -0.9076141E-02
 0.6280000E+00 -0.8688519E-02
 0.6291000E+00 -0.8227653E-02
 0.6302000E+00 -0.7693808E-02
 0.6313000E+00 -0.7088067E-02
 0.6324000E+00 -0.6412361E-02
 0.6335000E+00 -0.5669481E-02
 0.6346000E+00 -0.4863075E-02
 0.6357000E+00 -0.3997634E-02
 0.6368000E+00 -0.3078464E-02
 0.6379000E+00 -0.2111645E-02
 0.6390000E+00 -0.1103972E-02
 0.6401000E+00 -0.6288631E-04
 0.6412000E+00  0.1003602E-02
 0.6423000E+00  0.2087012E-02
 0.6434000E+00  0.3178490E-02
 0.6445000E+00  0.4268922E-02
 0.6456000E+00  0.5349053E-02
 0.6467000E+00  0.6409598E-02
 0.6478000E+00  0.7441375E-02
 0.6489000E+00  0.8435425E-02
 0.6500000E+00  0.9383129E-02
 0.6511000E+00  0.1027633E-01
 0.6522000E+00  0.1110743E-01
 0.6533000E+00  0.1186951E-01
 0.6544000E+00  0.1255641E-01
 0.6555000E+00  0.1316280E-01
 0.6566000E+00  0.1368425E-01
 0.6577000E+00  0.1411729E-01
 0.6588000E+00  0.1445944E-01
 0.6599000E+00  0.1470923E-01
 0.6610000E+00  0.1486619E-01
 0.6621000E+00  0.1493086E-01
 0.6632000E+00  0.1490474E-01
 0.6643000E+00  0.1479028E-01
 0.6654000E+00  0.1459079E-01
 0.6665000E+00  0.1431039E-01
 0.6676000E+00  0.1395394E-01
 0.6687000E+00  0.1352693E-01
 0.6698000E+00  0.1303543E-01
 0.6709000E+00  0.1248592E-01
 0.6720000E+00  0.1188527E-01
 0.6731000E+00  0.1124058E-01
 0.6742000E+00  0.1055908E-01
 0.6753000E+00  0.9848085E-02
 0.6764000E+00  0.9114819E-02
 0.6775000E+00  0.8366384E-02
 0.6786000E+00  0.7609650E-02
 0.6797000E+00  0.6851192E-02
 0.6808000E+00  0.6097207E-02
 0.6819000E+00  0.5353472E-02
 0.6830000E+00  0.4625287E-02
 0.6841000E+00  0.3917440E-02
 0.6852000E+00  0.3234182E-02
 0.6863000E+00  0.2579209E-02
 0.6874000E+00  0.1955651E-02
 0.6885000E+00  0.1366080E-02
 0.6896000E+00  0.8125080E-03
 0.6907000E+00  0.2964152E-03
 0.6918000E+00 -0.1812327E-03
 0.6929000E+00 -0.6199525E-03
 0.6940000E+00 -0.1019710E-02
 0.6951000E+00 -0.1380882E-02
 0.6962000E+00 -0.1704219E-02
 0.6973000E+00 -0.1990800E-02
 0.6984000E+00 -0.2241995E-02
 0.6995000E+00 -0.2459415E-02
 0.7006000E+00 -0.2644874E-02
 0.7017000E+00 -0.2800350E-02
 0.7028000E+00 -0.2927943E-02
 0.7039000E+00 -0.3029841E-02
 0.7050000E+00 -0.3108287E-02
 0.7061000E+00 -0.3165544E-02
 0.7072000E+00 -0.3203871E-02
 0.7083000E+00 -0.3225495E-02
 0.7094000E+00 -0.3232592E-02
 0.7105000E+00 -0.3227269E-02
 0.7116000E+00 -0.3211546E-02
 0.7127000E+00 -0.3187345E-02
 0.7138000E+00 -0.3156478E-02
 0.7149000E+00 -0.3120638E-02
 0.7160000E+00 -0.3081392E-02
 0.7171000E+00 -0.3040181E-02
 0.7182000E+00 -0.2998313E-02
 0.7193000E+00 -0.2956961E-02
 0.7204000E+00 -0.2917166E-02
 0.7215000E+00 -0.2879831E-02
 0.7226000E+00 -0.2845728E-02
 0.7237000E+00 -0.2815492E-02
 0.7248000E+00 -0.2789633E-02
 0.7259000E+00 -0.2768532E-02
 0.7270000E+00 -0.2752446E-02
 0.7281000E+00 -0.2741510E-02
 0.7292000E+00 -0.2735742E-02
 0.7303000E+00 -0.2735043E-02
 0.7314000E+00 -0.2739208E-02
 0.7325000E+00 -0.2747928E-02
 0.7336000E+00 -0.2760798E-02
 0.7347000E+00 -0.2777319E-02
 0.7358000E+00 -0.2796908E-02
 0.7369000E+00 -0.2818907E-02
 0.7380000E+00 -0.2842583E-02
 0.7391000E+00 -0.2867147E-02
 0.7402000E+00 -0.2891758E-02
 0.7413000E+00 -0.2915536E-02
 0.7424000E+00 -0.2937570E-02
 0.7435000E+00 -0.2956934E-02
 0.7446000E+00 -0.2972689E-02
 0.7457000E+00 -0.2983904E-02
 0.7468000E+00 -0.2989666E-02
 0.7479000E+00 -0.2989090E-02
 0.7490000E+00 -0.2981332E-02
 0.7501000E+00 -0.2965604E-02
 0.7512000E+00 -0.2941177E-02
 0.7523000E+00 -0.2907399E-02
 0.7534000E+00 -0.2863704E-02
 0.7545000E+00 -0.2809620E-02
 0.7556000E+00 -0.2744777E-02
 0.7567000E+00 -0.2668913E-02
 0.7578000E+00 -0.2581880E-02
 0.7589000E+00 -0.2483646E-02
 0.7600000E+00 -0.2374299E-02
 0.7611000E+00 -0.2254048E-02
 0.7622000E+00 -0.2123224E-02
 0.7633000E+00 -0.1982278E-02
 0.7644000E+00 -0.1831772E-02
 0.7655000E+00 -0.1672379E-02
 0.7666000E+00 -0.1504870E-02
 0.7677000E+00 -0.1330112E-02
 0.7688000E+00 -0.1149057E-02
 0.7699000E+00 -0.9627327E-03
 0.7710000E+00 -0.7722288E-03
 0.7721000E+00 -0.5786862E-03
 0.7732000E+00 -0.3832824E-03
 0.7743000E+00 -0.1872192E-03
 0.7754000E+00  0.8290423E-05
 0.7765000E+00  0.2020353E-03
 0.7776000E+00  0.3928193E-03
 0.7787000E+00  0.5794741E-03
 0.7798000E+00  0.7608721E-03
 0.7809000E+00  0.9359376E-03
 0.7820000E+00  0.1103657E-02
 0.7831000E+00  0.1263087E-02
 0.7842000E+00  0.1413367E-02
 0.7853000E+00  0.1553721E-02
 0.7864000E+00  0.1683471E-02
 0.7875000E+00  0.1802037E-02
 0.7886000E+00  0.1908944E-02
 0.7897000E+00  0.2003824E-02
 0.7908000E+00  0.2086414E-02
 0.7919000E+00  0.2156560E-02
 0.7930000E+00  0.2214214E-02
 0.7941000E+00  0.2259430E-02
 0.7952000E+00  0.2292367E-02
 0.7963000E+00  0.2313276E-02
 0.7974000E+00  0.2322501E-02
 0.7985000E+00  0.2320467E-02
 0.7996000E+00  0.2307679E-02
 0.8007000E+00  0.2284709E-02
 0.8018000E+00  0.2252193E-02
 0.8029000E+00  0.2210818E-02
 0.8040000E+00  0.2161318E-02
 0.8051000E+00  0.2104458E-02
 0.8062000E+00  0.2041034E-02
 0.8073000E+00  0.1971854E-02
 0.8084000E+00  0.1897739E-02
 0.8095000E+00  0.1819504E-02
 0.8106000E+00  0.1737957E-02
 0.8117000E+00  0.1653887E-02
 0.8128000E+00  0.1568053E-02
 0.8139000E+00  0.1481184E-02
 0.8150000E+00  0.1393967E-02
 0.8161000E+00  0.1307044E-02
 0.8172000E+00  0.1221005E-02
 0.8183000E+00  0.1136382E-02
 0.8194000E+00  0.1053649E-02
 0.8205000E+00  0.9732189E-03
 0.8216000E+00  0.8954402E-03
 0.8227000E+00  0.8206017E-03
 0.8238000E+00  0.7489306E-03
 0.8249000E+00  0.6805948E-03
 0.8260000E+00  0.6157052E-03
 0.8271000E+00  0.5543205E-03
 0.8282000E+00  0.4964530E-03
 0.8293000E+00  0.4420757E-03
 0.8304000E+00  0.3911294E-03
 0.8315000E+00  0.3435303E-03
 0.8326000E+00  0.2991770E-03
 0.8337000E+00  0.2579589E-03
 0.8348000E+00  0.2197656E-03
 0.8359000E+00  0.1844957E-03
 0.8370000E+00  0.1520669E-03
 0.8381000E+00  0.1224236E-03
 0.8392000E+00  0.9554374E-04
 0.8403000E+00  0.7144480E-04
 0.8414000E+00  0.5018925E-04
 0.8425000E+00  0.3188985E-04
 0.8436000E+00  0.1671416E-04
 0.8447000E+00  0.4887635E-05
 0.8458000E+00 -0.3305159E-05
 0.8469000E+00 -0.7521055E-05
 0.8480000E+00 -0.7359895E-05
 0.8491000E+00 -0.2366838E-05
 0.8502000E+00  0.7964661E-05
 0.8513000E+00  0.2418858E-04
 0.8524000E+00  0.4690036E-04
 0.8535000E+00  0.7672918E-04
 0.8546000E+00  0.1143291E-03
 0.8557000E+00  0.1603695E-03
 0.8568000E+00  0.2155257E-03
 0.8579000E+00  0.2804693E-03
 0.8590000E+00  0.3558568E-03
 0.8601000E+00  0.4423186E-03
 0.8612000E+00  0.5404456E-03
 0.8623000E+00  0.6507764E-03
 0.8634000E+00  0.7737849E-03
 0.8645000E+00  0.9098681E-03
 0.8656000E+00  0.1059334E-02
 0.8667000E+00  0.1222387E-02
 0.8678000E+00  0.1399118E-02
 0.8689000E+00  0.1589483E-02
 0.8700000E+00  0.1793298E-02
 0.8711000E+00  0.2010219E-02
 0.8722000E+00  0.2239730E-02
 0.8733000E+00  0.2481136E-02
 0.8744000E+00  0.2733545E-02
 0.8755000E+00  0.2995862E-02
 0.8766000E+00  0.3266772E-02
 0.8777000E+00  0.3544741E-02
 0.8788000E+00  0.3828004E-02
 0.8799000E+00  0.4114567E-02
 0.8810000E+00  0.4402208E-02
 0.8821000E+00  0.4688479E-02
 0.8832000E+00  0.4970713E-02
 0.8843000E+00  0.5246034E-02
 0.8854000E+00  0.5511371E-02
 0.8865000E+00  0.5763480E-02
 0.8876000E+00  0.5998964E-02
 0.8887000E+00  0.6214310E-02
 0.8898000E+00  0.6405913E-02
 0.8909000E+00  0.6570117E-02
 0.8920000E+00  0.6703255E-02
 0.8931000E+00  0.6801698E-02
 0.8942000E+00  0.6861902E-02
 0.8953000E+00  0.6880462E-02
 0.8964000E+00  0.6854165E-02
 0.8975000E+00  0.6780050E-02
 0.8986000E+00  0.6655459E-02
 0.8997000E+00  0.6478096E-02
 0.9008000E+00  0.6246082E-02
 0.9019000E+00  0.5958002E-02
 0.9030000E+00  0.5612959E-02
 0.9041000E+00  0.5210609E-02
 0.9052000E+00  0.4751203E-02
 0.9063000E+00  0.4235615E-02
 0.9074000E+00  0.3665361E-02
 0.9085000E+00  0.3042619E-02
 0.9096000E+00  0.2370229E-02
 0.9107000E+00  0.1651688E-02
 0.9118000E+00  0.8911355E-03
 0.9129000E+00  0.9332482E-04
 0.9140000E+00 -0.7364126E-03
 0.9151000E+00 -0.1592214E-02
 0.9162000E+00 -0.2467739E-02
 0.9173000E+00 -0.3356238E-02
 0.9184000E+00 -0.4250624E-02
 0.9195000E+00 -0.5143556E-02
 0.9206000E+00 -0.6027525E-02
 0.9217000E+00 -0.6894949E-02
 0.9228000E+00 -0.7738267E-02
 0.9239000E+00 -0.8550037E-02
 0.9250000E+00 -0.9323033E-02
 0.9261000E+00 -0.1005034E-01
 0.9272000E+00 -0.1072546E-01
 0.9283000E+00 -0.1134236E-01
 0.9294000E+00 -0.1189562E-01
 0.9305000E+00 -0.1238044E-01
 0.9316000E+00 -0.1279274E-01
 0.9327000E+00 -0.1312921E-01
 0.9338000E+00 -0.1338735E-01
 0.9349000E+00 -0.1356549E-01
 0.9360000E+00 -0.1366282E-01
 0.9371000E+00 -0.1367936E-01
 0.9382000E+00 -0.1361601E-01
 0.9393000E+00 -0.1347444E-01
 0.9404000E+00 -0.1325713E-01
 0.9415000E+00 -0.1296728E-01
 0.9426000E+00 -0.1260873E-01
 0.9437000E+00 -0.1218592E-01
 0.9448000E+00 -0.1170381E-01
 0.9459000E+00 -0.1116774E-01
 0.9470000E+00 -0.1058339E-01
 0.9481000E+00 -0.9956635E-02
 0.9492000E+00 -0.9293491E-02
 0.9503000E+00 -0.8599979E-02
 0.9514000E+00 -0.7882040E-02
 0.9525000E+00 -0.7145445E-02
 0.9536000E+00 -0.6395704E-02
 0.9547000E+00 -0.5637990E-02
 0.9558000E+00 -0.4877078E-02
 0.9569000E+00 -0.4117282E-02
 0.9580000E+00 -0.3362417E-02
 0.9591000E+00 -0.2615771E-02
 0.9602000E+00 -0.1880082E-02
 0.9613000E+00 -0.1157547E-02
 0.9624000E+00 -0.4498303E-03
 0.9635000E+00  0.2419114E-03
 0.9646000E+00  0.9169893E-03
 0.9657000E+00  0.1575135E-02
 0.9668000E+00  0.2216439E-02
 0.9679000E+00  0.2841288E-02
 0.9690000E+00  0.3450281E-02
 0.9701000E+00  0.4044157E-02
 0.9712000E+00  0.4623713E-02
 0.9723000E+00  0.5189724E-02
 0.9734000E+00  0.5742865E-02
 0.9745000E+00  0.6283639E-02
 0.9756000E+00  0.6812311E-02
 0.9767000E+00  0.7328846E-02
 0.9778000E+00  0.7832858E-02
 0.9789000E+00  0.8323575E-02