 -0.119999997         0.00000000    
 -0.119000003         0.00000000    
 -0.118000001         0.00000000    
 -0.116999999         0.00000000    
 -0.115999997         0.00000000    
 -0.115000002         0.00000000    
 -0.114000000         0.00000000    
 -0.112999998         0.00000000    
 -0.112000003         0.00000000    
 -0.111000001         0.00000000    
 -0.109999999         0.00000000    
 -0.108999997         0.00000000    
 -0.108000003         0.00000000    
 -0.107000001         0.00000000    
 -0.105999999         0.00000000    
 -0.104999997         0.00000000    
 -0.104000002         0.00000000    
 -0.103000000         0.00000000    
 -0.101999998         2.12034492E-38
 -0.101000004         1.71747624E-37
 -0.100000001         2.64645484E-37
  -9.89999995E-02    -1.95853706E-36
  -9.79999974E-02    -1.37440157E-35
  -9.70000029E-02    -4.19133416E-35
  -9.60000008E-02    -5.14088851E-35
  -9.49999988E-02     1.30010846E-34
  -9.39999968E-02     8.34657284E-34
  -9.30000022E-02     2.01654293E-33
  -9.20000002E-02     1.42139813E-33
  -9.09999982E-02    -8.04141433E-33
  -9.00000036E-02    -3.65492785E-32
  -8.90000015E-02    -7.87374446E-32
  -8.79999995E-02    -6.65970388E-32
  -8.69999975E-02     1.83276637E-31
  -8.60000029E-02     9.14954021E-31
  -8.50000009E-02     2.05156734E-30
  -8.39999989E-02     2.33237320E-30
  -8.29999968E-02    -1.61435266E-30
  -8.20000023E-02    -1.45697593E-29
  -8.10000002E-02    -3.73670041E-29
  -7.99999982E-02    -5.47379563E-29
  -7.90000036E-02    -2.09538364E-29
  -7.80000016E-02     1.37751297E-28
  -7.69999996E-02     4.69527469E-28
  -7.59999976E-02     8.62803326E-28
  -7.50000030E-02     8.62160932E-28
  -7.40000010E-02    -4.01657457E-28
  -7.29999989E-02    -3.84318126E-27
  -7.19999969E-02    -9.27223641E-27
  -7.10000023E-02    -1.35178789E-26
  -7.00000003E-02    -8.90322670E-27
  -6.89999983E-02     1.54330005E-26
  -6.80000037E-02     6.61213658E-26
  -6.70000017E-02     1.30652782E-25
  -6.59999996E-02     1.59887166E-25
  -6.49999976E-02     6.32967384E-26
  -6.40000030E-02    -2.58597258E-25
  -6.30000010E-02    -8.23741672E-25
  -6.19999990E-02    -1.42937445E-24
  -6.10000007E-02    -1.53550957E-24
  -5.99999987E-02    -3.16540915E-25
  -5.90000004E-02     2.94380309E-24
  -5.79999983E-02     8.03739926E-24
  -5.70000000E-02     1.28119042E-23
  -5.60000017E-02     1.26122159E-23
  -5.49999997E-02     1.24005542E-24
  -5.40000014E-02    -2.55935318E-23
  -5.29999994E-02    -6.43629719E-23
  -5.20000011E-02    -9.75213517E-23
  -5.09999990E-02    -9.17664031E-23
  -5.00000007E-02    -7.07455430E-24
  -4.89999987E-02     1.79152748E-22
  -4.80000004E-02     4.35875968E-22
  -4.69999984E-02     6.45630473E-22
  -4.60000001E-02     6.03493335E-22
  -4.50000018E-02     7.99768012E-23
  -4.39999998E-02    -1.03643661E-21
  -4.30000015E-02    -2.54470524E-21
  -4.19999994E-02    -3.77507904E-21
  -4.10000011E-02    -3.61665255E-21
  -3.99999991E-02    -8.74671503E-22
  -3.90000008E-02     4.99626137E-21
  -3.79999988E-02     1.29532413E-20
  -3.70000005E-02     1.96721450E-20
  -3.59999985E-02     1.97631785E-20
  -3.50000001E-02     7.50083421E-21
  -3.40000018E-02    -1.98215028E-20
  -3.29999998E-02    -5.77537891E-20
  -3.20000015E-02    -9.17535296E-20
  -3.09999995E-02    -9.81921225E-20
  -2.99999993E-02    -5.16543209E-20
  -2.89999992E-02     6.12329496E-20
  -2.80000009E-02     2.24971672E-19
  -2.70000007E-02     3.83180562E-19
  -2.60000005E-02     4.41819085E-19
  -2.50000004E-02     2.96314914E-19
  -2.40000002E-02    -1.16693032E-19
  -2.30000000E-02    -7.55862651E-19
  -2.19999999E-02    -1.42778777E-18
  -2.09999997E-02    -1.79248198E-18
  -1.99999996E-02    -1.45230251E-18
  -1.89999994E-02    -1.28160094E-19
  -1.79999992E-02     2.11811631E-18
  -1.70000009E-02     4.70581396E-18
  -1.60000008E-02     6.52207553E-18
  -1.49999997E-02     6.17667923E-18
  -1.40000004E-02     2.54737280E-18
  -1.30000003E-02    -4.49910153E-18
  -1.20000001E-02    -1.34783249E-17
  -1.09999999E-02    -2.11184173E-17
  -9.99999978E-03    -2.29808774E-17
  -8.99999961E-03    -1.49846431E-17
  -8.00000038E-03     4.44083865E-18
  -7.00000022E-03     3.22936903E-17
  -6.00000005E-03     6.00638144E-17
  -4.99999989E-03     7.49256692E-17
  -4.00000019E-03     6.35342672E-17
  -3.00000003E-03     1.78986731E-17
  -2.00000009E-03    -5.84058069E-17
  -1.00000005E-03    -1.46377550E-16
   0.00000000        -2.12902790E-16
   1.00000005E-03    -2.18963576E-16
   2.00000009E-03    -1.34102944E-16
   3.00000003E-03     4.65506345E-17
   4.00000019E-03     2.89076119E-16
   4.99999989E-03     5.18694072E-16
   6.00000005E-03     6.34283470E-16
   7.00000022E-03     5.39940093E-16
   8.00000038E-03     1.86943930E-16
   8.99999961E-03    -3.87425723E-16
   9.99999978E-03    -1.04154538E-15
   1.09999999E-02    -1.54674283E-15
   1.20000001E-02    -1.64619519E-15
   1.30000003E-02    -1.14652400E-15
   1.40000004E-02    -1.68840186E-17
   1.49999997E-02     1.54120429E-15
   1.60000008E-02     3.09061464E-15
   1.70000009E-02     4.04525529E-15
   1.79999992E-02     3.84226300E-15
   1.89999994E-02     2.16103961E-15
   1.99999996E-02    -8.79296697E-16
   2.09999997E-02    -4.62470037E-15
   2.19999999E-02    -7.95902650E-15
   2.30000000E-02    -9.56698218E-15
   2.40000002E-02    -8.34547173E-15
   2.50000004E-02    -3.85616535E-15
   2.60000005E-02     3.33113304E-15
   2.70000007E-02     1.15546848E-14
   2.80000009E-02     1.83331201E-14
   2.89999992E-02     2.09895747E-14
   2.99999993E-02     1.75006595E-14
   3.09999995E-02     7.33675460E-15
   3.20000015E-02    -7.98976279E-15
   3.29999998E-02    -2.49164838E-14
   3.40000018E-02    -3.84856399E-14
   3.50000001E-02    -4.35930351E-14
   3.59999985E-02    -3.65573796E-14
   3.70000005E-02    -1.65808275E-14
   3.79999988E-02     1.33752000E-14
   3.90000008E-02     4.66803821E-14
   3.99999991E-02     7.42456769E-14
   4.10000011E-02     8.66961871E-14
   4.19999994E-02     7.70384800E-14
   4.30000015E-02     4.31360134E-14
   4.39999998E-02    -1.07438294E-14
   4.50000018E-02    -7.38947003E-14
   4.60000001E-02    -1.30897842E-13
   4.69999984E-02    -1.64917166E-13
   4.80000004E-02    -1.61928427E-13
   4.89999987E-02    -1.14922977E-13
   5.00000007E-02    -2.70106694E-14
   5.09999990E-02     8.75168332E-14
   5.20000011E-02     2.04726508E-13
   5.29999994E-02     2.95210145E-13
   5.40000014E-02     3.30296527E-13
   5.49999997E-02     2.89189869E-13
   5.60000017E-02     1.65550977E-13
   5.70000000E-02    -2.80695978E-14
   5.79999983E-02    -2.59336389E-13
   5.90000004E-02    -4.79653914E-13
   5.99999987E-02    -6.32216501E-13
   6.10000007E-02    -6.63731873E-13
   6.19999990E-02    -5.37973583E-13
   6.30000010E-02    -2.48467967E-13
   6.40000030E-02     1.72852103E-13
   6.49999976E-02     6.54082149E-13
   6.59999996E-02     1.09105856E-12
   6.70000017E-02     1.36489138E-12
   6.80000037E-02     1.36758844E-12
   6.89999983E-02     1.03154421E-12
   7.00000003E-02     3.56519041E-13
   7.10000023E-02    -5.73373922E-13
   7.19999969E-02    -1.58961342E-12
   7.29999989E-02    -2.46055628E-12
   7.40000010E-02    -2.93408115E-12
   7.50000030E-02    -2.79603467E-12
   7.59999976E-02    -1.93337902E-12
   7.69999996E-02    -3.86946605E-13
   7.80000016E-02     1.62227393E-12
   7.90000036E-02     3.70633385E-12
   7.99999982E-02     5.36880956E-12
   8.10000002E-02     6.10398797E-12
   8.20000023E-02     5.52063820E-12
   8.29999968E-02     3.46443685E-12
   8.39999989E-02     1.07889026E-13
   8.50000009E-02    -4.02166364E-12
   8.60000029E-02    -8.09578099E-12
   8.69999975E-02    -1.11237096E-11
   8.79999995E-02    -1.21589943E-11
   8.90000015E-02    -1.05366072E-11
   9.00000036E-02    -6.08874886E-12
   9.09999982E-02     7.16895456E-13
   9.20000002E-02     8.76407193E-12
   9.30000022E-02     1.64261105E-11
   9.39999968E-02     2.18498431E-11
   9.49999988E-02     2.33443872E-11
   9.60000008E-02     1.98023369E-11
   9.70000029E-02     1.10612396E-11
   9.79999974E-02    -1.88807520E-12
   9.89999995E-02    -1.69198128E-11
  0.100000001        -3.10517480E-11
  0.101000004        -4.09639996E-11
  0.101999998        -4.36809339E-11
  0.103000000        -3.72906150E-11
  0.104000002        -2.15485581E-11
  0.104999997         1.78559175E-12
  0.105999999         2.89943711E-11
  0.107000001         5.48819289E-11
  0.108000003         7.36504330E-11
  0.108999997         8.00464209E-11
  0.109999999         7.05730821E-11
  0.111000001         4.45198912E-11
  0.112000003         4.56296589E-12
  0.112999998        -4.32563568E-11
  0.114000000        -9.02643238E-11
  0.115000002        -1.26552366E-10
  0.115999997        -1.42846582E-10
  0.116999999        -1.32529446E-10
  0.118000001        -9.34162123E-11
  0.119000003        -2.88817859E-11
  0.119999997         5.19889930E-11
  0.120999999         1.35399345E-10
  0.122000001         2.04945907E-10
  0.123000003         2.44556875E-10
  0.123999998         2.41780096E-10
  0.125000000         1.90801042E-10
  0.126000002         9.45429846E-11
  0.127000004        -3.46971549E-11
  0.128000006        -1.76397716E-10
  0.128999993        -3.04746978E-10
  0.129999995        -3.93005406E-10
  0.130999997        -4.18607454E-10
  0.131999999        -3.68085423E-10
  0.133000001        -2.40825221E-10
  0.134000003        -5.07819169E-11
  0.135000005         1.74412706E-10
  0.136000007         3.97070127E-10
  0.136999995         5.75393733E-10
  0.137999997         6.70865308E-10
  0.138999999         6.55812571E-10
  0.140000001         5.19744026E-10
  0.141000003         2.73138873E-10
  0.142000005        -5.22608623E-11
  0.143000007        -4.07036738E-10
  0.143999994        -7.31249228E-10
  0.144999996        -9.64167746E-10
  0.145999998        -1.05502795E-09
  0.147000000        -9.72961933E-10
  0.148000002        -7.14257709E-10
  0.149000004        -3.05450942E-10
  0.150000006         1.98612363E-10
  0.150999993         7.21771531E-10
  0.151999995         1.17775256E-09
  0.152999997         1.48393842E-09
  0.153999999         1.57553237E-09
  0.155000001         1.41774592E-09
  0.156000003         1.01384645E-09
  0.157000005         4.07477690E-10
  0.158000007        -3.21462412E-10
  0.158999994        -1.06707898E-09
  0.159999996        -1.71255166E-09
  0.160999998        -2.14786589E-09
  0.162000000        -2.28753461E-09
  0.163000003        -2.08553419E-09
  0.164000005        -1.54500834E-09
  0.165000007        -7.21006699E-10
  0.165999994         2.84473917E-10
  0.166999996         1.33475109E-09
  0.167999998         2.27653074E-09
  0.169000000         2.96141112E-09
  0.170000002         3.26786487E-09
  0.171000004         3.12058979E-09
  0.172000006         2.50438248E-09
  0.172999993         1.47034451E-09
  0.173999995         1.33185185E-10
  0.174999997        -1.34047295E-09
  0.175999999        -2.75170553E-09
  0.177000001        -3.89464994E-09
  0.178000003        -4.58459670E-09
  0.179000005        -4.68525085E-09
  0.180000007        -4.13147294E-09
  0.180999994        -2.94411828E-09
  0.181999996        -1.23433563E-09
  0.182999998         8.04154743E-10
  0.184000000         2.91484326E-09
  0.185000002         4.80868012E-09
  0.186000004         6.20160767E-09
  0.187000006         6.85483137E-09
  0.187999994         6.61239907E-09
  0.188999996         5.43045031E-09
  0.189999998         3.39310025E-09
  0.191000000         7.11358195E-10
  0.192000002        -2.29634622E-09
  0.193000004        -5.24081445E-09
  0.194000006        -7.71194575E-09
  0.194999993        -9.33545596E-09
  0.195999995        -9.82848380E-09
  0.196999997        -9.04565312E-09
  0.197999999        -7.00801950E-09
  0.199000001        -3.90953447E-09
  0.200000003        -9.88078577E-11
  0.201000005         3.96228339E-09
  0.202000007         7.75793563E-09
  0.202999994         1.07875389E-08
  0.203999996         1.26346285E-08
  0.204999998         1.30255557E-08
  0.206000000         1.18691421E-08
  0.207000002         9.27139343E-09
  0.208000004         5.52306068E-09
  0.209000006         1.06186826E-09
  0.209999993        -3.58510288E-09
  0.210999995        -7.87061527E-09
  0.211999997        -1.12983178E-08
  0.213000000        -1.34858817E-08
  0.214000002        -1.42118015E-08
  0.215000004        -1.34398723E-08
  0.216000006        -1.13184386E-08
  0.216999993        -8.15482526E-09
  0.217999995        -4.36856018E-09
  0.218999997        -4.29591029E-10
  0.219999999         3.21034199E-09
  0.221000001         6.18406037E-09
  0.222000003         8.26392377E-09
  0.223000005         9.39740019E-09
  0.224000007         9.71730252E-09
  0.224999994         9.52381729E-09
  0.225999996         9.23897936E-09
  0.226999998         9.33808408E-09
  0.228000000         1.02658033E-08
  0.229000002         1.23471695E-08
  0.230000004         1.57044102E-08
  0.231000006         2.01896917E-08
  0.231999993         2.53413130E-08
  0.232999995         3.03669587E-08
  0.233999997         3.41532846E-08
  0.234999999         3.52967007E-08
  0.236000001         3.21467581E-08
  0.237000003         2.28518200E-08
  0.238000005         5.39615463E-09
  0.238999993        -2.23811440E-08
  0.239999995        -6.27927506E-08
  0.240999997        -1.18339997E-07
  0.241999999        -1.91781751E-07
  0.243000001        -2.86236769E-07
  0.244000003        -4.05318701E-07
  0.245000005        -5.53304744E-07
  0.246000007        -7.35339597E-07
  0.246999994        -9.57680186E-07
  0.247999996        -1.22798349E-06
  0.248999998        -1.55564317E-06
  0.250000000        -1.95217331E-06
  0.250999987        -2.43163754E-06
  0.252000004        -3.01111731E-06
  0.252999991        -3.71120950E-06
  0.254000008        -4.55655118E-06
  0.254999995        -5.57637168E-06
  0.256000012        -6.80508356E-06
  0.256999999        -8.28293287E-06
  0.257999986        -1.00567349E-05
  0.259000003        -1.21807452E-05
  0.259999990        -1.47176770E-05
  0.261000007        -1.77398961E-05
  0.261999995        -2.13307994E-05
  0.263000011        -2.55863852E-05
  0.263999999        -3.06169786E-05
  0.264999986        -3.65491178E-05
  0.266000003        -4.35275506E-05
  0.266999990        -5.17173539E-05
  0.268000007        -6.13061347E-05
  0.268999994        -7.25063219E-05
  0.270000011        -8.55576072E-05
  0.270999998        -1.00729427E-04
  0.272000015        -1.18323631E-04
  0.273000002        -1.38677191E-04
  0.273999989        -1.62165059E-04
  0.275000006        -1.89203085E-04
  0.275999993        -2.20250964E-04
  0.277000010        -2.55815015E-04
  0.277999997        -2.96450802E-04
  0.279000014        -3.42765445E-04
  0.280000001        -3.95419513E-04
  0.280999988        -4.55128378E-04
  0.282000005        -5.22663177E-04
  0.282999992        -5.98851126E-04
  0.284000009        -6.84575120E-04
  0.284999996        -7.80772767E-04
  0.286000013        -8.88434588E-04
  0.287000000        -1.00860093E-03
  0.287999988        -1.14235817E-03
  0.289000005        -1.29083311E-03
  0.289999992        -1.45518652E-03
  0.291000009        -1.63660478E-03
  0.291999996        -1.83628977E-03
  0.293000013        -2.05544685E-03
  0.294000000        -2.29527196E-03
  0.294999987        -2.55693519E-03
  0.296000004        -2.84156343E-03
  0.296999991        -3.15022212E-03
  0.298000008        -3.48389382E-03
  0.298999995        -3.84345651E-03
  0.300000012        -4.22965968E-03
  0.300999999        -4.64309938E-03
  0.301999986        -5.08419285E-03
  0.303000003        -5.55315008E-03
  0.303999990        -6.04994735E-03
  0.305000007        -6.57429826E-03
  0.305999994        -7.12562818E-03
  0.307000011        -7.70304492E-03
  0.307999998        -8.30531400E-03
  0.308999985        -8.93083494E-03
  0.310000002        -9.57762077E-03
  0.310999990        -1.02432771E-02
  0.312000006        -1.09249903E-02
  0.312999994        -1.16195129E-02
  0.314000010        -1.23231607E-02
  0.314999998        -1.30318105E-02
  0.316000015        -1.37409065E-02
  0.317000002        -1.44454706E-02
  0.317999989        -1.51401190E-02
  0.319000006        -1.58190876E-02
  0.319999993        -1.64762642E-02
  0.321000010        -1.71052273E-02
  0.321999997        -1.76992919E-02
  0.323000014        -1.82515644E-02
  0.324000001        -1.87550019E-02
  0.324999988        -1.92024857E-02
  0.326000005        -1.95868891E-02
  0.326999992        -1.99011564E-02
  0.328000009        -2.01383866E-02
  0.328999996        -2.02919263E-02
  0.330000013        -2.03554537E-02
  0.331000000        -2.03230716E-02
  0.331999987        -2.01893989E-02
  0.333000004        -1.99496597E-02
  0.333999991        -1.95997767E-02
  0.335000008        -1.91364437E-02
  0.335999995        -1.85572132E-02
  0.337000012        -1.78605579E-02
  0.338000000        -1.70459393E-02
  0.338999987        -1.61138568E-02
  0.340000004        -1.50658879E-02
  0.340999991        -1.39047215E-02
  0.342000008        -1.26341730E-02
  0.342999995        -1.12591889E-02
  0.344000012        -9.78582725E-03
  0.344999999        -8.22123606E-03
  0.345999986        -6.57360582E-03
  0.347000003        -4.85211518E-03
  0.347999990        -3.06685898E-03
  0.349000007        -1.22876617E-03
  0.349999994         6.50500297E-04
  0.351000011         2.55865301E-03
  0.351999998         4.48290212E-03
  0.352999985         6.41008560E-03
  0.354000002         8.32680799E-03
  0.354999989         1.02195796E-02
  0.356000006         1.20749613E-02
  0.356999993         1.38797117E-02
  0.358000010         1.56209320E-02
  0.358999997         1.72862094E-02
  0.360000014         1.88637525E-02
  0.361000001         2.03425288E-02
  0.361999989         2.17123851E-02
  0.363000005         2.29641572E-02
  0.363999993         2.40897667E-02
  0.365000010         2.50823051E-02
  0.365999997         2.59361044E-02
  0.367000014         2.66467817E-02
  0.368000001         2.72112824E-02
  0.368999988         2.76279021E-02
  0.370000005         2.78962832E-02
  0.370999992         2.80174036E-02
  0.372000009         2.79935375E-02
  0.372999996         2.78282128E-02
  0.374000013         2.75261402E-02
  0.375000000         2.70931423E-02
  0.375999987         2.65360568E-02
  0.377000004         2.58626454E-02
  0.377999991         2.50814781E-02
  0.379000008         2.42018197E-02
  0.379999995         2.32335068E-02
  0.381000012         2.21868120E-02
  0.381999999         2.10723169E-02
  0.382999986         1.99007820E-02
  0.384000003         1.86830219E-02
  0.384999990         1.74297951E-02
  0.386000007         1.61516815E-02
  0.386999995         1.48589807E-02
  0.388000011         1.35616027E-02
  0.388999999         1.22689763E-02
  0.389999986         1.09899659E-02
  0.391000003         9.73279867E-03
  0.391999990         8.50501470E-03
  0.393000007         7.31342239E-03
  0.393999994         6.16407022E-03
  0.395000011         5.06222574E-03
  0.395999998         4.01236443E-03
  0.397000015         3.01816664E-03
  0.398000002         2.08252645E-03
  0.398999989         1.20757124E-03
  0.400000006         3.94695671E-04
  0.400999993        -3.55397002E-04
  0.402000010        -1.04264554E-03
  0.402999997        -1.66757789E-03
  0.404000014        -2.23125773E-03
  0.405000001        -2.73522921E-03
  0.405999988        -3.18146008E-03
  0.407000005        -3.57228145E-03
  0.407999992        -3.91032593E-03
  0.409000009        -4.19846224E-03
  0.409999996        -4.43973532E-03
  0.411000013        -4.63730656E-03
  0.412000000        -4.79440438E-03
  0.412999988        -4.91427677E-03
  0.414000005        -5.00015123E-03
  0.414999992        -5.05519845E-03
  0.416000009        -5.08249784E-03
  0.416999996        -5.08500403E-03
  0.418000013        -5.06552123E-03
  0.419000000        -5.02668135E-03
  0.419999987        -4.97093145E-03
  0.421000004        -4.90052626E-03
  0.421999991        -4.81752679E-03
  0.423000008        -4.72380221E-03
  0.423999995        -4.62103216E-03
  0.425000012        -4.51071281E-03
  0.425999999        -4.39416384E-03
  0.426999986        -4.27253917E-03
  0.428000003        -4.14684089E-03
  0.428999990        -4.01793793E-03
  0.430000007        -3.88658117E-03
  0.430999994        -3.75342043E-03
  0.432000011        -3.61902057E-03
  0.432999998        -3.48387379E-03
  0.433999985        -3.34841385E-03
  0.435000002        -3.21302935E-03
  0.435999990        -3.07807862E-03
  0.437000006        -2.94390484E-03
  0.437999994        -2.81084818E-03
  0.439000010        -2.67925626E-03
  0.439999998        -2.54948786E-03
  0.441000015        -2.42191390E-03
  0.442000002        -2.29691458E-03
  0.442999989        -2.17487849E-03
  0.444000006        -2.05620006E-03
  0.444999993        -1.94127951E-03
  0.446000010        -1.83052104E-03
  0.446999997        -1.72432896E-03
  0.448000014        -1.62310025E-03
  0.449000001        -1.52721396E-03
  0.449999988        -1.43701956E-03
  0.451000005        -1.35282590E-03
  0.451999992        -1.27489248E-03
  0.453000009        -1.20342383E-03
  0.453999996        -1.13856548E-03
  0.455000013        -1.08039938E-03
  0.456000000        -1.02893868E-03
  0.456999987        -9.84120765E-04
  0.458000004        -9.45802080E-04
  0.458999991        -9.13754397E-04
  0.460000008        -8.87666189E-04
  0.460999995        -8.67148046E-04
  0.462000012        -8.51741643E-04
  0.463000000        -8.40929162E-04
  0.463999987        -8.34142149E-04
  0.465000004        -8.30769248E-04
  0.465999991        -8.30163073E-04
  0.467000008        -8.31648940E-04
  0.467999995        -8.34536448E-04
  0.469000012        -8.38134147E-04
  0.469999999        -8.41766188E-04
  0.470999986        -8.44788156E-04
  0.472000003        -8.46600335E-04
  0.472999990        -8.46657262E-04
  0.474000007        -8.44474824E-04
  0.474999994        -8.39636021E-04
  0.476000011        -8.31797835E-04
  0.476999998        -8.20699264E-04
  0.477999985        -8.06169468E-04
  0.479000002        -7.88133941E-04
  0.479999989        -7.66616315E-04
  0.481000006        -7.41734984E-04
  0.481999993        -7.13695481E-04
  0.483000010        -6.82780636E-04
  0.483999997        -6.49340916E-04
  0.485000014        -6.13786164E-04
  0.486000001        -5.76579070E-04
  0.486999989        -5.38227905E-04
  0.488000005        -4.99277725E-04
  0.488999993        -4.60297626E-04
  0.490000010        -4.21865960E-04
  0.490999997        -3.84554354E-04
  0.492000014        -3.48913542E-04
  0.493000001        -3.15462414E-04
  0.493999988        -2.84680224E-04
  0.495000005        -2.57000793E-04
  0.495999992        -2.32806633E-04
  0.497000009        -2.12421626E-04
  0.497999996        -1.96102483E-04
  0.499000013        -1.84030388E-04
  0.500000000        -1.76304908E-04
  0.500999987        -1.72941931E-04
  0.501999974        -1.73875669E-04
  0.503000021        -1.78963484E-04
  0.504000008        -1.87991507E-04
  0.504999995        -2.00679046E-04
  0.505999982        -2.16681321E-04
  0.507000029        -2.35591389E-04
  0.508000016        -2.56942934E-04
  0.509000003        -2.80215376E-04
  0.509999990        -3.04841989E-04
  0.510999978        -3.30220326E-04
  0.512000024        -3.55723139E-04
  0.513000011        -3.80708545E-04
  0.513999999        -4.04528691E-04
  0.514999986        -4.26537415E-04
  0.515999973        -4.46097867E-04
  0.517000020        -4.62591241E-04
  0.518000007        -4.75426757E-04
  0.518999994        -4.84052172E-04
  0.519999981        -4.87963494E-04
  0.521000028        -4.86712612E-04
  0.522000015        -4.79912618E-04
  0.523000002        -4.67241451E-04
  0.523999989        -4.48444975E-04
  0.524999976        -4.23340301E-04
  0.526000023        -3.91819311E-04
  0.527000010        -3.53851443E-04
  0.527999997        -3.09483934E-04
  0.528999984        -2.58838321E-04
  0.529999971        -2.02102747E-04
  0.531000018        -1.39521144E-04
  0.532000005        -7.13805493E-05
  0.532999992         2.00204022E-06
  0.533999979         8.02929644E-05
  0.535000026         1.63155884E-04
  0.536000013         2.50267563E-04
  0.537000000         3.41336796E-04
  0.537999988         4.36126458E-04
  0.538999975         5.34477760E-04
  0.540000021         6.36334415E-04
  0.541000009         7.41765485E-04
  0.541999996         8.50985292E-04
  0.542999983         9.64370905E-04
  0.544000030         1.08247704E-03
  0.545000017         1.20604970E-03
  0.546000004         1.33603765E-03
  0.546999991         1.47360144E-03
  0.547999978         1.62011781E-03
  0.549000025         1.77717803E-03
  0.550000012         1.94657815E-03
  0.550999999         2.13030330E-03
  0.551999986         2.33050622E-03
  0.552999973         2.54947902E-03
  0.554000020         2.78962357E-03
  0.555000007         3.05341533E-03
  0.555999994         3.34336376E-03
  0.556999981         3.66196479E-03
  0.558000028         4.01164824E-03
  0.559000015         4.39472124E-03
  0.560000002         4.81330603E-03
  0.560999990         5.26928203E-03
  0.561999977         5.76422643E-03
  0.563000023         6.29935786E-03
  0.564000010         6.87548146E-03
  0.564999998         7.49293296E-03
  0.565999985         8.15152936E-03
  0.566999972         8.85051675E-03
  0.568000019         9.58853122E-03
  0.569000006         1.03635648E-02
  0.569999993         1.11729419E-02
  0.570999980         1.20133068E-02
  0.572000027         1.28806224E-02
  0.573000014         1.37701770E-02
  0.574000001         1.46766026E-02
  0.574999988         1.55938957E-02
  0.575999975         1.65154561E-02
  0.577000022         1.74341295E-02
  0.578000009         1.83422659E-02
  0.578999996         1.92317925E-02
  0.579999983         2.00942867E-02
  0.580999970         2.09210664E-02
  0.582000017         2.17032842E-02
  0.583000004         2.24320181E-02
  0.583999991         2.30983738E-02
  0.584999979         2.36935839E-02
  0.586000025         2.42091138E-02
  0.587000012         2.46367715E-02
  0.588000000         2.49688197E-02
  0.588999987         2.51980741E-02
  0.589999974         2.53180098E-02
  0.591000021         2.53228452E-02
  0.592000008         2.52076238E-02
  0.592999995         2.49682888E-02
  0.593999982         2.46017464E-02
  0.595000029         2.41059233E-02
  0.596000016         2.34798156E-02
  0.597000003         2.27235276E-02
  0.597999990         2.18382906E-02
  0.598999977         2.08264682E-02
  0.600000024         1.96915511E-02
  0.601000011         1.84381232E-02
  0.601999998         1.70718357E-02
  0.602999985         1.55993616E-02
  0.603999972         1.40283350E-02
  0.605000019         1.23672914E-02
  0.606000006         1.06255887E-02
  0.606999993         8.81331880E-03
  0.607999980         6.94120675E-03
  0.609000027         5.02050761E-03
  0.610000014         3.06289294E-03
  0.611000001         1.08033535E-03
  0.611999989        -9.15004697E-04
  0.612999976        -2.91089248E-03
  0.614000022        -4.89513483E-03
  0.615000010        -6.85569318E-03
  0.615999997        -8.78079887E-03
  0.616999984        -1.06590604E-02
  0.617999971        -1.24795679E-02
  0.619000018        -1.42319892E-02
  0.620000005        -1.59066506E-02
  0.620999992        -1.74946114E-02
  0.621999979        -1.89877357E-02
  0.623000026        -2.03787405E-02
  0.624000013        -2.16612536E-02
  0.625000000        -2.28298381E-02
  0.625999987        -2.38800272E-02
  0.626999974        -2.48083379E-02
  0.628000021        -2.56122723E-02
  0.629000008        -2.62903087E-02
  0.629999995        -2.68418752E-02
  0.630999982        -2.72673257E-02
  0.632000029        -2.75679063E-02
  0.633000016        -2.77457088E-02
  0.634000003        -2.78036240E-02
  0.634999990        -2.77452916E-02
  0.635999978        -2.75750365E-02
  0.637000024        -2.72977985E-02
  0.638000011        -2.69190762E-02
  0.638999999        -2.64448468E-02
  0.639999986        -2.58814991E-02
  0.640999973        -2.52357610E-02
  0.642000020        -2.45146342E-02
  0.643000007        -2.37253215E-02
  0.643999994        -2.28751637E-02
  0.644999981        -2.19715778E-02
  0.646000028        -2.10219957E-02
  0.647000015        -2.00338103E-02
  0.648000002        -1.90143213E-02
  0.648999989        -1.79706924E-02
  0.649999976        -1.69099029E-02
  0.651000023        -1.58386976E-02
  0.652000010        -1.47635574E-02
  0.652999997        -1.36906616E-02
  0.653999984        -1.26258610E-02
  0.654999971        -1.15746548E-02
  0.656000018        -1.05421701E-02
  0.657000005        -9.53314826E-03
  0.657999992        -8.55192542E-03
  0.658999979        -7.60242296E-03
  0.660000026        -6.68813335E-03
  0.661000013        -5.81211410E-03
  0.662000000        -4.97698318E-03
  0.662999988        -4.18491941E-03
  0.663999975        -3.43766925E-03
  0.665000021        -2.73655518E-03
  0.666000009        -2.08248175E-03
  0.666999996        -1.47594640E-03
  0.667999983        -9.17050231E-04
  0.669000030        -4.05510160E-04
  0.670000017         5.93238256E-05
  0.671000004         4.78447153E-04
  0.671999991         8.53174424E-04
  0.672999978         1.18511100E-03
  0.674000025         1.47612323E-03
  0.675000012         1.72830943E-03
  0.675999999         1.94397010E-03
  0.676999986         2.12557823E-03
  0.677999973         2.27574585E-03
  0.679000020         2.39718705E-03
  0.680000007         2.49267905E-03
  0.680999994         2.56501976E-03
  0.681999981         2.61698989E-03
  0.683000028         2.65131774E-03
  0.684000015         2.67064781E-03
  0.685000002         2.67751445E-03
  0.685999990         2.67431536E-03
  0.686999977         2.66328617E-03
  0.688000023         2.64647487E-03
  0.689000010         2.62571708E-03