-0.1200000E+00  0.0000000E+00
-0.1189000E+00  0.0000000E+00
-0.1178000E+00  0.0000000E+00
-0.1167000E+00  0.0000000E+00
-0.1156000E+00  0.0000000E+00
-0.1145000E+00  0.0000000E+00
-0.1134000E+00  0.0000000E+00
-0.1123000E+00  0.0000000E+00
-0.1112000E+00  0.0000000E+00
-0.1101000E+00  0.0000000E+00
-0.1090000E+00  0.0000000E+00
-0.1079000E+00  0.2709293E-35
-0.1068000E+00 -0.1880810E-34
-0.1057000E+00 -0.5705029E-32
-0.1046000E+00 -0.9689181E-31
-0.1035000E+00 -0.8245117E-30
-0.1024000E+00 -0.4468890E-29
-0.1013000E+00 -0.1641786E-28
-0.1002000E+00 -0.3801649E-28
-0.9910000E-01 -0.2233037E-28
-0.9800000E-01  0.2508734E-27
-0.9690000E-01  0.1348685E-26
-0.9580000E-01  0.4035066E-26
-0.9470000E-01  0.7746667E-26
-0.9360000E-01  0.6234446E-26
-0.9250000E-01 -0.1915420E-25
-0.9140000E-01 -0.1005554E-24
-0.9030000E-01 -0.2573327E-24
-0.8920000E-01 -0.4117626E-24
-0.8810000E-01 -0.2428172E-24
-0.8700000E-01  0.9188756E-24
-0.8590000E-01  0.3855792E-23
-0.8480000E-01  0.8425290E-23
-0.8370000E-01  0.1146330E-22
-0.8260000E-01  0.4435665E-23
-0.8150000E-01 -0.2624885E-22
-0.8040000E-01 -0.9111174E-22
-0.7930000E-01 -0.1769481E-21
-0.7820000E-01 -0.2163388E-21
-0.7710000E-01 -0.6729173E-22
-0.7600000E-01  0.4543537E-21
-0.7490000E-01  0.1436945E-20
-0.7380000E-01  0.2610164E-20
-0.7270000E-01  0.3044383E-20
-0.7160000E-01  0.1071129E-20
-0.7050000E-01 -0.5165219E-20
-0.6940000E-01 -0.1616481E-19
-0.6830000E-01 -0.2864882E-19
-0.6720000E-01 -0.3334292E-19
-0.6610000E-01 -0.1526166E-19
-0.6500000E-01  0.4059858E-19
-0.6390000E-01  0.1364680E-18
-0.6280000E-01  0.2442982E-18
-0.6170000E-01  0.2925668E-18
-0.6060000E-01  0.1728683E-18
-0.5950000E-01 -0.2173771E-18
-0.5840000E-01 -0.8908604E-18
-0.5730000E-01 -0.1665931E-17
-0.5620000E-01 -0.2098582E-17
-0.5510000E-01 -0.1535485E-17
-0.5400000E-01  0.6351630E-18
-0.5290000E-01  0.4527567E-17
-0.5180000E-01  0.9224398E-17
-0.5070000E-01  0.1245417E-16
-0.4960000E-01  0.1087043E-16
-0.4850000E-01  0.1248806E-17
-0.4740000E-01 -0.1741861E-16
-0.4630000E-01 -0.4153069E-16
-0.4520000E-01 -0.6141789E-16
-0.4410000E-01 -0.6237858E-16
-0.4300000E-01 -0.2939641E-16
-0.4190000E-01  0.4461085E-16
-0.4080000E-01  0.1492883E-15
-0.3970000E-01  0.2505549E-15
-0.3860000E-01  0.2930430E-15
-0.3750000E-01  0.2154161E-15
-0.3640000E-01 -0.2170042E-16
-0.3530000E-01 -0.4022349E-15
-0.3420000E-01 -0.8295383E-15
-0.3310000E-01 -0.1126877E-14
-0.3200000E-01 -0.1077206E-14
-0.3090000E-01 -0.5036474E-15
-0.2980000E-01  0.6267401E-15
-0.2870000E-01  0.2112756E-14
-0.2760000E-01  0.3490238E-14
-0.2650000E-01  0.4106254E-14
-0.2540000E-01  0.3310392E-14
-0.2430000E-01  0.7321128E-15
-0.2320000E-01 -0.3436376E-14
-0.2210000E-01 -0.8266756E-14
-0.2100000E-01 -0.1214552E-13
-0.1990000E-01 -0.1311745E-13
-0.1880000E-01 -0.9500505E-14
-0.1770000E-01 -0.6398116E-15
-0.1660000E-01  0.1242983E-13
-0.1550000E-01  0.2668939E-13
-0.1440000E-01  0.3744812E-13
-0.1330000E-01  0.3937031E-13
-0.1220000E-01  0.2811444E-13
-0.1110000E-01  0.2240139E-14
-0.1000000E-01 -0.3517038E-13
-0.8900000E-02 -0.7582985E-13
-0.7800000E-02 -0.1070791E-12
-0.6700000E-02 -0.1145212E-12
-0.5600000E-02 -0.8624787E-13
-0.4500000E-02 -0.1783341E-13
-0.3400000E-02  0.8330604E-13
-0.2300000E-02  0.1959204E-12
-0.1200000E-02  0.2868898E-12
-0.1000000E-03  0.3179727E-12
 0.1000000E-02  0.2568074E-12
 0.2100000E-02  0.8993406E-13
 0.3200000E-02 -0.1659374E-12
 0.4300000E-02 -0.4589410E-12
 0.5400000E-02 -0.7072577E-12
 0.6500000E-02 -0.8161692E-12
 0.7600000E-02 -0.7050157E-12
 0.8700000E-02 -0.3380394E-12
 0.9800000E-02  0.2501138E-12
 0.1090000E-01  0.9443616E-12
 0.1200000E-01  0.1562390E-11
 0.1310000E-01  0.1893166E-11
 0.1420000E-01  0.1754993E-11
 0.1530000E-01  0.1059463E-11
 0.1640000E-01 -0.1374569E-12
 0.1750000E-01 -0.1616215E-11
 0.1860000E-01 -0.3019467E-11
 0.1970000E-01 -0.3924922E-11
 0.2080000E-01 -0.3953419E-11
 0.2190000E-01 -0.2887687E-11
 0.2300000E-01 -0.7695264E-12
 0.2410000E-01  0.2056465E-11
 0.2520000E-01  0.4975095E-11
 0.2630000E-01  0.7214032E-11
 0.2740000E-01  0.8022618E-11
 0.2850000E-01  0.6879764E-11
 0.2960000E-01  0.3680478E-11
 0.3070000E-01 -0.1152877E-11
 0.3180000E-01 -0.6678704E-11
 0.3290000E-01 -0.1158473E-10
 0.3400000E-01 -0.1446504E-10
 0.3510000E-01 -0.1417693E-10
 0.3620000E-01 -0.1019717E-10
 0.3730000E-01 -0.2880508E-11
 0.3840000E-01  0.6470362E-11
 0.3950000E-01  0.1578101E-10
 0.4060000E-01  0.2262725E-10
 0.4170000E-01  0.2483187E-10
 0.4280000E-01  0.2109975E-10
 0.4390000E-01  0.1151604E-10
 0.4500000E-01 -0.2260992E-11
 0.4610000E-01 -0.1722122E-10
 0.4720000E-01 -0.2964182E-10
 0.4830000E-01 -0.3602216E-10
 0.4940000E-01 -0.3408248E-10
 0.5050000E-01 -0.2353940E-10
 0.5160000E-01 -0.6397904E-11
 0.5270000E-01  0.1338744E-10
 0.5380000E-01  0.3085341E-10
 0.5490000E-01  0.4135279E-10
 0.5600000E-01  0.4190058E-10
 0.5710000E-01  0.3213451E-10
 0.5820000E-01  0.1456257E-10
 0.5930000E-01 -0.6037132E-11
 0.6040000E-01 -0.2394459E-10
 0.6150000E-01 -0.3419520E-10
 0.6260000E-01 -0.3414112E-10
 0.6370000E-01 -0.2437387E-10
 0.6480000E-01 -0.8667178E-11
 0.6590000E-01  0.7117949E-11
 0.6700000E-01  0.1690005E-10
 0.6810000E-01  0.1648254E-10
 0.6920000E-01  0.5239316E-11
 0.7030000E-01 -0.1321121E-10
 0.7140000E-01 -0.3168251E-10
 0.7250000E-01 -0.4140623E-10
 0.7360000E-01 -0.3487968E-10
 0.7470000E-01 -0.8802591E-11
 0.7580000E-01  0.3380814E-10
 0.7690000E-01  0.8313238E-10
 0.7800000E-01  0.1241460E-09
 0.7910000E-01  0.1402248E-09
 0.8020000E-01  0.1180664E-09
 0.8130000E-01  0.5271829E-10
 0.8240000E-01 -0.4877586E-10
 0.8350000E-01 -0.1665124E-09
 0.8460000E-01 -0.2705261E-09
 0.8570000E-01 -0.3272437E-09
 0.8680000E-01 -0.3085018E-09
 0.8790000E-01 -0.2010307E-09
 0.8900000E-01 -0.1370312E-10
 0.9010000E-01  0.2200807E-09
 0.9120000E-01  0.4466194E-09
 0.9230000E-01  0.6028921E-09
 0.9340000E-01  0.6324542E-09
 0.9450000E-01  0.5025749E-09
 0.9560000E-01  0.2178592E-09
 0.9670000E-01 -0.1742469E-09
 0.9780000E-01 -0.5891004E-09
 0.9890000E-01 -0.9219229E-09
 0.1000000E+00 -0.1073243E-08
 0.1011000E+00 -0.9767593E-09
 0.1022000E+00 -0.6220695E-09
 0.1033000E+00 -0.6512756E-10
 0.1044000E+00  0.5781362E-09
 0.1055000E+00  0.1155361E-08
 0.1066000E+00  0.1513955E-08
 0.1077000E+00  0.1541369E-08
 0.1088000E+00  0.1198788E-08
 0.1099000E+00  0.5384200E-09
 0.1110000E+00 -0.3018785E-09
 0.1121000E+00 -0.1127158E-08
 0.1132000E+00 -0.1731390E-08
 0.1143000E+00 -0.1950028E-08
 0.1154000E+00 -0.1705665E-08
 0.1165000E+00 -0.1034229E-08
 0.1176000E+00 -0.8348375E-10
 0.1187000E+00  0.9176345E-09
 0.1198000E+00  0.1712807E-08
 0.1209000E+00  0.2082831E-08
 0.1220000E+00  0.1904886E-08
 0.1231000E+00  0.1190984E-08
 0.1242000E+00  0.9437269E-10
 0.1253000E+00 -0.1119851E-08
 0.1264000E+00 -0.2134796E-08
 0.1275000E+00 -0.2659184E-08
 0.1286000E+00 -0.2503423E-08
 0.1297000E+00 -0.1634689E-08
 0.1308000E+00 -0.1953928E-09
 0.1319000E+00  0.1522185E-08
 0.1330000E+00  0.3141226E-08
 0.1341000E+00  0.4290861E-08
 0.1352000E+00  0.4699035E-08
 0.1363000E+00  0.4262643E-08
 0.1374000E+00  0.3074324E-08
 0.1385000E+00  0.1396125E-08
 0.1396000E+00 -0.4149666E-09
 0.1407000E+00 -0.2009928E-08
 0.1418000E+00 -0.3149014E-08
 0.1429000E+00 -0.3769275E-08
 0.1440000E+00 -0.3993644E-08
 0.1451000E+00 -0.4073085E-08
 0.1462000E+00 -0.4274050E-08
 0.1473000E+00 -0.4742788E-08
 0.1484000E+00 -0.5389820E-08
 0.1495000E+00 -0.5837389E-08
 0.1506000E+00 -0.5458774E-08
 0.1517000E+00 -0.3513771E-08
 0.1528000E+00  0.6441386E-09
 0.1539000E+00  0.7337920E-08
 0.1550000E+00  0.1637586E-07
 0.1561000E+00  0.2695602E-07
 0.1572000E+00  0.3770139E-07
 0.1583000E+00  0.4682729E-07
 0.1594000E+00  0.5240547E-07
 0.1605000E+00  0.5266023E-07
 0.1616000E+00  0.4621799E-07
 0.1627000E+00  0.3223906E-07
 0.1638000E+00  0.1038615E-07
 0.1649000E+00 -0.1937678E-07
 0.1660000E+00 -0.5712135E-07
 0.1671000E+00 -0.1033607E-06
 0.1682000E+00 -0.1594444E-06
 0.1693000E+00 -0.2278679E-06
 0.1704000E+00 -0.3124508E-06
 0.1715000E+00 -0.4183744E-06
 0.1726000E+00 -0.5521157E-06
 0.1737000E+00 -0.7213459E-06
 0.1748000E+00 -0.9348810E-06
 0.1759000E+00 -0.1202771E-05
 0.1770000E+00 -0.1536589E-05
 0.1781000E+00 -0.1949953E-05
 0.1792000E+00 -0.2459251E-05
 0.1803000E+00 -0.3084536E-05
 0.1814000E+00 -0.3850492E-05
 0.1825000E+00 -0.4787401E-05
 0.1836000E+00 -0.5932049E-05
 0.1847000E+00 -0.7328532E-05
 0.1858000E+00 -0.9029004E-05
 0.1869000E+00 -0.1109443E-04
 0.1880000E+00 -0.1359544E-04
 0.1891000E+00 -0.1661347E-04
 0.1902000E+00 -0.2024219E-04
 0.1913000E+00 -0.2458937E-04
 0.1924000E+00 -0.2977919E-04
 0.1935000E+00 -0.3595486E-04
 0.1946000E+00 -0.4328139E-04
 0.1957000E+00 -0.5194858E-04
 0.1968000E+00 -0.6217371E-04
 0.1979000E+00 -0.7420428E-04
 0.1990000E+00 -0.8832035E-04
 0.2001000E+00 -0.1048369E-03
 0.2012000E+00 -0.1241060E-03
 0.2023000E+00 -0.1465193E-03
 0.2034000E+00 -0.1725103E-03
 0.2045000E+00 -0.2025571E-03
 0.2056000E+00 -0.2371848E-03
 0.2067000E+00 -0.2769676E-03
 0.2078000E+00 -0.3225310E-03
 0.2089000E+00 -0.3745522E-03
 0.2100000E+00 -0.4337605E-03
 0.2111000E+00 -0.5009357E-03
 0.2122000E+00 -0.5769056E-03
 0.2133000E+00 -0.6625424E-03
 0.2144000E+00 -0.7587571E-03
 0.2155000E+00 -0.8664937E-03
 0.2166000E+00 -0.9867215E-03
 0.2177000E+00 -0.1120426E-02
 0.2188000E+00 -0.1268598E-02
 0.2199000E+00 -0.1432223E-02
 0.2210000E+00 -0.1612263E-02
 0.2221000E+00 -0.1809644E-02
 0.2232000E+00 -0.2025233E-02
 0.2243000E+00 -0.2259821E-02
 0.2254000E+00 -0.2514095E-02
 0.2265000E+00 -0.2788618E-02
 0.2276000E+00 -0.3083801E-02
 0.2287000E+00 -0.3399879E-02
 0.2298000E+00 -0.3736883E-02
 0.2309000E+00 -0.4094611E-02
 0.2320000E+00 -0.4472608E-02
 0.2331000E+00 -0.4870135E-02
 0.2342000E+00 -0.5286145E-02
 0.2353000E+00 -0.5719261E-02
 0.2364000E+00 -0.6167761E-02
 0.2375000E+00 -0.6629554E-02
 0.2386000E+00 -0.7102173E-02
 0.2397000E+00 -0.7582770E-02
 0.2408000E+00 -0.8068109E-02
 0.2419000E+00 -0.8554573E-02
 0.2430000E+00 -0.9038178E-02
 0.2441000E+00 -0.9514584E-02
 0.2452000E+00 -0.9979124E-02
 0.2463000E+00 -0.1042684E-01
 0.2474000E+00 -0.1085250E-01
 0.2485000E+00 -0.1125071E-01
 0.2496000E+00 -0.1161587E-01
 0.2507000E+00 -0.1194234E-01
 0.2518000E+00 -0.1222442E-01
 0.2529000E+00 -0.1245651E-01
 0.2540000E+00 -0.1263310E-01
 0.2551000E+00 -0.1274892E-01
 0.2562000E+00 -0.1279899E-01
 0.2573000E+00 -0.1277871E-01
 0.2584000E+00 -0.1268395E-01
 0.2595000E+00 -0.1251113E-01
 0.2606000E+00 -0.1225731E-01
 0.2617000E+00 -0.1192022E-01
 0.2628000E+00 -0.1149840E-01
 0.2639000E+00 -0.1099119E-01
 0.2650000E+00 -0.1039883E-01
 0.2661000E+00 -0.9722447E-02
 0.2672000E+00 -0.8964136E-02
 0.2683000E+00 -0.8126932E-02
 0.2694000E+00 -0.7214818E-02
 0.2705000E+00 -0.6232711E-02
 0.2716000E+00 -0.5186430E-02
 0.2727000E+00 -0.4082654E-02
 0.2738000E+00 -0.2928863E-02
 0.2749000E+00 -0.1733266E-02
 0.2760000E+00 -0.5047148E-03
 0.2771000E+00  0.7473891E-03
 0.2782000E+00  0.2013205E-02
 0.2793000E+00  0.3282569E-02
 0.2804000E+00  0.4545117E-02
 0.2815000E+00  0.5790408E-02
 0.2826000E+00  0.7008064E-02
 0.2837000E+00  0.8187890E-02
 0.2848000E+00  0.9320009E-02
 0.2859000E+00  0.1039498E-01
 0.2870000E+00  0.1140394E-01
 0.2881000E+00  0.1233867E-01
 0.2892000E+00  0.1319176E-01
 0.2903000E+00  0.1395664E-01
 0.2914000E+00  0.1462770E-01
 0.2925000E+00  0.1520036E-01
 0.2936000E+00  0.1567109E-01
 0.2947000E+00  0.1603749E-01
 0.2958000E+00  0.1629826E-01
 0.2969000E+00  0.1645326E-01
 0.2980000E+00  0.1650344E-01
 0.2991000E+00  0.1645084E-01
 0.3002000E+00  0.1629855E-01
 0.3013000E+00  0.1605064E-01
 0.3024000E+00  0.1571211E-01
 0.3035000E+00  0.1528876E-01
 0.3046000E+00  0.1478717E-01
 0.3057000E+00  0.1421453E-01
 0.3068000E+00  0.1357856E-01
 0.3079000E+00  0.1288743E-01
 0.3090000E+00  0.1214956E-01
 0.3101000E+00  0.1137359E-01
 0.3112000E+00  0.1056821E-01
 0.3123000E+00  0.9742033E-02
 0.3134000E+00  0.8903531E-02
 0.3145000E+00  0.8060887E-02
 0.3156000E+00  0.7221917E-02
 0.3167000E+00  0.6393975E-02
 0.3178000E+00  0.5583879E-02
 0.3189000E+00  0.4797844E-02
 0.3200000E+00  0.4041425E-02
 0.3211000E+00  0.3319477E-02
 0.3222000E+00  0.2636119E-02
 0.3233000E+00  0.1994722E-02
 0.3244000E+00  0.1397903E-02
 0.3255000E+00  0.8475303E-03
 0.3266000E+00  0.3447465E-03
 0.3277000E+00 -0.1100037E-03
 0.3288000E+00 -0.5169315E-03
 0.3299000E+00 -0.8768541E-03
 0.3310000E+00 -0.1191137E-02
 0.3321000E+00 -0.1461631E-02
 0.3332000E+00 -0.1690599E-02
 0.3343000E+00 -0.1880649E-02
 0.3354000E+00 -0.2034657E-02
 0.3365000E+00 -0.2155695E-02
 0.3376000E+00 -0.2246964E-02
 0.3387000E+00 -0.2311717E-02
 0.3398000E+00 -0.2353205E-02
 0.3409000E+00 -0.2374610E-02
 0.3420000E+00 -0.2378994E-02
 0.3431000E+00 -0.2369248E-02
 0.3442000E+00 -0.2348054E-02
 0.3453000E+00 -0.2317850E-02
 0.3464000E+00 -0.2280803E-02
 0.3475000E+00 -0.2238794E-02
 0.3486000E+00 -0.2193409E-02
 0.3497000E+00 -0.2145939E-02
 0.3508000E+00 -0.2097389E-02
 0.3519000E+00 -0.2048493E-02
 0.3530000E+00 -0.1999735E-02
 0.3541000E+00 -0.1951375E-02
 0.3552000E+00 -0.1903472E-02
 0.3563000E+00 -0.1855919E-02
 0.3574000E+00 -0.1808471E-02
 0.3585000E+00 -0.1760780E-02
 0.3596000E+00 -0.1712427E-02
 0.3607000E+00 -0.1662959E-02
 0.3618000E+00 -0.1611921E-02
 0.3629000E+00 -0.1558891E-02
 0.3640000E+00 -0.1503506E-02
 0.3651000E+00 -0.1445487E-02
 0.3662000E+00 -0.1384656E-02
 0.3673000E+00 -0.1320951E-02
 0.3684000E+00 -0.1254433E-02
 0.3695000E+00 -0.1185286E-02
 0.3706000E+00 -0.1113821E-02
 0.3717000E+00 -0.1040465E-02
 0.3728000E+00 -0.9657584E-03
 0.3739000E+00 -0.8903360E-03
 0.3750000E+00 -0.8149161E-03
 0.3761000E+00 -0.7402794E-03
 0.3772000E+00 -0.6672476E-03
 0.3783000E+00 -0.5966591E-03
 0.3794000E+00 -0.5293426E-03
 0.3805000E+00 -0.4660914E-03
 0.3816000E+00 -0.4076382E-03
 0.3827000E+00 -0.3546327E-03
 0.3838000E+00 -0.3076218E-03
 0.3849000E+00 -0.2670326E-03
 0.3860000E+00 -0.2331588E-03
 0.3871000E+00 -0.2061491E-03
 0.3882000E+00 -0.1859987E-03
 0.3893000E+00 -0.1725448E-03
 0.3904000E+00 -0.1654660E-03
 0.3915000E+00 -0.1642870E-03
 0.3926000E+00 -0.1683885E-03
 0.3937000E+00 -0.1770213E-03
 0.3948000E+00 -0.1893241E-03
 0.3959000E+00 -0.2043425E-03
 0.3970000E+00 -0.2210495E-03
 0.3981000E+00 -0.2383657E-03
 0.3992000E+00 -0.2551800E-03
 0.4003000E+00 -0.2703693E-03
 0.4014000E+00 -0.2828189E-03
 0.4025000E+00 -0.2914421E-03
 0.4036000E+00 -0.2951988E-03
 0.4047000E+00 -0.2931125E-03
 0.4058000E+00 -0.2842844E-03
 0.4069000E+00 -0.2679040E-03
 0.4080000E+00 -0.2432551E-03
 0.4091000E+00 -0.2097159E-03
 0.4102000E+00 -0.1667532E-03
 0.4113000E+00 -0.1139108E-03
 0.4124000E+00 -0.5079197E-04
 0.4135000E+00  0.2296042E-04
 0.4146000E+00  0.1076863E-03
 0.4157000E+00  0.2037303E-03
 0.4168000E+00  0.3114630E-03
 0.4179000E+00  0.4313023E-03
 0.4190000E+00  0.5637344E-03
 0.4201000E+00  0.7093358E-03
 0.4212000E+00  0.8687958E-03
 0.4223000E+00  0.1042939E-02
 0.4234000E+00  0.1232742E-02
 0.4245000E+00  0.1439353E-02
 0.4256000E+00  0.1664091E-02
 0.4267000E+00  0.1908451E-02
 0.4278000E+00  0.2174086E-02
 0.4289000E+00  0.2462796E-02
 0.4300000E+00  0.2776490E-02
 0.4311000E+00  0.3117156E-02
 0.4322000E+00  0.3486815E-02
 0.4333000E+00  0.3887466E-02
 0.4344000E+00  0.4321031E-02
 0.4355000E+00  0.4789296E-02
 0.4366000E+00  0.5293835E-02
 0.4377000E+00  0.5835949E-02
 0.4388000E+00  0.6416586E-02
 0.4399000E+00  0.7036272E-02
 0.4410000E+00  0.7695029E-02
 0.4421000E+00  0.8392305E-02
 0.4432000E+00  0.9126898E-02
 0.4443000E+00  0.9896894E-02
 0.4454000E+00  0.1069961E-01
 0.4465000E+00  0.1153155E-01
 0.4476000E+00  0.1238837E-01
 0.4487000E+00  0.1326486E-01
 0.4498000E+00  0.1415495E-01
 0.4509000E+00  0.1505173E-01
 0.4520000E+00  0.1594744E-01
 0.4531000E+00  0.1683356E-01
 0.4542000E+00  0.1770088E-01
 0.4553000E+00  0.1853951E-01
 0.4564000E+00  0.1933907E-01
 0.4575000E+00  0.2008874E-01
 0.4586000E+00  0.2077741E-01
 0.4597000E+00  0.2139384E-01
 0.4608000E+00  0.2192678E-01
 0.4619000E+00  0.2236516E-01
 0.4630000E+00  0.2269823E-01
 0.4641000E+00  0.2291577E-01
 0.4652000E+00  0.2300827E-01
 0.4663000E+00  0.2296705E-01
 0.4674000E+00  0.2278447E-01
 0.4685000E+00  0.2245408E-01
 0.4696000E+00  0.2197076E-01
 0.4707000E+00  0.2133083E-01
 0.4718000E+00  0.2053222E-01
 0.4729000E+00  0.1957450E-01
 0.4740000E+00  0.1845898E-01
 0.4751000E+00  0.1718875E-01
 0.4762000E+00  0.1576870E-01
 0.4773000E+00  0.1420552E-01
 0.4784000E+00  0.1250763E-01
 0.4795000E+00  0.1068518E-01
 0.4806000E+00  0.8749904E-02
 0.4817000E+00  0.6715034E-02
 0.4828000E+00  0.4595163E-02
 0.4839000E+00  0.2406076E-02
 0.4850000E+00  0.1645723E-03
 0.4861000E+00 -0.2111734E-02
 0.4872000E+00 -0.4404629E-02
 0.4883000E+00 -0.6695522E-02
 0.4894000E+00 -0.8965676E-02
 0.4905000E+00 -0.1119644E-01
 0.4916000E+00 -0.1336951E-01
 0.4927000E+00 -0.1546709E-01
 0.4938000E+00 -0.1747220E-01
 0.4949000E+00 -0.1936881E-01
 0.4960000E+00 -0.2114207E-01
 0.4971000E+00 -0.2277847E-01
 0.4982000E+00 -0.2426601E-01
 0.4993000E+00 -0.2559432E-01
 0.5004000E+00 -0.2675477E-01
 0.5015000E+00 -0.2774056E-01
 0.5026000E+00 -0.2854678E-01
 0.5037000E+00 -0.2917041E-01
 0.5048000E+00 -0.2961034E-01
 0.5059000E+00 -0.2986733E-01
 0.5070000E+00 -0.2994397E-01
 0.5081000E+00 -0.2984458E-01
 0.5092000E+00 -0.2957512E-01
 0.5103000E+00 -0.2914309E-01
 0.5114000E+00 -0.2855736E-01
 0.5125000E+00 -0.2782801E-01
 0.5136000E+00 -0.2696623E-01
 0.5147000E+00 -0.2598406E-01
 0.5158000E+00 -0.2489428E-01
 0.5169000E+00 -0.2371021E-01
 0.5180000E+00 -0.2244551E-01
 0.5191000E+00 -0.2111402E-01
 0.5202000E+00 -0.1972960E-01
 0.5213000E+00 -0.1830594E-01
 0.5224000E+00 -0.1685642E-01
 0.5235000E+00 -0.1539396E-01
 0.5246000E+00 -0.1393090E-01
 0.5257000E+00 -0.1247888E-01
 0.5268000E+00 -0.1104876E-01
 0.5279000E+00 -0.9650517E-02
 0.5290000E+00 -0.8293192E-02
 0.5301000E+00 -0.6984849E-02
 0.5312000E+00 -0.5732537E-02
 0.5323000E+00 -0.4542280E-02
 0.5334000E+00 -0.3419072E-02
 0.5345000E+00 -0.2366894E-02
 0.5356000E+00 -0.1388732E-02
 0.5367000E+00 -0.4866153E-03
 0.5378000E+00  0.3383399E-03
 0.5389000E+00  0.1085877E-02
 0.5400000E+00  0.1756535E-02
 0.5411000E+00  0.2351579E-02
 0.5422000E+00  0.2872926E-02
 0.5433000E+00  0.3323070E-02
 0.5444000E+00  0.3705003E-02
 0.5455000E+00  0.4022141E-02
 0.5466000E+00  0.4278253E-02
 0.5477000E+00  0.4477384E-02
 0.5488000E+00  0.4623787E-02
 0.5499000E+00  0.4721860E-02
 0.5510000E+00  0.4776072E-02
 0.5521000E+00  0.4790909E-02
 0.5532000E+00  0.4770817E-02
 0.5543000E+00  0.4720157E-02
 0.5554000E+00  0.4643150E-02
 0.5565000E+00  0.4543848E-02
 0.5576000E+00  0.4426094E-02
 0.5587000E+00  0.4293494E-02
 0.5598000E+00  0.4149397E-02
 0.5609000E+00  0.3996877E-02
 0.5620000E+00  0.3838723E-02
 0.5631000E+00  0.3677435E-02
 0.5642000E+00  0.3515223E-02
 0.5653000E+00  0.3354000E-02
 0.5664000E+00  0.3195395E-02
 0.5675000E+00  0.3040757E-02
 0.5686000E+00  0.2891170E-02
 0.5697000E+00  0.2747463E-02
 0.5708000E+00  0.2610237E-02
 0.5719000E+00  0.2479881E-02
 0.5730000E+00  0.2356593E-02
 0.5741000E+00  0.2240404E-02
 0.5752000E+00  0.2131201E-02
 0.5763000E+00  0.2028746E-02
 0.5774000E+00  0.1932706E-02
 0.5785000E+00  0.1842670E-02
 0.5796000E+00  0.1758179E-02
 0.5807000E+00  0.1678738E-02
 0.5818000E+00  0.1603844E-02
 0.5829000E+00  0.1532994E-02
 0.5840000E+00  0.1465710E-02
 0.5851000E+00  0.1401546E-02
 0.5862000E+00  0.1340103E-02
 0.5873000E+00  0.1281040E-02
 0.5884000E+00  0.1224076E-02
 0.5895000E+00  0.1168996E-02
 0.5906000E+00  0.1115644E-02
 0.5917000E+00  0.1063930E-02
 0.5928000E+00  0.1013818E-02
 0.5939000E+00  0.9653317E-03
 0.5950000E+00  0.9185451E-03
 0.5961000E+00  0.8735792E-03
 0.5972000E+00  0.8305929E-03
 0.5983000E+00  0.7897724E-03
 0.5994000E+00  0.7513194E-03
 0.6005000E+00  0.7154401E-03
 0.6016000E+00  0.6823355E-03
 0.6027000E+00  0.6521926E-03
 0.6038000E+00  0.6251778E-03
 0.6049000E+00  0.6014300E-03
 0.6060000E+00  0.5810547E-03
 0.6071000E+00  0.5641189E-03
 0.6082000E+00  0.5506465E-03
 0.6093000E+00  0.5406166E-03
 0.6104000E+00  0.5339635E-03
 0.6115000E+00  0.5305763E-03
 0.6126000E+00  0.5303007E-03
 0.6137000E+00  0.5329397E-03
 0.6148000E+00  0.5382550E-03
 0.6159000E+00  0.5459703E-03
 0.6170000E+00  0.5557777E-03
 0.6181000E+00  0.5673452E-03
 0.6192000E+00  0.5803255E-03
 0.6203000E+00  0.5943643E-03
 0.6214000E+00  0.6091054E-03
 0.6225000E+00  0.6241947E-03
 0.6236000E+00  0.6392809E-03
 0.6247000E+00  0.6540180E-03
 0.6258000E+00  0.6680671E-03
 0.6269000E+00  0.6811020E-03
 0.6280000E+00  0.6928135E-03
 0.6291000E+00  0.7029141E-03
 0.6302000E+00  0.7111403E-03
 0.6313000E+00  0.7172523E-03
 0.6324000E+00  0.7210328E-03
 0.6335000E+00  0.7222844E-03
 0.6346000E+00  0.7208284E-03
 0.6357000E+00  0.7165037E-03
 0.6368000E+00  0.7091657E-03
 0.6379000E+00  0.6986860E-03
 0.6390000E+00  0.6849505E-03
 0.6401000E+00  0.6678575E-03
 0.6412000E+00  0.6473167E-03
 0.6423000E+00  0.6232488E-03
 0.6434000E+00  0.5955860E-03
 0.6445000E+00  0.5642746E-03
 0.6456000E+00  0.5292753E-03
 0.6467000E+00  0.4905655E-03
 0.6478000E+00  0.4481397E-03
 0.6489000E+00  0.4020114E-03
 0.6500000E+00  0.3522150E-03
 0.6511000E+00  0.2988096E-03
 0.6522000E+00  0.2418825E-03
 0.6533000E+00  0.1815541E-03
 0.6544000E+00  0.1179797E-03
 0.6555000E+00  0.5135245E-04
 0.6566000E+00 -0.1809616E-04
 0.6577000E+00 -0.9009564E-04
 0.6588000E+00 -0.1643358E-03
 0.6599000E+00 -0.2404659E-03
 0.6610000E+00 -0.3180950E-03
 0.6621000E+00 -0.3967919E-03
 0.6632000E+00 -0.4760877E-03
 0.6643000E+00 -0.5554790E-03
 0.6654000E+00 -0.6344325E-03
 0.6665000E+00 -0.7123902E-03
 0.6676000E+00 -0.7887757E-03
 0.6687000E+00 -0.8630008E-03
 0.6698000E+00 -0.9344733E-03
 0.6709000E+00 -0.1002605E-02
 0.6720000E+00 -0.1066820E-02
 0.6731000E+00 -0.1126563E-02
 0.6742000E+00 -0.1181306E-02
 0.6753000E+00 -0.1230556E-02
 0.6764000E+00 -0.1273860E-02
 0.6775000E+00 -0.1310815E-02
 0.6786000E+00 -0.1341074E-02
 0.6797000E+00 -0.1364351E-02
 0.6808000E+00 -0.1380430E-02
 0.6819000E+00 -0.1389169E-02
 0.6830000E+00 -0.1390504E-02
 0.6841000E+00 -0.1384449E-02
 0.6852000E+00 -0.1371095E-02
 0.6863000E+00 -0.1350617E-02
 0.6874000E+00 -0.1323265E-02
 0.6885000E+00 -0.1289367E-02
 0.6896000E+00 -0.1249325E-02
 0.6907000E+00 -0.1203606E-02
 0.6918000E+00 -0.1152738E-02
 0.6929000E+00 -0.1097301E-02
 0.6940000E+00 -0.1037922E-02
 0.6951000E+00 -0.9752617E-03
 0.6962000E+00 -0.9100147E-03
 0.6973000E+00 -0.8428946E-03
 0.6984000E+00 -0.7746266E-03
 0.6995000E+00 -0.7059348E-03
 0.7006000E+00 -0.6375303E-03
 0.7017000E+00 -0.5700995E-03
 0.7028000E+00 -0.5042948E-03
 0.7039000E+00 -0.4407259E-03
 0.7050000E+00 -0.3799536E-03
 0.7061000E+00 -0.3224825E-03
 0.7072000E+00 -0.2687532E-03
 0.7083000E+00 -0.2191356E-03
 0.7094000E+00 -0.1739218E-03
 0.7105000E+00 -0.1333232E-03
 0.7116000E+00 -0.9746900E-04
 0.7127000E+00 -0.6640895E-04
 0.7138000E+00 -0.4011697E-04
 0.7149000E+00 -0.1849548E-04
 0.7160000E+00 -0.1379670E-05
 0.7171000E+00  0.1145843E-04
 0.7182000E+00  0.2030507E-04
 0.7193000E+00  0.2549853E-04
 0.7204000E+00  0.2742117E-04
 0.7215000E+00  0.2649027E-04
 0.7226000E+00  0.2314837E-04
 0.7237000E+00  0.1785366E-04
 0.7248000E+00  0.1107065E-04
 0.7259000E+00  0.3260773E-05
 0.7270000E+00 -0.5127138E-05
 0.7281000E+00 -0.1366644E-04
 0.7292000E+00 -0.2196143E-04
 0.7303000E+00 -0.2965440E-04
 0.7314000E+00 -0.3643019E-04
 0.7325000E+00 -0.4201853E-04
 0.7336000E+00 -0.4619481E-04
 0.7347000E+00 -0.4878055E-04
 0.7358000E+00 -0.4964431E-04
 0.7369000E+00 -0.4870297E-04
 0.7380000E+00 -0.4592268E-04
 0.7391000E+00 -0.4131817E-04
 0.7402000E+00 -0.3495004E-04
 0.7413000E+00 -0.2691974E-04
 0.7424000E+00 -0.1736330E-04
 0.7435000E+00 -0.6444939E-05
 0.7446000E+00  0.5648736E-05
 0.7457000E+00  0.1871359E-04
 0.7468000E+00  0.3253230E-04
 0.7479000E+00  0.4687873E-04
 0.7490000E+00  0.6152262E-04
 0.7501000E+00  0.7623458E-04
 0.7512000E+00  0.9079093E-04
 0.7523000E+00  0.1049778E-03
 0.7534000E+00  0.1185945E-03
 0.7545000E+00  0.1314558E-03
 0.7556000E+00  0.1433943E-03
 0.7567000E+00  0.1542618E-03
 0.7578000E+00  0.1639306E-03
 0.7589000E+00  0.1722941E-03
 0.7600000E+00  0.1792667E-03
 0.7611000E+00  0.1847832E-03
 0.7622000E+00  0.1887978E-03
 0.7633000E+00  0.1912831E-03
 0.7644000E+00  0.1922298E-03
 0.7655000E+00  0.1916459E-03
 0.7666000E+00  0.1895563E-03
 0.7677000E+00  0.1860013E-03
 0.7688000E+00  0.1810348E-03
 0.7699000E+00  0.1747221E-03
 0.7710000E+00  0.1671381E-03
 0.7721000E+00  0.1583653E-03
 0.7732000E+00  0.1484935E-03
 0.7743000E+00  0.1376186E-03
 0.7754000E+00  0.1258415E-03
 0.7765000E+00  0.1132670E-03
 0.7776000E+00  0.1000016E-03
 0.7787000E+00  0.8615176E-04
 0.7798000E+00  0.7182261E-04
 0.7809000E+00  0.5711701E-04
 0.7820000E+00  0.4213504E-04
 0.7831000E+00  0.2697350E-04
 0.7842000E+00  0.1172509E-04
 0.7853000E+00 -0.3522749E-05
 0.7864000E+00 -0.1868901E-04
 0.7875000E+00 -0.3370004E-04
 0.7886000E+00 -0.4849001E-04
 0.7897000E+00 -0.6300081E-04
 0.7908000E+00 -0.7718190E-04
 0.7919000E+00 -0.9099006E-04
 0.7930000E+00 -0.1043892E-03
 0.7941000E+00 -0.1173501E-03
 0.7952000E+00 -0.1298496E-03
 0.7963000E+00 -0.1418700E-03
 0.7974000E+00 -0.1533974E-03
 0.7985000E+00 -0.1644204E-03
 0.7996000E+00 -0.1749297E-03
 0.8007000E+00 -0.1849166E-03
 0.8018000E+00 -0.1943723E-03
 0.8029000E+00 -0.2032863E-03
 0.8040000E+00 -0.2116435E-03
 0.8051000E+00 -0.2194226E-03
 0.8062000E+00 -0.2265944E-03
 0.8073000E+00 -0.2331213E-03
 0.8084000E+00 -0.2389590E-03
 0.8095000E+00 -0.2440591E-03
 0.8106000E+00 -0.2483721E-03
 0.8117000E+00 -0.2518494E-03
 0.8128000E+00 -0.2544440E-03
 0.8139000E+00 -0.2561113E-03
 0.8150000E+00 -0.2568090E-03
 0.8161000E+00 -0.2564981E-03
 0.8172000E+00 -0.2551458E-03
 0.8183000E+00 -0.2527286E-03
 0.8194000E+00 -0.2492364E-03
 0.8205000E+00 -0.2446757E-03
 0.8216000E+00 -0.2390718E-03
 0.8227000E+00 -0.2324707E-03
 0.8238000E+00 -0.2249394E-03
 0.8249000E+00 -0.2165663E-03
 0.8260000E+00 -0.2074609E-03
 0.8271000E+00 -0.1977532E-03
 0.8282000E+00 -0.1875909E-03
 0.8293000E+00 -0.1771367E-03
 0.8304000E+00 -0.1665641E-03
 0.8315000E+00 -0.1560536E-03
 0.8326000E+00 -0.1457883E-03
 0.8337000E+00 -0.1359505E-03
 0.8348000E+00 -0.1267184E-03
 0.8359000E+00 -0.1182621E-03
 0.8370000E+00 -0.1107395E-03
 0.8381000E+00 -0.1042913E-03
 0.8392000E+00 -0.9903689E-04
 0.8403000E+00 -0.9507059E-04
 0.8414000E+00 -0.9245894E-04
 0.8425000E+00 -0.9123940E-04
 0.8436000E+00 -0.9141969E-04
 0.8447000E+00 -0.9297796E-04
 0.8458000E+00 -0.9586359E-04
 0.8469000E+00 -0.9999921E-04
 0.8480000E+00 -0.1052841E-03
 0.8491000E+00 -0.1115989E-03
 0.8502000E+00 -0.1188122E-03
 0.8513000E+00 -0.1267866E-03
 0.8524000E+00 -0.1353851E-03
 0.8535000E+00 -0.1444774E-03
 0.8546000E+00 -0.1539435E-03
 0.8557000E+00 -0.1636795E-03
 0.8568000E+00 -0.1736011E-03
 0.8579000E+00 -0.1836486E-03
 0.8590000E+00 -0.1937913E-03
 0.8601000E+00 -0.2040317E-03
 0.8612000E+00 -0.2144077E-03
 0.8623000E+00 -0.2249940E-03
 0.8634000E+00 -0.2359017E-03
 0.8645000E+00 -0.2472751E-03
 0.8656000E+00 -0.2592879E-03
 0.8667000E+00 -0.2721376E-03
 0.8678000E+00 -0.2860388E-03
 0.8689000E+00 -0.3012154E-03
 0.8700000E+00 -0.3178936E-03
 0.8711000E+00 -0.3362936E-03
 0.8722000E+00 -0.3566233E-03
 0.8733000E+00 -0.3790703E-03
 0.8744000E+00 -0.4037938E-03
 0.8755000E+00 -0.4309162E-03
 0.8766000E+00 -0.4605133E-03
 0.8777000E+00 -0.4926046E-03
 0.8788000E+00 -0.5271460E-03
 0.8799000E+00 -0.5640246E-03
 0.8810000E+00 -0.6030563E-03
 0.8821000E+00 -0.6439871E-03
 0.8832000E+00 -0.6864950E-03
 0.8843000E+00 -0.7301935E-03
 0.8854000E+00 -0.7746351E-03
 0.8865000E+00 -0.8193144E-03
 0.8876000E+00 -0.8636732E-03
 0.8887000E+00 -0.9071064E-03
 0.8898000E+00 -0.9489706E-03
 0.8909000E+00 -0.9885939E-03
 0.8920000E+00 -0.1025288E-02
 0.8931000E+00 -0.1058358E-02
 0.8942000E+00 -0.1087116E-02
 0.8953000E+00 -0.1110896E-02
 0.8964000E+00 -0.1129061E-02
 0.8975000E+00 -0.1141018E-02
 0.8986000E+00 -0.1146232E-02
 0.8997000E+00 -0.1144233E-02
 0.9008000E+00 -0.1134622E-02
 0.9019000E+00 -0.1117083E-02
 0.9030000E+00 -0.1091380E-02
 0.9041000E+00 -0.1057367E-02
 0.9052000E+00 -0.1014990E-02
 0.9063000E+00 -0.9642867E-03
 0.9074000E+00 -0.9053947E-03
 0.9085000E+00 -0.8385464E-03
 0.9096000E+00 -0.7640679E-03
 0.9107000E+00 -0.6823732E-03
 0.9118000E+00 -0.5939578E-03
 0.9129000E+00 -0.4993901E-03
 0.9140000E+00 -0.3993045E-03
 0.9151000E+00 -0.2943929E-03
 0.9162000E+00 -0.1853959E-03
 0.9173000E+00 -0.7309265E-04
 0.9184000E+00  0.4170955E-04
 0.9195000E+00  0.1581863E-03
 0.9206000E+00  0.2755061E-03
 0.9217000E+00  0.3928387E-03
 0.9228000E+00  0.5093633E-03
 0.9239000E+00  0.6242752E-03
 0.9250000E+00  0.7367936E-03
 0.9261000E+00  0.8461697E-03
 0.9272000E+00  0.9516949E-03
 0.9283000E+00  0.1052708E-02
 0.9294000E+00  0.1148600E-02
 0.9305000E+00  0.1238818E-02
 0.9316000E+00  0.1322865E-02
 0.9327000E+00  0.1400303E-02
 0.9338000E+00  0.1470750E-02
 0.9349000E+00  0.1533883E-02
 0.9360000E+00  0.1589440E-02
 0.9371000E+00  0.1637215E-02
 0.9382000E+00  0.1677060E-02
 0.9393000E+00  0.1708884E-02
 0.9404000E+00  0.1732651E-02
 0.9415000E+00  0.1748375E-02
 0.9426000E+00  0.1756127E-02
 0.9437000E+00  0.1756026E-02
 0.9448000E+00  0.1748238E-02
 0.9459000E+00  0.1732975E-02
 0.9470000E+00  0.1710491E-02
 0.9481000E+00  0.1681074E-02
 0.9492000E+00  0.1645051E-02
 0.9503000E+00  0.1602783E-02
 0.9514000E+00  0.1554671E-02
 0.9525000E+00  0.1501150E-02
 0.9536000E+00  0.1442694E-02
 0.9547000E+00  0.1379806E-02
 0.9558000E+00  0.1313016E-02
 0.9569000E+00  0.1242874E-02
 0.9580000E+00  0.1169946E-02
 0.9591000E+00  0.1094811E-02
 0.9602000E+00  0.1018061E-02
 0.9613000E+00  0.9402923E-03
 0.9624000E+00  0.8621070E-03
 0.9635000E+00  0.7841023E-03
 0.9646000E+00  0.7068649E-03
 0.9657000E+00  0.6309641E-03
 0.9668000E+00  0.5569457E-03
 0.9679000E+00  0.4853263E-03
 0.9690000E+00  0.4165875E-03
 0.9701000E+00  0.3511687E-03
 0.9712000E+00  0.2894601E-03
 0.9723000E+00  0.2317952E-03
 0.9734000E+00  0.1784465E-03
 0.9745000E+00  0.1296227E-03
 0.9756000E+00  0.8546878E-04
 0.9767000E+00  0.4606781E-04
 0.9778000E+00  0.1144180E-04
 0.9789000E+00 -0.1844742E-04