 -0.12000000000000000          0.0000000000000000     
 -0.11889999999999999          0.0000000000000000     
 -0.11780000000000000          0.0000000000000000     
 -0.11670000000000000          0.0000000000000000     
 -0.11559999999999999          0.0000000000000000     
 -0.11449999999999999          0.0000000000000000     
 -0.11340000000000000          0.0000000000000000     
 -0.11230000000000000          0.0000000000000000     
 -0.11119999999999999          0.0000000000000000     
 -0.11009999999999999          0.0000000000000000     
 -0.10900000000000000          0.0000000000000000     
 -0.10790000000000000          0.0000000000000000     
 -0.10679999999999999          0.0000000000000000     
 -0.10569999999999999          0.0000000000000000     
 -0.10460000000000000          0.0000000000000000     
 -0.10349999999999999          0.0000000000000000     
 -0.10239999999999999          0.0000000000000000     
 -0.10130000000000000          0.0000000000000000     
 -0.10020000000000000          0.0000000000000000     
  -9.9099999999999994E-002     0.0000000000000000     
  -9.7999999999999990E-002     0.0000000000000000     
  -9.6899999999999986E-002     0.0000000000000000     
  -9.5799999999999996E-002     0.0000000000000000     
  -9.4699999999999993E-002     0.0000000000000000     
  -9.3599999999999989E-002     0.0000000000000000     
  -9.2499999999999999E-002     0.0000000000000000     
  -9.1399999999999995E-002     0.0000000000000000     
  -9.0299999999999991E-002     0.0000000000000000     
  -8.9200000000000002E-002     0.0000000000000000     
  -8.8099999999999984E-002     0.0000000000000000     
  -8.6999999999999994E-002     0.0000000000000000     
  -8.5899999999999990E-002     0.0000000000000000     
  -8.4799999999999986E-002     0.0000000000000000     
  -8.3699999999999997E-002     0.0000000000000000     
  -8.2599999999999993E-002     0.0000000000000000     
  -8.1499999999999989E-002     0.0000000000000000     
  -8.0399999999999999E-002     0.0000000000000000     
  -7.9299999999999995E-002     0.0000000000000000     
  -7.8199999999999992E-002     0.0000000000000000     
  -7.7100000000000002E-002     0.0000000000000000     
  -7.5999999999999984E-002     0.0000000000000000     
  -7.4899999999999994E-002     0.0000000000000000     
  -7.3799999999999991E-002     0.0000000000000000     
  -7.2699999999999987E-002     0.0000000000000000     
  -7.1599999999999997E-002     0.0000000000000000     
  -7.0499999999999993E-002     0.0000000000000000     
  -6.9399999999999989E-002     0.0000000000000000     
  -6.8300000000000000E-002     0.0000000000000000     
  -6.7199999999999996E-002     0.0000000000000000     
  -6.6099999999999992E-002     0.0000000000000000     
  -6.5000000000000002E-002     0.0000000000000000     
  -6.3899999999999985E-002     0.0000000000000000     
  -6.2799999999999995E-002     0.0000000000000000     
  -6.1699999999999991E-002     0.0000000000000000     
  -6.0599999999999994E-002     0.0000000000000000     
  -5.9499999999999990E-002     0.0000000000000000     
  -5.8399999999999994E-002     0.0000000000000000     
  -5.7299999999999990E-002     0.0000000000000000     
  -5.6199999999999986E-002     0.0000000000000000     
  -5.5099999999999996E-002     0.0000000000000000     
  -5.3999999999999992E-002     0.0000000000000000     
  -5.2899999999999989E-002     0.0000000000000000     
  -5.1799999999999985E-002     0.0000000000000000     
  -5.0699999999999995E-002     0.0000000000000000     
  -4.9599999999999991E-002     0.0000000000000000     
  -4.8499999999999988E-002     0.0000000000000000     
  -4.7399999999999998E-002     0.0000000000000000     
  -4.6299999999999994E-002     0.0000000000000000     
  -4.5199999999999990E-002     0.0000000000000000     
  -4.4099999999999986E-002     0.0000000000000000     
  -4.2999999999999997E-002     0.0000000000000000     
  -4.1899999999999993E-002     0.0000000000000000     
  -4.0799999999999989E-002     0.0000000000000000     
  -3.9699999999999985E-002     0.0000000000000000     
  -3.8599999999999995E-002     0.0000000000000000     
  -3.7499999999999992E-002     0.0000000000000000     
  -3.6399999999999988E-002     0.0000000000000000     
  -3.5299999999999984E-002     0.0000000000000000     
  -3.4199999999999994E-002     0.0000000000000000     
  -3.3099999999999991E-002     0.0000000000000000     
  -3.1999999999999987E-002     0.0000000000000000     
  -3.0899999999999997E-002     0.0000000000000000     
  -2.9799999999999993E-002     0.0000000000000000     
  -2.8699999999999989E-002     0.0000000000000000     
  -2.7599999999999986E-002     0.0000000000000000     
  -2.6499999999999996E-002     0.0000000000000000     
  -2.5399999999999992E-002     0.0000000000000000     
  -2.4299999999999988E-002     0.0000000000000000     
  -2.3199999999999985E-002     0.0000000000000000     
  -2.2099999999999995E-002     0.0000000000000000     
  -2.0999999999999991E-002     0.0000000000000000     
  -1.9899999999999987E-002     0.0000000000000000     
  -1.8799999999999983E-002     0.0000000000000000     
  -1.7699999999999994E-002     0.0000000000000000     
  -1.6599999999999990E-002     0.0000000000000000     
  -1.5499999999999986E-002     0.0000000000000000     
  -1.4399999999999996E-002     0.0000000000000000     
  -1.3299999999999992E-002     0.0000000000000000     
  -1.2199999999999989E-002     0.0000000000000000     
  -1.1099999999999985E-002     0.0000000000000000     
  -9.9999999999999950E-003     0.0000000000000000     
  -8.8999999999999913E-003     0.0000000000000000     
  -7.7999999999999875E-003     0.0000000000000000     
  -6.6999999999999837E-003     0.0000000000000000     
  -5.5999999999999939E-003     0.0000000000000000     
  -4.4999999999999901E-003     0.0000000000000000     
  -3.3999999999999864E-003     0.0000000000000000     
  -2.2999999999999826E-003     0.0000000000000000     
  -1.1999999999999927E-003     0.0000000000000000     
  -9.9999999999988987E-005     0.0000000000000000     
   1.0000000000000148E-003     0.0000000000000000     
   2.1000000000000185E-003     0.0000000000000000     
   3.2000000000000084E-003     0.0000000000000000     
   4.3000000000000121E-003     0.0000000000000000     
   5.4000000000000159E-003     0.0000000000000000     
   6.5000000000000058E-003     0.0000000000000000     
   7.6000000000000234E-003     0.0000000000000000     
   8.7000000000000133E-003     0.0000000000000000     
   9.8000000000000032E-003     0.0000000000000000     
   1.0900000000000021E-002     0.0000000000000000     
   1.2000000000000011E-002     0.0000000000000000     
   1.3100000000000001E-002     0.0000000000000000     
   1.4200000000000018E-002     0.0000000000000000     
   1.5300000000000008E-002     0.0000000000000000     
   1.6400000000000026E-002     0.0000000000000000     
   1.7500000000000016E-002     0.0000000000000000     
   1.8600000000000005E-002     0.0000000000000000     
   1.9700000000000023E-002     0.0000000000000000     
   2.0800000000000013E-002     0.0000000000000000     
   2.1900000000000003E-002     0.0000000000000000     
   2.3000000000000020E-002     0.0000000000000000     
   2.4100000000000010E-002     0.0000000000000000     
   2.5200000000000000E-002     0.0000000000000000     
   2.6300000000000018E-002     0.0000000000000000     
   2.7400000000000008E-002     0.0000000000000000     
   2.8500000000000025E-002     0.0000000000000000     
   2.9600000000000015E-002     0.0000000000000000     
   3.0700000000000005E-002    -2.5607194209574204E-044
   3.1800000000000023E-002    -1.2542152435630039E-043
   3.2900000000000013E-002    -4.3621114234449363E-039
   3.4000000000000002E-002    -8.9763310510097386E-039
   3.5100000000000020E-002    -7.9471506978528582E-039
   3.6200000000000010E-002     4.6423392699507401E-039
   3.7300000000000028E-002     2.5969750076533826E-038
   3.8400000000000017E-002     4.1214518475020757E-038
   3.9500000000000007E-002     2.3119331761629051E-038
   4.0600000000000025E-002    -8.7444836184184608E-039
   4.1700000000000015E-002    -2.5599074084367671E-038
   4.2800000000000005E-002    -2.4310688967373661E-038
   4.3900000000000022E-002    -5.2351480339344333E-038
   4.5000000000000012E-002    -8.6730598705183947E-038
   4.6100000000000002E-002    -6.7413092090853471E-038
   4.7200000000000020E-002     1.2091668327537917E-037
   4.8300000000000010E-002     5.1915463813657247E-037
   4.9400000000000027E-002     9.6732165072655802E-037
   5.0500000000000017E-002     1.0902593748002445E-036
   5.1600000000000007E-002     4.3857998271384646E-037
   5.2700000000000025E-002    -1.2516089667188753E-036
   5.3800000000000014E-002    -3.6841429205260262E-036
   5.4900000000000004E-002    -5.7299028979179357E-036
   5.6000000000000022E-002    -5.5391166485559863E-036
   5.7100000000000012E-002    -1.1999102908852068E-036
   5.8200000000000002E-002     7.9495062375720704E-036
   5.9300000000000019E-002     1.9792104191152360E-035
   6.0400000000000009E-002     2.8508584241607461E-035
   6.1500000000000027E-002     2.5409071020781682E-035
   6.2600000000000017E-002     2.4167718134778349E-036
   6.3700000000000007E-002    -4.1930257532595570E-035
   6.4800000000000024E-002    -9.5976306346039845E-035
   6.5900000000000014E-002    -1.3190566814326931E-034
   6.7000000000000004E-002    -1.1102471384351848E-034
   6.8100000000000022E-002    -5.4601048642278978E-037
   6.9200000000000012E-002     2.0009909845085201E-034
   7.0300000000000029E-002     4.3327018126792612E-034
   7.1400000000000019E-002     5.7475944221774702E-034
   7.2500000000000009E-002     4.6216047887902349E-034
   7.3600000000000027E-002    -3.0309080501838936E-035
   7.4700000000000016E-002    -8.8356531598742842E-034
   7.5800000000000006E-002    -1.8363211162860004E-033
   7.6900000000000024E-002    -2.3688274606572617E-033
   7.8000000000000014E-002    -1.8376409852485127E-033
   7.9100000000000004E-002     2.1359206313013132E-034
   8.0200000000000021E-002     3.6353893816616170E-033
   8.1300000000000011E-002     7.3299314623556705E-033
   8.2400000000000029E-002     9.2512170802323318E-033
   8.3500000000000019E-002     6.9873546268198617E-033
   8.4600000000000009E-002    -1.0297523896350175E-033
   8.5700000000000026E-002    -1.3996760490291282E-032
   8.6800000000000016E-002    -2.7606420712285625E-032
   8.7900000000000006E-002    -3.4260498160288370E-032
   8.9000000000000024E-002    -2.5393241172145483E-032
   9.0100000000000013E-002     4.0994141738892215E-033
   9.1200000000000003E-002     5.0595905947114466E-032
   9.2300000000000021E-002     9.8235956504026602E-032
   9.3400000000000011E-002     1.2034740448273017E-031
   9.4500000000000028E-002     8.8086295153082202E-032
   9.5600000000000018E-002    -1.4268111608424715E-032
   9.6700000000000008E-002    -1.7216627936825441E-031
   9.7800000000000026E-002    -3.3059907406525023E-031
   9.8900000000000016E-002    -4.0094529301962962E-031
  0.10000000000000001         -2.9109137247004647E-031
  0.10110000000000002          4.4664685126907898E-032
  0.10220000000000001          5.5279555967980680E-031
  0.10330000000000003          1.0530880517127456E-030
  0.10440000000000002          1.2665434184678479E-030
  0.10550000000000001          9.1422097434334381E-031
  0.10660000000000003         -1.2870990001596669E-031
  0.10770000000000002         -1.6791492726295692E-030
  0.10880000000000001         -3.1780981431143510E-030
  0.10990000000000003         -3.7925501948469766E-030
  0.11100000000000002         -2.7218153502581138E-030
  0.11210000000000001          3.5201070050095766E-031
  0.11320000000000002          4.8407228676871287E-030
  0.11430000000000001          9.0987124001943470E-030
  0.11540000000000003          1.0764869294752330E-029
  0.11650000000000002          7.6616208791939451E-030
  0.11760000000000001         -9.5595865094152105E-031
  0.11870000000000003         -1.3299973402524164E-029
  0.11980000000000002         -2.4761116694278675E-029
  0.12090000000000001         -2.8977733175615173E-029
  0.12200000000000003         -2.0341244233904208E-029
  0.12310000000000001          2.7146386477372016E-030
  0.12420000000000003          3.5016867786852835E-029
  0.12530000000000002          6.4245834094942009E-029
  0.12640000000000001          7.4078786038124778E-029
  0.12750000000000003          5.0837964085013732E-029
  0.12860000000000002         -8.2707825601375037E-030
  0.12970000000000001         -8.8929140573793714E-029
  0.13080000000000003         -1.5961219012746675E-028
  0.13190000000000002         -1.8033662152233628E-028
  0.13300000000000001         -1.1950811458604870E-028
  0.13410000000000000          2.6407505123141292E-029
  0.13520000000000004          2.1935352137606177E-028
  0.13630000000000003          3.8181443665983598E-028
  0.13740000000000002          4.1997327435010840E-028
  0.13850000000000001          2.6461042108540478E-028
  0.13960000000000000         -8.3996651016970174E-029
  0.14070000000000005         -5.2848131260397174E-028
  0.14180000000000004         -8.8502857888861331E-028
  0.14290000000000003         -9.4189194994957757E-028
  0.14400000000000002         -5.5480020989823831E-028
  0.14510000000000001          2.5473698645378400E-028
  0.14620000000000000          1.2467311265179955E-027
  0.14730000000000004          1.9994990782569229E-027
  0.14840000000000003          2.0511798185628281E-027
  0.14950000000000002          1.1142104884044285E-027
  0.15060000000000001         -7.1743257680849028E-028
  0.15170000000000000         -2.8742455319586026E-027
  0.15280000000000005         -4.4185044881188778E-027
  0.15390000000000004         -4.3723675868018552E-027
  0.15500000000000003         -2.1835285837650929E-027
  0.15610000000000002          1.8525147155071504E-027
  0.15720000000000001          6.4367179791010771E-027
  0.15830000000000000          9.5467642359663864E-027
  0.15940000000000004          9.1670984981395439E-027
  0.16050000000000003          4.2667292424017548E-027
  0.16160000000000002         -4.3667582473458796E-027
  0.16270000000000001         -1.3890048591983759E-026
  0.16380000000000000         -2.0077623598702427E-026
  0.16490000000000005         -1.8882103900790729E-026
  0.16600000000000004         -8.4212597710513496E-027
  0.16710000000000003          9.4229370983488472E-027
  0.16820000000000002          2.8682316118740681E-026
  0.16930000000000001          4.0817087430214264E-026
  0.17040000000000000          3.7924430430212861E-026
  0.17150000000000004          1.6647020776724136E-026
  0.17260000000000003         -1.8851997267919839E-026
  0.17370000000000002         -5.6536931626367861E-026
  0.17480000000000001         -7.9729210326520827E-026
  0.17590000000000000         -7.3473829291057268E-026
  0.17700000000000005         -3.1987618234526794E-026
  0.17810000000000004          3.5978965737089711E-026
  0.17920000000000003          1.0697892914737634E-025
  0.18030000000000002          1.4948138115789036E-025
  0.18140000000000001          1.3611875982346500E-025
  0.18250000000000000          5.7472796152758377E-026
  0.18360000000000004         -6.8571096557068548E-026
  0.18470000000000003         -1.9747999966888072E-025
  0.18580000000000002         -2.7121734481834239E-025
  0.18690000000000001         -2.4123674082345239E-025
  0.18800000000000000         -9.3394676547936553E-026
  0.18910000000000005          1.3620361922548419E-025
  0.19020000000000004          3.6420334455743699E-025
  0.19130000000000003          4.8555818996180083E-025
  0.19240000000000002          4.1595196944614637E-025
  0.19350000000000001          1.3609352150633848E-025
  0.19460000000000005         -2.8196221953601806E-025
  0.19570000000000004         -6.8332822509303348E-025
  0.19680000000000003         -8.7898220614164033E-025
  0.19790000000000002         -7.2301388906032916E-025
  0.19900000000000001         -1.9071084529392436E-025
  0.20010000000000000          5.7782925652567517E-025
  0.20120000000000005          1.2973603061051649E-024
  0.20230000000000004          1.6279566558195275E-024
  0.20340000000000003          1.3137383723227354E-024
  0.20450000000000002          3.1981735944480596E-025
  0.20560000000000000         -1.0944082724045971E-024
  0.20670000000000005         -2.4144664086455027E-024
  0.20780000000000004         -3.0332360148580996E-024
  0.20890000000000003         -2.4950578508405340E-024
  0.21000000000000002         -7.3359154342351326E-025
  0.21110000000000001          1.8029422461002670E-024
  0.21220000000000000          4.2211759606041933E-024
  0.21330000000000005          5.4623239397178395E-024
  0.21440000000000003          4.7192194688515494E-024
  0.21550000000000002          1.8406944611067788E-024
  0.21660000000000001         -2.4551893667873394E-024
  0.21770000000000000         -6.6941918859910602E-024
  0.21880000000000005         -9.1081724447872202E-024
  0.21990000000000004         -8.3226236531686240E-024
  0.22100000000000003         -4.0208967394134833E-024
  0.22210000000000002          2.7063860874602505E-024
  0.22320000000000001          9.5429526093061075E-024
  0.22430000000000000          1.3690201422330885E-023
  0.22540000000000004          1.2965107187988065E-023
  0.22650000000000003          6.8487002626615906E-024
  0.22760000000000002         -2.9796918361327697E-024
  0.22870000000000001         -1.2957392398410992E-023
  0.22980000000000000         -1.8834049215076257E-023
  0.23090000000000005         -1.7400342047625335E-023
  0.23200000000000004         -8.0972753081456761E-024
  0.23310000000000003          6.2266293040605506E-024
  0.23420000000000002          1.9918055543203965E-023
  0.23530000000000001          2.6494492214243635E-023
  0.23640000000000000          2.1402571527366977E-023
  0.23750000000000004          4.5002950863541402E-024
  0.23860000000000003         -1.8897644984250238E-023
  0.23970000000000002         -3.9186216795732218E-023
  0.24080000000000001         -4.5816423362591941E-023
  0.24190000000000000         -3.1828531034447773E-023
  0.24300000000000005          2.1531803637715784E-024
  0.24410000000000004          4.6327368369641960E-023
  0.24520000000000003          8.3749675729562755E-023
  0.24630000000000002          9.5922480981869421E-023
  0.24740000000000001          7.0336987484675955E-023
  0.24850000000000005          7.1988202162307334E-024
  0.24960000000000004         -7.7658369563959163E-023
  0.25070000000000003         -1.5568135577942014E-022
  0.25180000000000002         -1.9431993802953059E-022
  0.25290000000000001         -1.6915764918682746E-022
  0.25400000000000000         -7.5195093169711775E-023
  0.25510000000000005          6.7403915729299488E-023
  0.25620000000000004          2.1638116802178658E-022
  0.25730000000000003          3.1955745597650953E-022
  0.25840000000000002          3.3279711852411746E-022
  0.25950000000000001          2.3761760762658989E-022
  0.26060000000000005          5.1515778757822843E-023
  0.26170000000000004         -1.7400599452433097E-022
  0.26280000000000003         -3.6851290718510756E-022
  0.26390000000000002         -4.6647484493513986E-022
  0.26500000000000001         -4.3148262904990563E-022
  0.26610000000000000         -2.7130865398028427E-022
  0.26720000000000005         -3.6924374128820897E-023
  0.26830000000000004          1.9556872230222363E-022
  0.26940000000000003          3.5410642074638482E-022
  0.27050000000000002          3.9957098856463467E-022
  0.27160000000000001          3.4188985940041063E-022
  0.27270000000000005          2.3488593618181304E-022
  0.27380000000000004          1.4985893821083142E-022
  0.27490000000000003          1.3757539737481220E-022
  0.27600000000000002          1.9525228038393825E-022
  0.27710000000000001          2.5571239099808027E-022
  0.27820000000000000          2.0880181372366909E-022
  0.27930000000000005         -4.7862234475256197E-023
  0.28040000000000004         -5.4605767763147109E-022
  0.28150000000000003         -1.1988456039131784E-021
  0.28260000000000002         -1.7937157983690420E-021
  0.28370000000000001         -2.0415872403967197E-021
  0.28480000000000005         -1.6754777574197810E-021
  0.28590000000000004         -5.7009256122209177E-022
  0.28700000000000003          1.1617156954668352E-021
  0.28810000000000002          3.1399894895993824E-021
  0.28920000000000001          4.7831051128432372E-021
  0.29030000000000000          5.4631198754729669E-021
  0.29140000000000005          4.7113668405373003E-021
  0.29250000000000004          2.4089472179287159E-021
  0.29360000000000003         -1.1080402755485221E-021
  0.29470000000000002         -5.0778089976034812E-021
  0.29580000000000001         -8.4840801294478536E-021
  0.29690000000000005         -1.0327142974983820E-020
  0.29800000000000004         -9.9138720936812397E-021
  0.29910000000000003         -7.0734124185862955E-021
  0.30020000000000002         -2.2263586713042225E-021
  0.30130000000000001          3.7155570703779981E-021
  0.30240000000000000          9.5825972632525960E-021
  0.30350000000000005          1.4229181682059085E-020
  0.30460000000000004          1.6767144694533631E-020
  0.30570000000000003          1.6678848030735088E-020
  0.30680000000000002          1.3797630076009386E-020
  0.30790000000000001          8.2096655309553266E-021
  0.30900000000000005          1.7468809644365679E-022
  0.31010000000000004         -9.8419176073088971E-021
  0.31120000000000003         -2.0993196957402242E-020
  0.31230000000000002         -3.1795495235493648E-020
  0.31340000000000001         -3.9953473393657506E-020
  0.31450000000000006         -4.2468594921527982E-020
  0.31560000000000005         -3.6189808364003382E-020
  0.31670000000000004         -1.8823603178151781E-020
  0.31780000000000003          9.7865336016409935E-021
  0.31890000000000002          4.6506494388035884E-020
  0.32000000000000001          8.4396437602842195E-020
  0.32110000000000005          1.1330305019699211E-019
  0.32220000000000004          1.2179050047385339E-019
  0.32330000000000003          1.0024241683539660E-019
  0.32440000000000002          4.4503829901708007E-020
  0.32550000000000001         -4.0951628375810199E-020
  0.32660000000000006         -1.4150010113890277E-019
  0.32770000000000005         -2.3348053542292442E-019
  0.32880000000000004         -2.8838969954385680E-019
  0.32990000000000003         -2.7978565485767727E-019
  0.33100000000000002         -1.9160810599141476E-019
  0.33210000000000001         -2.5859774029285693E-020
  0.33320000000000005          1.9276886064469768E-019
  0.33430000000000004          4.1750784144889049E-019
  0.33540000000000003          5.8661501912388617E-019
  0.33650000000000002          6.3675502289709228E-019
  0.33760000000000001          5.2060820589368878E-019
  0.33870000000000006          2.2493333987382399E-019
  0.33980000000000005         -2.1586993860080386E-019
  0.34090000000000004         -7.1580977517549058E-019
  0.34200000000000003         -1.1468847895380664E-018
  0.34310000000000002         -1.3635138777783626E-018
  0.34420000000000001         -1.2393662460731922E-018
  0.34530000000000005         -7.0990049836189751E-019
  0.34640000000000004          1.8979304953089249E-019
  0.34750000000000003          1.3042279804997311E-018
  0.34860000000000002          2.3653043071719340E-018
  0.34970000000000001          3.0356019806596898E-018
  0.35080000000000006          2.9861184090224064E-018
  0.35190000000000005          1.9969595809532562E-018
  0.35300000000000004          5.8926968324131253E-020
  0.35410000000000003         -2.5537154330719444E-018
  0.35520000000000002         -5.2704639037873127E-018
  0.35630000000000001         -7.2956703561350240E-018
  0.35740000000000005         -7.7705948711065886E-018
  0.35850000000000004         -6.0089230251492215E-018
  0.35960000000000003         -1.7606796342138518E-018
  0.36070000000000002          4.5639433402345620E-018
  0.36180000000000001          1.1790296095475974E-017
  0.36290000000000006          1.8065140452940291E-017
  0.36400000000000005          2.1170919139717448E-017
  0.36510000000000004          1.9052606488564845E-017
  0.36620000000000003          1.0474425977404876E-017
  0.36730000000000002         -4.3406737396240190E-018
  0.36840000000000006         -2.3278519711354668E-017
  0.36950000000000005         -4.2299721295172591E-017
  0.37060000000000004         -5.5943743082235623E-017
  0.37170000000000003         -5.8402854721231891E-017
  0.37280000000000002         -4.5047734554865039E-017
  0.37390000000000001         -1.4123136469787210E-017
  0.37500000000000006          3.1803478534145663E-017
  0.37610000000000005          8.5119273824621692E-017
  0.37720000000000004          1.3359768622888487E-016
  0.37830000000000003          1.6223061832140952E-016
  0.37940000000000002          1.5640367155574017E-016
  0.38050000000000006          1.0597789145088277E-016
  0.38160000000000005          9.4669014929240333E-018
  0.38270000000000004         -1.2277324679489451E-016
  0.38380000000000003         -2.6748840339895115E-016
  0.38490000000000002         -3.9053616382630635E-016
  0.38600000000000001         -4.5237008552838838E-016
  0.38710000000000000         -4.1662782843582429E-016
  0.38819999999999999         -2.6054406464980941E-016
  0.38930000000000009          1.4934025202609574E-017
  0.39040000000000008          3.7799464826766747E-016
  0.39150000000000007          7.6446356104956341E-016
  0.39260000000000006          1.0840086420638738E-015
  0.39370000000000005          1.2347580542388669E-015
  0.39480000000000004          1.1251600956692305E-015
  0.39590000000000003          6.9979205013644148E-016
  0.39700000000000002         -3.6069818244235286E-017
  0.39810000000000001         -9.9946526113617517E-016
  0.39920000000000000         -2.0266313356346663E-015
  0.40029999999999999         -2.8884415337698962E-015
  0.40140000000000009         -3.3259590888263587E-015
  0.40250000000000008         -3.1033233100284423E-015
  0.40360000000000007         -2.0703420627038437E-015
  0.40470000000000006         -2.2283854167446155E-016
  0.40580000000000005          2.2538984660742216E-015
  0.40690000000000004          4.9732337817211177E-015
  0.40800000000000003          7.3782241443815609E-015
  0.40910000000000002          8.8201752689351046E-015
  0.41020000000000001          8.6798160641670227E-015
  0.41130000000000000          6.5153816148374807E-015
  0.41239999999999999          2.2118361568036799E-015
  0.41350000000000009         -3.9013984262741793E-015
  0.41460000000000008         -1.0998373917492586E-014
  0.41570000000000007         -1.7798829014207956E-014
  0.41680000000000006         -2.2720302193401550E-014
  0.41790000000000005         -2.4136263326915470E-014
  0.41900000000000004         -2.0713016864116851E-014
  0.42010000000000003         -1.1774705867383960E-014
  0.42120000000000002          2.3726575318395446E-015
  0.42230000000000001          2.0235944228354897E-014
  0.42340000000000000          3.9121189059005681E-014
  0.42449999999999999          5.5363178927002692E-014
  0.42560000000000009          6.4813920946688122E-014
  0.42670000000000008          6.3557655971414283E-014
  0.42780000000000007          4.8767299097679273E-014
  0.42890000000000006          1.9568609874359357E-014
  0.43000000000000005         -2.2255847683610693E-014
  0.43110000000000004         -7.1900903192459288E-014
  0.43220000000000003         -1.2166753321636747E-013
  0.43330000000000002         -1.6168672277237208E-013
  0.43440000000000001         -1.8125115325704865E-013
  0.43550000000000000         -1.7065610156645783E-013
  0.43659999999999999         -1.2333226221925560E-013
  0.43770000000000009         -3.7946125594126377E-014
  0.43880000000000008          7.9930917692679650E-014
  0.43990000000000007          2.1700218017255094E-013
  0.44100000000000006          3.5264112287536655E-013
  0.44210000000000005          4.6074090034634394E-013
  0.44320000000000004          5.1305458835465765E-013
  0.44430000000000003          4.8380601204514281E-013
  0.44540000000000002          3.5507119672522276E-013
  0.44650000000000001          1.2216899459802199E-013
  0.44760000000000000         -2.0189231353094395E-013
  0.44869999999999999         -5.8393987173783187E-013
  0.44980000000000009         -9.7107616984878701E-013
  0.45090000000000008         -1.2947098466958684E-012
  0.45200000000000007         -1.4784057174854296E-012
  0.45310000000000006         -1.4491858372333328E-012
  0.45420000000000005         -1.1512294451304187E-012
  0.45530000000000004         -5.6024971835664270E-013
  0.45640000000000003          3.0372548041378662E-013
  0.45750000000000002          1.3677468572129631E-012
  0.45860000000000001          2.5040373383367198E-012
  0.45970000000000000          3.5368322951631818E-012
  0.46079999999999999          4.2590781495162506E-012
  0.46190000000000009          4.4587518194774862E-012
  0.46300000000000008          3.9529303265927516E-012
  0.46410000000000007          2.6260099026770553E-012
  0.46520000000000006          4.6690619270899774E-013
  0.46630000000000005         -2.4010317674852771E-012
  0.46740000000000004         -5.7040557205780352E-012
  0.46850000000000003         -9.0220559626514974E-012
  0.46960000000000002         -1.1816993222663033E-011
  0.47070000000000001         -1.3487352468608339E-011
  0.47180000000000000         -1.3446584901551546E-011
  0.47289999999999999         -1.1219329777772762E-011
  0.47400000000000009         -6.5449909942426401E-012
  0.47510000000000008          5.2534165196767325E-013
  0.47620000000000007          9.5549182843824626E-012
  0.47730000000000006          1.9687018990286809E-011
  0.47840000000000005          2.9665003220739050E-011