 -0.12000000000000000          0.0000000000000000     
 -0.11889999999999999          0.0000000000000000     
 -0.11780000000000000          0.0000000000000000     
 -0.11670000000000000          0.0000000000000000     
 -0.11559999999999999          0.0000000000000000     
 -0.11449999999999999          0.0000000000000000     
 -0.11340000000000000          0.0000000000000000     
 -0.11230000000000000          0.0000000000000000     
 -0.11119999999999999          0.0000000000000000     
 -0.11009999999999999          0.0000000000000000     
 -0.10900000000000000          0.0000000000000000     
 -0.10790000000000000          0.0000000000000000     
 -0.10679999999999999          0.0000000000000000     
 -0.10569999999999999          0.0000000000000000     
 -0.10460000000000000          0.0000000000000000     
 -0.10349999999999999          0.0000000000000000     
 -0.10239999999999999          0.0000000000000000     
 -0.10130000000000000          0.0000000000000000     
 -0.10020000000000000          0.0000000000000000     
  -9.9099999999999994E-002     0.0000000000000000     
  -9.7999999999999990E-002     0.0000000000000000     
  -9.6899999999999986E-002     0.0000000000000000     
  -9.5799999999999996E-002     0.0000000000000000     
  -9.4699999999999993E-002     0.0000000000000000     
  -9.3599999999999989E-002     0.0000000000000000     
  -9.2499999999999999E-002     0.0000000000000000     
  -9.1399999999999995E-002     0.0000000000000000     
  -9.0299999999999991E-002     0.0000000000000000     
  -8.9200000000000002E-002     0.0000000000000000     
  -8.8099999999999984E-002     0.0000000000000000     
  -8.6999999999999994E-002     0.0000000000000000     
  -8.5899999999999990E-002     0.0000000000000000     
  -8.4799999999999986E-002     0.0000000000000000     
  -8.3699999999999997E-002     0.0000000000000000     
  -8.2599999999999993E-002     0.0000000000000000     
  -8.1499999999999989E-002     0.0000000000000000     
  -8.0399999999999999E-002     0.0000000000000000     
  -7.9299999999999995E-002     0.0000000000000000     
  -7.8199999999999992E-002     0.0000000000000000     
  -7.7100000000000002E-002     0.0000000000000000     
  -7.5999999999999984E-002     0.0000000000000000     
  -7.4899999999999994E-002     0.0000000000000000     
  -7.3799999999999991E-002     0.0000000000000000     
  -7.2699999999999987E-002     0.0000000000000000     
  -7.1599999999999997E-002     0.0000000000000000     
  -7.0499999999999993E-002     0.0000000000000000     
  -6.9399999999999989E-002     0.0000000000000000     
  -6.8300000000000000E-002     0.0000000000000000     
  -6.7199999999999996E-002     0.0000000000000000     
  -6.6099999999999992E-002     0.0000000000000000     
  -6.5000000000000002E-002     0.0000000000000000     
  -6.3899999999999985E-002     0.0000000000000000     
  -6.2799999999999995E-002     0.0000000000000000     
  -6.1699999999999991E-002     0.0000000000000000     
  -6.0599999999999994E-002     0.0000000000000000     
  -5.9499999999999990E-002     0.0000000000000000     
  -5.8399999999999994E-002     0.0000000000000000     
  -5.7299999999999990E-002     0.0000000000000000     
  -5.6199999999999986E-002     0.0000000000000000     
  -5.5099999999999996E-002     0.0000000000000000     
  -5.3999999999999992E-002     0.0000000000000000     
  -5.2899999999999989E-002     0.0000000000000000     
  -5.1799999999999985E-002     0.0000000000000000     
  -5.0699999999999995E-002     0.0000000000000000     
  -4.9599999999999991E-002     0.0000000000000000     
  -4.8499999999999988E-002     0.0000000000000000     
  -4.7399999999999998E-002     0.0000000000000000     
  -4.6299999999999994E-002     0.0000000000000000     
  -4.5199999999999990E-002     0.0000000000000000     
  -4.4099999999999986E-002     0.0000000000000000     
  -4.2999999999999997E-002     0.0000000000000000     
  -4.1899999999999993E-002     0.0000000000000000     
  -4.0799999999999989E-002     0.0000000000000000     
  -3.9699999999999985E-002     0.0000000000000000     
  -3.8599999999999995E-002     0.0000000000000000     
  -3.7499999999999992E-002     0.0000000000000000     
  -3.6399999999999988E-002     0.0000000000000000     
  -3.5299999999999984E-002     0.0000000000000000     
  -3.4199999999999994E-002     0.0000000000000000     
  -3.3099999999999991E-002     0.0000000000000000     
  -3.1999999999999987E-002     0.0000000000000000     
  -3.0899999999999997E-002     0.0000000000000000     
  -2.9799999999999993E-002     0.0000000000000000     
  -2.8699999999999989E-002     0.0000000000000000     
  -2.7599999999999986E-002     0.0000000000000000     
  -2.6499999999999996E-002     7.7000781267258731E-044
  -2.5399999999999992E-002     1.7343766921863709E-043
  -2.4299999999999988E-002     8.7421769441229084E-040
  -2.3199999999999985E-002     8.7518951054246047E-040
  -2.2099999999999995E-002    -3.1773320797319127E-039
  -2.0999999999999991E-002    -1.1808321600064884E-038
  -1.9899999999999987E-002    -2.0659140500611540E-038
  -1.8799999999999983E-002    -1.7002854266501679E-038
  -1.7699999999999994E-002     2.5377431639879892E-038
  -1.6599999999999990E-002     1.0687934740741819E-037
  -1.5499999999999986E-002     2.1556424417010090E-037
  -1.4399999999999996E-002     2.2788354792882556E-037
  -1.3299999999999992E-002    -5.5658697259213997E-039
  -1.2199999999999989E-002    -5.6707786084555564E-037
  -1.1099999999999985E-002    -1.3358039798630776E-036
  -9.9999999999999950E-003    -1.8174027985815171E-036
  -8.8999999999999913E-003    -1.1111188013557358E-036
  -7.7999999999999875E-003     1.7548794552407959E-036
  -6.6999999999999837E-003     6.9518552855510730E-036
  -5.5999999999999939E-003     1.2596938348927507E-035
  -4.4999999999999901E-003     1.3817922762774691E-035
  -3.3999999999999864E-003     3.4844124780156609E-036
  -2.2999999999999826E-003    -2.3939821395800866E-035
  -1.1999999999999927E-003    -6.5116517015567221E-035
  -9.9999999999988987E-005    -9.9665110892558668E-035
   1.0000000000000148E-003    -8.7606132405715020E-035
   2.1000000000000185E-003     1.8363453699889812E-035
   3.2000000000000084E-003     2.3909586311919513E-034
   4.3000000000000121E-003     5.1865495818093741E-034
   5.4000000000000159E-003     6.8294032393153415E-034
   6.5000000000000058E-003     4.5411741991392598E-034
   7.6000000000000234E-003    -4.2832735764722306E-034
   8.7000000000000133E-003    -1.9650787118866578E-033
   9.8000000000000032E-003    -3.6063494267393574E-033
   1.0900000000000021E-002    -4.1068519307172823E-033
   1.2000000000000011E-002    -1.8044414716925798E-033
   1.3100000000000001E-002     4.4600996568227505E-033
   1.4200000000000018E-002     1.3868686327565745E-032
   1.5300000000000008E-002     2.2226459832100104E-032
   1.6400000000000026E-002     2.1842839785373660E-032
   1.7500000000000016E-002     4.0727681886298586E-033
   1.8600000000000005E-002    -3.4862436433457005E-032
   1.9700000000000023E-002    -8.6142113029816122E-032
   2.0800000000000013E-002    -1.2287593522225879E-031
   2.1900000000000003E-002    -1.0326673722237624E-031
   2.3000000000000020E-002     1.1911143948629340E-032
   2.4100000000000010E-002     2.2751061274208541E-031
   2.5200000000000000E-002     4.7869815741007032E-031
   2.6300000000000018E-002     6.1527920233214630E-031
   2.7400000000000008E-002     4.3473357929073571E-031
   2.8500000000000025E-002    -2.1744480006278831E-031
   2.9600000000000015E-002    -1.2946789126197069E-030
   3.0700000000000005E-002    -2.4087711690401200E-030
   3.1800000000000023E-002    -2.8130907061176679E-030
   3.2900000000000013E-002    -1.6247102080710569E-030
   3.4000000000000002E-002     1.6740916536337583E-030
   3.5100000000000020E-002     6.5783808579089740E-030
   3.6200000000000010E-002     1.1078287860991047E-029
   3.7300000000000028E-002     1.1823287471500167E-029
   3.8400000000000017E-002     5.3273715462918362E-030
   3.9500000000000007E-002    -9.7978993939291233E-030
   4.0600000000000025E-002    -3.0302964015300349E-029
   4.1700000000000015E-002    -4.6922059693520250E-029
   4.2800000000000005E-002    -4.5940830012132639E-029
   4.3900000000000022E-002    -1.4843881883166967E-029
   4.5000000000000012E-002     4.8695772991557641E-029
   4.6100000000000002E-002     1.2794494010980079E-028
   4.7200000000000020E-002     1.8418760406147029E-028
   4.8300000000000010E-002     1.6580716631666428E-028
   4.9400000000000027E-002     3.1886029765180519E-029
   5.0500000000000017E-002    -2.1473653332133129E-028
   5.1600000000000007E-002    -4.9943703831421953E-028
   5.2700000000000025E-002    -6.7378262812398433E-028
   5.3800000000000014E-002    -5.5796590605899673E-028
   5.4900000000000004E-002    -3.0408078735072626E-029
   5.6000000000000022E-002     8.6031670461821130E-028
   5.7100000000000012E-002     1.8156960025123701E-027
   5.8200000000000002E-002     2.3086355967717821E-027
   5.9300000000000019E-002     1.7561292941554491E-027
   6.0400000000000009E-002    -1.6765714666998659E-028
   6.1500000000000027E-002    -3.1802959249757647E-027
   6.2600000000000017E-002    -6.1889383604569696E-027
   6.3700000000000007E-002    -7.4462456107863716E-027
   6.4800000000000024E-002    -5.1836525538386017E-027
   6.5900000000000014E-002     1.3720223667437876E-027
   6.7000000000000004E-002     1.0972723806345895E-026
   6.8100000000000022E-002     1.9907113738051539E-026
   6.9200000000000012E-002     2.2729458367384144E-026
   7.0300000000000029E-002     1.4394445919426586E-026
   7.1400000000000019E-002    -6.6500410020362071E-027
   7.2500000000000009E-002    -3.5656913485625942E-026
   7.3600000000000027E-002    -6.0815760304435605E-026
   7.4700000000000016E-002    -6.6063428909542474E-026
   7.5800000000000006E-002    -3.7786777105921699E-026
   7.6900000000000024E-002     2.6297401144965386E-026
   7.8000000000000014E-002     1.0991965405148732E-025
   7.9100000000000004E-002     1.7757781344917276E-025
   8.0200000000000021E-002     1.8413340739295803E-025
   8.1300000000000011E-002     9.4603489246424503E-026
   8.2400000000000029E-002    -9.1611026313420473E-026
   8.3500000000000019E-002    -3.2312405651884054E-025
   8.4600000000000009E-002    -4.9847036406710657E-025
   8.5700000000000026E-002    -4.9603977881890984E-025
   8.6800000000000016E-002    -2.2945364676252298E-025
   8.7900000000000006E-002     2.8920251075001297E-025
   8.9000000000000024E-002     9.0845280118131786E-025
   9.0100000000000013E-002     1.3512002012955180E-024
   9.1200000000000003E-002     1.3014801097477845E-024
   9.2300000000000021E-002     5.5214730222127762E-025
   9.3400000000000011E-002    -8.3630207907686858E-025
   9.4500000000000028E-002    -2.4440119484229100E-024
   9.5600000000000018E-002    -3.5453359596469238E-024
   9.6700000000000008E-002    -3.3448374513436028E-024
   9.7800000000000026E-002    -1.3544271613889854E-024
   9.8900000000000016E-002     2.2207078305207747E-024
  0.10000000000000001          6.2815125253065861E-024
  0.10110000000000002          9.0020929796127265E-024
  0.10220000000000001          8.4363766481664943E-024
  0.10330000000000003          3.4432455307624397E-024
  0.10440000000000002         -5.4026071984147548E-024
  0.10550000000000001         -1.5376904085849087E-023
  0.10660000000000003         -2.2061646488738206E-023
  0.10770000000000002         -2.0825711849034525E-023
  0.10880000000000001         -9.0097933500832622E-024
  0.10990000000000003          1.1980623105463600E-023
  0.11100000000000002          3.5738011353348797E-023
  0.11210000000000001          5.1981256205362078E-023
  0.11320000000000002          4.9999759885303624E-023
  0.11430000000000001          2.3630169566446593E-023
  0.11540000000000003         -2.4056887906834216E-023
  0.11650000000000002         -7.8724416788933190E-023
  0.11760000000000001         -1.1735269737030911E-022
  0.11870000000000003         -1.1590497680979832E-022
  0.11980000000000002         -6.0279882255471075E-023
  0.12090000000000001          4.3457779085351674E-023
  0.12200000000000003          1.6466343935572634E-022
  0.12310000000000001          2.5365916916900406E-022
  0.12420000000000003          2.5813313153636076E-022
  0.12530000000000002          1.4648855410328007E-022
  0.12640000000000001         -7.0365518654663614E-023
  0.12750000000000003         -3.2946466943948752E-022
  0.12860000000000002         -5.2707119295823886E-022
  0.12970000000000001         -5.5257297409237125E-022
  0.13080000000000003         -3.3688745521201336E-022
  0.13190000000000002          1.0213521725406465E-022
  0.13300000000000001          6.3917764311952345E-022
  0.13410000000000000          1.0633374427571145E-021
  0.13520000000000004          1.1461815421347958E-021
  0.13630000000000003          7.3978664607202363E-022
  0.13740000000000002         -1.3028502120121272E-022
  0.13850000000000001         -1.2209458713331114E-021
  0.13960000000000000         -2.1119488231272817E-021
  0.14070000000000005         -2.3389920016074850E-021
  0.14180000000000004         -1.5885655426483503E-021
  0.14290000000000003          1.1389154753285231E-022
  0.14400000000000002          2.3090320815503559E-021
  0.14510000000000001          4.1730565032616859E-021
  0.14620000000000000          4.7710063289155962E-021
  0.14730000000000004          3.4372834383268558E-021
  0.14840000000000003          1.5326278392474168E-022
  0.14950000000000002         -4.2457253299454958E-021
  0.15060000000000001         -8.1762870795905623E-021
  0.15170000000000000         -9.7723578183137794E-021
  0.15280000000000005         -7.6129143996202808E-021
  0.15390000000000004         -1.4721207060965467E-021
  0.15500000000000003          7.2268906561970001E-021
  0.15610000000000002          1.5536164258686431E-020
  0.15720000000000001          1.9797026108999195E-020
  0.15830000000000000          1.6991173704414546E-020
  0.15940000000000004          6.2032895813925854E-021
  0.16050000000000003         -1.0395013899992731E-020
  0.16160000000000002         -2.7587771908266124E-020
  0.16270000000000001         -3.8445142228659809E-020
  0.16380000000000000         -3.6730019198721093E-020
  0.16490000000000005         -1.9661241441978480E-020
  0.16600000000000004          1.0022930110112641E-020
  0.16710000000000003          4.3737718920656601E-020
  0.16820000000000002          6.9039770343915518E-020
  0.16930000000000001          7.3694956584252930E-020
  0.17040000000000000          5.0673243812135599E-020
  0.17150000000000004          2.2536477180574098E-021
  0.17260000000000003         -5.8651082942125962E-020
  0.17370000000000002         -1.1115116824136094E-019
  0.17480000000000001         -1.3287210728936270E-019
  0.17590000000000000         -1.0853523881816405E-019
  0.17700000000000005         -3.7624739777315870E-020
  0.17810000000000004          6.2170378035451277E-020
  0.17920000000000003          1.5807355453471472E-019
  0.18030000000000002          2.1207865642721079E-019
  0.18140000000000001          1.9502299586590758E-019
  0.18250000000000000          1.0007802915978846E-019
  0.18360000000000004         -4.9946645380809312E-020
  0.18470000000000003         -2.0577964402516874E-019
  0.18580000000000002         -3.0628206849325522E-019
  0.18690000000000001         -3.0092818124140997E-019
  0.18800000000000000         -1.7264787582066357E-019
  0.18910000000000005          4.8267311782519149E-020
  0.19020000000000004          2.8684045920619593E-019
  0.19130000000000003          4.4516529274165218E-019
  0.19240000000000002          4.3844462094809857E-019
  0.19350000000000001          2.3358697504747532E-019
  0.19460000000000005         -1.2501507924734640E-019
  0.19570000000000004         -5.1607549738776705E-019
  0.19680000000000003         -7.7417587488416256E-019
  0.19790000000000002         -7.4867095351223235E-019
  0.19900000000000001         -3.7070495229589351E-019
  0.20010000000000000          2.9709401377522056E-019
  0.20120000000000005          1.0524961469987967E-018
  0.20230000000000004          1.6002502138232282E-018
  0.20340000000000003          1.6476809457263504E-018
  0.20450000000000002          1.0229425633962052E-018
  0.20560000000000000         -2.2526188325171353E-019
  0.20670000000000005         -1.7896554841105025E-018
  0.20780000000000004         -3.1569048767659586E-018
  0.20890000000000003         -3.7511310607552523E-018
  0.21000000000000002         -3.1344413567601262E-018
  0.21110000000000001         -1.2019642587865018E-018
  0.21220000000000000          1.7018902003857138E-018
  0.21330000000000005          4.8047723310807995E-018
  0.21440000000000003          7.0852811077851551E-018
  0.21550000000000002          7.5760354371272520E-018
  0.21660000000000001          5.7069253538286163E-018
  0.21770000000000000          1.5755716140806568E-018
  0.21880000000000005         -3.9612449774436053E-018
  0.21990000000000004         -9.4358037248183023E-018
  0.22100000000000003         -1.3144001781616179E-017
  0.22210000000000002         -1.3653102642231550E-017
  0.22320000000000001         -1.0291482764619438E-017
  0.22430000000000000         -3.4564167873520923E-018
  0.22540000000000004          5.3814391763542880E-018
  0.22650000000000003          1.4008887603172090E-017
  0.22760000000000002          2.0058967443426052E-017
  0.22870000000000001          2.1687663996825024E-017
  0.22980000000000000          1.8127302646258309E-017
  0.23090000000000005          9.9348251364265130E-018
  0.23200000000000004         -1.1516289622551048E-018
  0.23310000000000003         -1.2703210685132563E-017
  0.23420000000000002         -2.2272103215147141E-017
  0.23530000000000001         -2.8013830380105637E-017
  0.23640000000000000         -2.9049663716152220E-017
  0.23750000000000004         -2.5461957135289744E-017
  0.23860000000000003         -1.7966678645357588E-017
  0.23970000000000002         -7.4484024595491163E-018
  0.24080000000000001          5.3870954301165437E-018
  0.24190000000000000          2.0027848431575896E-017
  0.24300000000000005          3.5772301973993568E-017
  0.24410000000000004          5.1090761811221551E-017
  0.24520000000000003          6.3062900765792348E-017
  0.24630000000000002          6.7301095789718869E-017
  0.24740000000000001          5.8679155345486518E-017
  0.24850000000000005          3.2924521679721858E-017
  0.24960000000000004         -1.1233770318420739E-017
  0.25070000000000003         -7.0017324947252461E-017
  0.25180000000000002         -1.3349622872756059E-016
  0.25290000000000001         -1.8619815048846182E-016
  0.25400000000000000         -2.0981190763664250E-016
  0.25510000000000005         -1.8775203112348665E-016
  0.25620000000000004         -1.1066393629453733E-016
  0.25730000000000003          1.8591911911873378E-017
  0.25840000000000002          1.8212800366169765E-016
  0.25950000000000001          3.4775858410642985E-016
  0.26060000000000005          4.7388930041303704E-016
  0.26170000000000004          5.1812723996419134E-016
  0.26280000000000003          4.4806262603314820E-016
  0.26390000000000002          2.5181919705003208E-016
  0.26500000000000001         -5.4365713189833635E-017
  0.26610000000000000         -4.2395195788443870E-016
  0.26720000000000005         -7.8476589645157573E-016
  0.26830000000000004         -1.0505922612747144E-015
  0.26940000000000003         -1.1381868434203556E-015
  0.27050000000000002         -9.8681153315441699E-016
  0.27160000000000001         -5.7645927073369176E-016
  0.27270000000000005          5.9335730846208404E-017
  0.27380000000000004          8.2973263688743629E-016
  0.27490000000000003          1.5942906041315831E-015
  0.27600000000000002          2.1827620673760325E-015
  0.27710000000000001          2.4253577825105645E-015
  0.27820000000000000          2.1894837693105730E-015
  0.27930000000000005          1.4167782663707291E-015
  0.28040000000000004          1.5275335011628141E-016
  0.28150000000000003         -1.4390316562425697E-015
  0.28260000000000002         -3.0851092069009161E-015
  0.28370000000000001         -4.4363216716011975E-015
  0.28480000000000005         -5.1270496062543516E-015
  0.28590000000000004         -4.8524041646390864E-015
  0.28700000000000003         -3.4503445765866797E-015
  0.28810000000000002         -9.7116606849019308E-016
  0.28920000000000001          2.2846489113045211E-015
  0.29030000000000000          5.7764264631533450E-015
  0.29140000000000005          8.7899243077481988E-015
  0.29250000000000004          1.0558059907056651E-014
  0.29360000000000003          1.0420000735763947E-014
  0.29470000000000002          7.9905709549202570E-015
  0.29580000000000001          3.3038027507800754E-015
  0.29690000000000005         -3.1068399681646345E-015
  0.29800000000000004         -1.0221921954680448E-014
  0.29910000000000003         -1.6658310351589140E-014
  0.30020000000000002         -2.0894233003798512E-014
  0.30130000000000001         -2.1567785743046885E-014
  0.30240000000000000         -1.7798864824909804E-014
  0.30350000000000005         -9.4709930914090798E-015
  0.30460000000000004          2.5930133054486470E-015
  0.30570000000000003          1.6617345017572149E-014
  0.30680000000000002          3.0054392120571344E-014
  0.30790000000000001          3.9960802589942019E-014
  0.30900000000000005          4.3529715563200351E-014
  0.31010000000000004          3.8702182594400173E-014
  0.31120000000000003          2.4749672912585645E-014
  0.31230000000000002          2.7028812276069707E-015
  0.31340000000000001         -2.4494021556856869E-014
  0.31450000000000006         -5.2195530517807223E-014
  0.31560000000000005         -7.4670516867133635E-014
  0.31670000000000004         -8.6082553823882655E-014
  0.31780000000000003         -8.1708682341924423E-014
  0.31890000000000002         -5.9188333036287313E-014
  0.32000000000000001         -1.9537231470987382E-014
  0.32110000000000005          3.2350210569587187E-014
  0.32220000000000004          8.7937046583766818E-014
  0.32330000000000003          1.3613077784070179E-013
  0.32440000000000002          1.6516448263627422E-013
  0.32550000000000001          1.6502027106184361E-013
  0.32660000000000006          1.2996297106269910E-013
  0.32770000000000005          6.0635435650026967E-014
  0.32880000000000004         -3.4843731996788102E-014
  0.32990000000000003         -1.4121932077949555E-013
  0.33100000000000002         -2.3806733420793950E-013
  0.33210000000000001         -3.0324586519795269E-013
  0.33320000000000005         -3.1732145879546369E-013
  0.33430000000000004         -2.6816103999691933E-013
  0.33540000000000003         -1.5471656622375528E-013
  0.33650000000000002          1.0934389980188234E-014
  0.33760000000000001          2.0397852433136742E-013
  0.33870000000000006          3.8994124326532332E-013
  0.33980000000000005          5.3016529394241063E-013
  0.34090000000000004          5.8888572600628035E-013
  0.34200000000000003          5.4068874866136800E-013
  0.34310000000000002          3.7695141008452884E-013
  0.34420000000000001          1.0993105724660825E-013
  0.34530000000000005         -2.2650008861552232E-013
  0.34640000000000004         -5.7995864386957638E-013
  0.34750000000000003         -8.8635378073758839E-013
  0.34860000000000002         -1.0796370519064305E-012
  0.34970000000000001         -1.1032263155235930E-012
  0.35080000000000006         -9.2147440481475382E-013
  0.35190000000000005         -5.2938959932720661E-013
  0.35300000000000004          4.1146588995102230E-014
  0.35410000000000003          7.2017876254834247E-013
  0.35520000000000002          1.4045618302534698E-012
  0.35630000000000001          1.9693362810325131E-012
  0.35740000000000005          2.2851229298556673E-012
  0.35850000000000004          2.2400119809489765E-012
  0.35960000000000003          1.7632833603399996E-012
  0.36070000000000002          8.4726891024160474E-013
  0.36180000000000001         -4.3701341047806203E-013
  0.36290000000000006         -1.9348511163094331E-012
  0.36400000000000005         -3.4170192603478977E-012
  0.36510000000000004         -4.6048991238606393E-012
  0.36620000000000003         -5.2106017737825944E-012
  0.36730000000000002         -4.9879730798424324E-012
  0.36840000000000006         -3.7872541714128113E-012
  0.36950000000000005         -1.6038248314220444E-012
  0.37060000000000004          1.3894057037684557E-012
  0.37170000000000003          4.8353364092968152E-012
  0.37280000000000002          8.2179943701235634E-012
  0.37390000000000001          1.0921218990020921E-011
  0.37500000000000006          1.2316202381501514E-011
  0.37610000000000005          1.1867492542591986E-011
  0.37720000000000004          9.2423344565357968E-012
  0.37830000000000003          4.4055622136607082E-012
  0.37940000000000002         -2.3176458133322704E-012
  0.38050000000000006         -1.0225881335420601E-011
  0.38160000000000005         -1.8281771339381764E-011
  0.38270000000000004         -2.5210409796772742E-011
  0.38380000000000003         -2.9649994547943494E-011
  0.38490000000000002         -3.0340921687197959E-011
  0.38600000000000001         -2.6332914676130495E-011
  0.38710000000000000         -1.7184968018256940E-011
  0.38819999999999999         -3.1303647673675830E-012
  0.38930000000000009          1.4820817081543510E-011
  0.39040000000000008          3.4866167683824444E-011
  0.39150000000000007          5.4500442492443640E-011
  0.39260000000000006          7.0718601212015105E-011
  0.39370000000000005          8.0328336682775213E-011
  0.39480000000000004          8.0352930491156568E-011
  0.39590000000000003          6.8489620790004261E-011
  0.39700000000000002          4.3573912861028230E-011
  0.39810000000000001          5.9891513636154896E-012
  0.39920000000000000         -4.2044266083546894E-011
  0.40029999999999999         -9.6362274007713483E-011
  0.40140000000000009         -1.5098310411733832E-010
  0.40250000000000008         -1.9849432934275600E-010
  0.40360000000000007         -2.3070089790073541E-010
  0.40470000000000006         -2.3950217555392984E-010
  0.40580000000000005         -2.1793298068740242E-010
  0.40690000000000004         -1.6127502320767852E-010
  0.40800000000000003         -6.8124008250197430E-011
  0.40910000000000002          5.8715011228186355E-011
  0.41020000000000001          2.1163251667581535E-010
  0.41130000000000000          3.7803767450566679E-010
  0.41239999999999999          5.4069743726352345E-010
  0.41350000000000009          6.7865634313228704E-010
  0.41460000000000008          7.6876039996330571E-010
  0.41570000000000007          7.8775462324488251E-010
  0.41680000000000006          7.1486326611513533E-010
  0.41790000000000005          5.3469553613251395E-010
  0.41900000000000004          2.4025391640217597E-010
  0.42010000000000003         -1.6423756879650533E-010
  0.42120000000000002         -6.6100704298765087E-010
  0.42230000000000001         -1.2172481472071797E-009
  0.42340000000000000         -1.7847893529586921E-009
  0.42449999999999999         -2.3011788973804342E-009
  0.42560000000000009         -2.6923483560258565E-009
  0.42670000000000008         -2.8768998385958398E-009
  0.42780000000000007         -2.7719264741649191E-009
  0.42890000000000006         -2.3001479837296989E-009
  0.43000000000000005         -1.3980426489917064E-009
  0.43110000000000004         -2.4585005689929217E-011
  0.43220000000000003          1.8298111512263224E-009
  0.43330000000000002          4.1345119937040358E-009
  0.43440000000000001          6.8103352575477001E-009
  0.43550000000000000          9.7218303064704795E-009
  0.43659999999999999          1.2670193070240779E-008
  0.43770000000000009          1.5386660667090302E-008
  0.43880000000000008          1.7526080990383447E-008
  0.43990000000000007          1.8660137222071737E-008
  0.44100000000000006          1.8269560556333956E-008
  0.44210000000000005          1.5734414182918466E-008
  0.44320000000000004          1.0321381575732737E-008
  0.44430000000000003          1.1667237698520008E-009
  0.44540000000000002         -1.2746670831982087E-008
  0.44650000000000001         -3.2619925081273621E-008
  0.44760000000000000         -5.9878588894891477E-008
  0.44869999999999999         -9.6224957062411087E-008
  0.44980000000000009         -1.4370496374373307E-007
  0.45090000000000008         -2.0479220818205971E-007
  0.45200000000000007         -2.8249226734716281E-007
  0.45310000000000006         -3.8047026438669057E-007
  0.45420000000000005         -5.0320525031356947E-007
  0.45530000000000004         -6.5617552683005281E-007
  0.45640000000000003         -8.4607818115107805E-007
  0.45750000000000002         -1.0810879874091811E-006
  0.45860000000000001         -1.3711595117804488E-006
  0.45970000000000000         -1.7283787337638218E-006
  0.46079999999999999         -2.1673668380582589E-006
  0.46190000000000009         -2.7057441632200625E-006
  0.46300000000000008         -3.3646574558348980E-006
  0.46410000000000007         -4.1693771821288878E-006
  0.46520000000000006         -5.1499720501793303E-006
  0.46630000000000005         -6.3420601150784760E-006
  0.46740000000000004         -7.7876521014634903E-006
  0.46850000000000003         -9.5360814228989389E-006
  0.46960000000000002         -1.1645039111367383E-005
  0.47070000000000001         -1.4181701638964348E-005
  0.47180000000000000         -1.7223973819819865E-005
  0.47289999999999999         -2.0861836248669184E-005
  0.47400000000000009         -2.5198794666267555E-005
  0.47510000000000008         -3.0353457399389244E-005
  0.47620000000000007         -3.6461188698173523E-005
  0.47730000000000006         -4.3675842404873049E-005
  0.47840000000000005         -5.2171596035637145E-005