-0.1200000E+00  0.0000000E+00
-0.1189000E+00  0.0000000E+00
-0.1178000E+00  0.0000000E+00
-0.1167000E+00  0.0000000E+00
-0.1156000E+00  0.0000000E+00
-0.1145000E+00  0.0000000E+00
-0.1134000E+00  0.0000000E+00
-0.1123000E+00  0.0000000E+00
-0.1112000E+00  0.0000000E+00
-0.1101000E+00  0.0000000E+00
-0.1090000E+00  0.0000000E+00
-0.1079000E+00 -0.1541612E-36
-0.1068000E+00 -0.3414930E-33
-0.1057000E+00 -0.7123117E-32
-0.1046000E+00 -0.7529419E-31
-0.1035000E+00 -0.5253222E-30
-0.1024000E+00 -0.2645455E-29
-0.1013000E+00 -0.9809596E-29
-0.1002000E+00 -0.2529003E-28
-0.9910000E-01 -0.3071578E-28
-0.9800000E-01  0.9165299E-28
-0.9690000E-01  0.7220094E-27
-0.9580000E-01  0.2623434E-26
-0.9470000E-01  0.6403686E-26
-0.9360000E-01  0.9945962E-26
-0.9250000E-01  0.2454170E-26
-0.9140000E-01 -0.4273704E-25
-0.9030000E-01 -0.1642381E-24
-0.8920000E-01 -0.3703341E-24
-0.8810000E-01 -0.5290179E-24
-0.8700000E-01 -0.2099430E-24
-0.8590000E-01  0.1363969E-23
-0.8480000E-01  0.4901398E-23
-0.8370000E-01  0.9754766E-23
-0.8260000E-01  0.1182631E-22
-0.8150000E-01  0.2089565E-23
-0.8040000E-01 -0.3092011E-22
-0.7930000E-01 -0.9047195E-22
-0.7820000E-01 -0.1520887E-21
-0.7710000E-01 -0.1445775E-21
-0.7600000E-01  0.4373869E-22
-0.7490000E-01  0.5003261E-21
-0.7380000E-01  0.1150185E-20
-0.7270000E-01  0.1591487E-20
-0.7160000E-01  0.1049870E-20
-0.7050000E-01 -0.1333906E-20
-0.6940000E-01 -0.5738172E-20
-0.6830000E-01 -0.1058402E-19
-0.6720000E-01 -0.1184155E-19
-0.6610000E-01 -0.3865707E-20
-0.6500000E-01  0.1724588E-19
-0.6390000E-01  0.4807194E-19
-0.6280000E-01  0.7277465E-19
-0.6170000E-01  0.6363781E-19
-0.6060000E-01 -0.7410401E-20
-0.5950000E-01 -0.1453398E-18
-0.5840000E-01 -0.3051819E-18
-0.5730000E-01 -0.3813563E-18
-0.5620000E-01 -0.2369434E-18
-0.5510000E-01  0.2154344E-18
-0.5400000E-01  0.9018444E-18
-0.5290000E-01  0.1507748E-17
-0.5180000E-01  0.1520696E-17
-0.5070000E-01  0.4596687E-18
-0.4960000E-01 -0.1740122E-17
-0.4850000E-01 -0.4362747E-17
-0.4740000E-01 -0.5859053E-17
-0.4630000E-01 -0.4373405E-17
-0.4520000E-01  0.1129216E-17
-0.4410000E-01  0.9549335E-17
-0.4300000E-01  0.1698874E-16
-0.4190000E-01  0.1765710E-16
-0.4080000E-01  0.6731290E-17
-0.3970000E-01 -0.1561962E-16
-0.3860000E-01 -0.4117262E-16
-0.3750000E-01 -0.5432833E-16
-0.3640000E-01 -0.3836569E-16
-0.3530000E-01  0.1369636E-16
-0.3420000E-01  0.8839251E-16
-0.3310000E-01  0.1487108E-15
-0.3200000E-01  0.1451362E-15
-0.3090000E-01  0.4148314E-16
-0.2980000E-01 -0.1534182E-15
-0.2870000E-01 -0.3658871E-15
-0.2760000E-01 -0.4687929E-15
-0.2650000E-01 -0.3334046E-15
-0.2540000E-01  0.9039360E-16
-0.2430000E-01  0.7016762E-15
-0.2320000E-01  0.1232722E-14
-0.2210000E-01  0.1326827E-14
-0.2100000E-01  0.7062466E-15
-0.1990000E-01 -0.6293224E-15
-0.1880000E-01 -0.2277286E-14
-0.1770000E-01 -0.3483430E-14
-0.1660000E-01 -0.3412073E-14
-0.1550000E-01 -0.1567099E-14
-0.1440000E-01  0.1815513E-14
-0.1330000E-01  0.5630450E-14
-0.1220000E-01  0.8181154E-14
-0.1110000E-01  0.7853562E-14
-0.1000000E-01  0.3941265E-14
-0.8900000E-02 -0.2774698E-14
-0.7800000E-02 -0.1005916E-13
-0.6700000E-02 -0.1499180E-13
-0.5600000E-02 -0.1521694E-13
-0.4500000E-02 -0.1009724E-13
-0.3400000E-02 -0.1132721E-14
-0.2300000E-02  0.8689974E-14
-0.1200000E-02  0.1637752E-13
-0.1000000E-03  0.2043783E-13
 0.1000000E-02  0.2142988E-13
 0.2100000E-02  0.2098719E-13
 0.3200000E-02  0.1967709E-13
 0.4300000E-02  0.1504589E-13
 0.5400000E-02  0.1605817E-14
 0.6500000E-02 -0.2614502E-13
 0.7600000E-02 -0.6827828E-13
 0.8700000E-02 -0.1142042E-12
 0.9800000E-02 -0.1414719E-12
 0.1090000E-01 -0.1216720E-12
 0.1200000E-01 -0.3353490E-13
 0.1310000E-01  0.1209637E-12
 0.1420000E-01  0.3052461E-12
 0.1530000E-01  0.4498473E-12
 0.1640000E-01  0.4717186E-12
 0.1750000E-01  0.3080805E-12
 0.1860000E-01 -0.4668910E-13
 0.1970000E-01 -0.5178990E-12
 0.2080000E-01 -0.9563178E-12
 0.2190000E-01 -0.1178647E-11
 0.2300000E-01 -0.1033879E-11
 0.2410000E-01 -0.4728424E-12
 0.2520000E-01  0.4080982E-12
 0.2630000E-01  0.1372663E-11
 0.2740000E-01  0.2105968E-11
 0.2850000E-01  0.2315431E-11
 0.2960000E-01  0.1836823E-11
 0.3070000E-01  0.7054982E-12
 0.3180000E-01 -0.8359843E-12
 0.3290000E-01 -0.2398789E-11
 0.3400000E-01 -0.3555725E-11
 0.3510000E-01 -0.3957590E-11
 0.3620000E-01 -0.3419756E-11
 0.3730000E-01 -0.1957976E-11
 0.3840000E-01  0.2230411E-12
 0.3950000E-01  0.2766578E-11
 0.4060000E-01  0.5203564E-11
 0.4170000E-01  0.6988884E-11
 0.4280000E-01  0.7552198E-11
 0.4390000E-01  0.6394321E-11
 0.4500000E-01  0.3247629E-11
 0.4610000E-01 -0.1721473E-11
 0.4720000E-01 -0.7742356E-11
 0.4830000E-01 -0.1341169E-10
 0.4940000E-01 -0.1690421E-10
 0.5050000E-01 -0.1644853E-10
 0.5160000E-01 -0.1097808E-10
 0.5270000E-01 -0.7509823E-12
 0.5380000E-01  0.1232598E-10
 0.5490000E-01  0.2489124E-10
 0.5600000E-01  0.3290987E-10
 0.5710000E-01  0.3289116E-10
 0.5820000E-01  0.2318379E-10
 0.5930000E-01  0.4886508E-11
 0.6040000E-01 -0.1802488E-10
 0.6150000E-01 -0.3952350E-10
 0.6260000E-01 -0.5315283E-10
 0.6370000E-01 -0.5398014E-10
 0.6480000E-01 -0.4025635E-10
 0.6590000E-01 -0.1421202E-10
 0.6700000E-01  0.1831476E-10
 0.6810000E-01  0.4933994E-10
 0.6920000E-01  0.7084601E-10
 0.7030000E-01  0.7690555E-10
 0.7140000E-01  0.6520171E-10
 0.7250000E-01  0.3756257E-10
 0.7360000E-01 -0.5404433E-12
 0.7470000E-01 -0.4128067E-10
 0.7580000E-01 -0.7614302E-10
 0.7690000E-01 -0.9757462E-10
 0.7800000E-01 -0.1003569E-09
 0.7910000E-01 -0.8258474E-10
 0.8020000E-01 -0.4621146E-10
 0.8130000E-01  0.2912553E-11
 0.8240000E-01  0.5565426E-10
 0.8350000E-01  0.1010237E-09
 0.8460000E-01  0.1284173E-09
 0.8570000E-01  0.1303620E-09
 0.8680000E-01  0.1050581E-09
 0.8790000E-01  0.5777032E-10
 0.8900000E-01  0.2118545E-12
 0.9010000E-01 -0.5240856E-10
 0.9120000E-01 -0.8615022E-10
 0.9230000E-01 -0.9349920E-10
 0.9340000E-01 -0.7698199E-10
 0.9450000E-01 -0.4945953E-10
 0.9560000E-01 -0.3027975E-10
 0.9670000E-01 -0.3796851E-10
 0.9780000E-01 -0.8167225E-10
 0.9890000E-01 -0.1544986E-09
 0.1000000E+00 -0.2317505E-09
 0.1011000E+00 -0.2756971E-09
 0.1022000E+00 -0.2463380E-09
 0.1033000E+00 -0.1153224E-09
 0.1044000E+00  0.1213330E-09
 0.1055000E+00  0.4361878E-09
 0.1066000E+00  0.7719613E-09
 0.1077000E+00  0.1052103E-08
 0.1088000E+00  0.1197801E-08
 0.1099000E+00  0.1146766E-08
 0.1110000E+00  0.8685262E-09
 0.1121000E+00  0.3721399E-09
 0.1132000E+00 -0.2952992E-09
 0.1143000E+00 -0.1058136E-08
 0.1154000E+00 -0.1826120E-08
 0.1165000E+00 -0.2508492E-08
 0.1176000E+00 -0.3024513E-08
 0.1187000E+00 -0.3308554E-08
 0.1198000E+00 -0.3310093E-08
 0.1209000E+00 -0.2990733E-08
 0.1220000E+00 -0.2321206E-08
 0.1231000E+00 -0.1281108E-08
 0.1242000E+00  0.1367560E-09
 0.1253000E+00  0.1916729E-08
 0.1264000E+00  0.4005821E-08
 0.1275000E+00  0.6295866E-08
 0.1286000E+00  0.8605022E-08
 0.1297000E+00  0.1066267E-07
 0.1308000E+00  0.1210342E-07
 0.1319000E+00  0.1247693E-07
 0.1330000E+00  0.1128013E-07
 0.1341000E+00  0.8015868E-08
 0.1352000E+00  0.2277333E-08
 0.1363000E+00 -0.6148718E-08
 0.1374000E+00 -0.1717331E-07
 0.1385000E+00 -0.3030810E-07
 0.1396000E+00 -0.4459635E-07
 0.1407000E+00 -0.5858251E-07
 0.1418000E+00 -0.7032132E-07
 0.1429000E+00 -0.7741526E-07
 0.1440000E+00 -0.7705931E-07
 0.1451000E+00 -0.6606706E-07
 0.1462000E+00 -0.4085382E-07
 0.1473000E+00  0.2639650E-08
 0.1484000E+00  0.6908831E-07
 0.1495000E+00  0.1639839E-06
 0.1506000E+00  0.2938846E-06
 0.1517000E+00  0.4667048E-06
 0.1528000E+00  0.6920408E-06
 0.1539000E+00  0.9815470E-06
 0.1550000E+00  0.1349382E-05
 0.1561000E+00  0.1812761E-05
 0.1572000E+00  0.2392642E-05
 0.1583000E+00  0.3114592E-05
 0.1594000E+00  0.4009836E-05
 0.1605000E+00  0.5116509E-05
 0.1616000E+00  0.6481126E-05
 0.1627000E+00  0.8160251E-05
 0.1638000E+00  0.1022239E-04
 0.1649000E+00  0.1275013E-04
 0.1660000E+00  0.1584249E-04
 0.1671000E+00  0.1961767E-04
 0.1682000E+00  0.2421601E-04
 0.1693000E+00  0.2980344E-04
 0.1704000E+00  0.3657534E-04
 0.1715000E+00  0.4476087E-04
 0.1726000E+00  0.5462784E-04
 0.1737000E+00  0.6648812E-04
 0.1748000E+00  0.8070358E-04
 0.1759000E+00  0.9769273E-04
 0.1770000E+00  0.1179378E-03
 0.1781000E+00  0.1419924E-03
 0.1792000E+00  0.1704897E-03
 0.1803000E+00  0.2041512E-03
 0.1814000E+00  0.2437957E-03
 0.1825000E+00  0.2903482E-03
 0.1836000E+00  0.3448500E-03
 0.1847000E+00  0.4084678E-03
 0.1858000E+00  0.4825033E-03
 0.1869000E+00  0.5684020E-03
 0.1880000E+00  0.6677621E-03
 0.1891000E+00  0.7823413E-03
 0.1902000E+00  0.9140642E-03
 0.1913000E+00  0.1065026E-02
 0.1924000E+00  0.1237495E-02
 0.1935000E+00  0.1433914E-02
 0.1946000E+00  0.1656897E-02
 0.1957000E+00  0.1909219E-02
 0.1968000E+00  0.2193813E-02
 0.1979000E+00  0.2513747E-02
 0.1990000E+00  0.2872212E-02
 0.2001000E+00  0.3272491E-02
 0.2012000E+00  0.3717932E-02
 0.2023000E+00  0.4211910E-02
 0.2034000E+00  0.4757782E-02
 0.2045000E+00  0.5358841E-02
 0.2056000E+00  0.6018252E-02
 0.2067000E+00  0.6738996E-02
 0.2078000E+00  0.7523795E-02
 0.2089000E+00  0.8375037E-02
 0.2100000E+00  0.9294691E-02
 0.2111000E+00  0.1028423E-01
 0.2122000E+00  0.1134451E-01
 0.2133000E+00  0.1247574E-01
 0.2144000E+00  0.1367729E-01
 0.2155000E+00  0.1494770E-01
 0.2166000E+00  0.1628452E-01
 0.2177000E+00  0.1768422E-01
 0.2188000E+00  0.1914217E-01
 0.2199000E+00  0.2065249E-01
 0.2210000E+00  0.2220804E-01
 0.2221000E+00  0.2380035E-01
 0.2232000E+00  0.2541960E-01
 0.2243000E+00  0.2705460E-01
 0.2254000E+00  0.2869280E-01
 0.2265000E+00  0.3032031E-01
 0.2276000E+00  0.3192196E-01
 0.2287000E+00  0.3348142E-01
 0.2298000E+00  0.3498124E-01
 0.2309000E+00  0.3640305E-01
 0.2320000E+00  0.3772770E-01
 0.2331000E+00  0.3893545E-01
 0.2342000E+00  0.4000618E-01
 0.2353000E+00  0.4091967E-01
 0.2364000E+00  0.4165583E-01
 0.2375000E+00  0.4219501E-01
 0.2386000E+00  0.4251828E-01
 0.2397000E+00  0.4260776E-01
 0.2408000E+00  0.4244691E-01
 0.2419000E+00  0.4202087E-01
 0.2430000E+00  0.4131676E-01
 0.2441000E+00  0.4032399E-01
 0.2452000E+00  0.3903450E-01
 0.2463000E+00  0.3744309E-01
 0.2474000E+00  0.3554756E-01
 0.2485000E+00  0.3334896E-01
 0.2496000E+00  0.3085170E-01
 0.2507000E+00  0.2806371E-01
 0.2518000E+00  0.2499640E-01
 0.2529000E+00  0.2166474E-01
 0.2540000E+00  0.1808716E-01
 0.2551000E+00  0.1428545E-01
 0.2562000E+00  0.1028457E-01
 0.2573000E+00  0.6112414E-02
 0.2584000E+00  0.1799568E-02
 0.2595000E+00 -0.2621057E-02
 0.2606000E+00 -0.7114592E-02
 0.2617000E+00 -0.1164463E-01
 0.2628000E+00 -0.1617367E-01
 0.2639000E+00 -0.2066363E-01
 0.2650000E+00 -0.2507627E-01
 0.2661000E+00 -0.2937379E-01
 0.2672000E+00 -0.3351923E-01
 0.2683000E+00 -0.3747705E-01
 0.2694000E+00 -0.4121355E-01
 0.2705000E+00 -0.4469735E-01
 0.2716000E+00 -0.4789978E-01
 0.2727000E+00 -0.5079527E-01
 0.2738000E+00 -0.5336169E-01
 0.2749000E+00 -0.5558058E-01
 0.2760000E+00 -0.5743739E-01
 0.2771000E+00 -0.5892162E-01
 0.2782000E+00 -0.6002687E-01
 0.2793000E+00 -0.6075092E-01
 0.2804000E+00 -0.6109562E-01
 0.2815000E+00 -0.6106682E-01
 0.2826000E+00 -0.6067421E-01
 0.2837000E+00 -0.5993107E-01
 0.2848000E+00 -0.5885405E-01
 0.2859000E+00 -0.5746277E-01
 0.2870000E+00 -0.5577956E-01
 0.2881000E+00 -0.5382902E-01
 0.2892000E+00 -0.5163764E-01
 0.2903000E+00 -0.4923340E-01
 0.2914000E+00 -0.4664531E-01
 0.2925000E+00 -0.4390305E-01
 0.2936000E+00 -0.4103651E-01
 0.2947000E+00 -0.3807538E-01
 0.2958000E+00 -0.3504887E-01
 0.2969000E+00 -0.3198527E-01
 0.2980000E+00 -0.2891168E-01
 0.2991000E+00 -0.2585373E-01
 0.3002000E+00 -0.2283534E-01
 0.3013000E+00 -0.1987855E-01
 0.3024000E+00 -0.1700330E-01
 0.3035000E+00 -0.1422737E-01
 0.3046000E+00 -0.1156627E-01
 0.3057000E+00 -0.9033209E-02
 0.3068000E+00 -0.6639101E-02
 0.3079000E+00 -0.4392602E-02
 0.3090000E+00 -0.2300170E-02
 0.3101000E+00 -0.3661676E-03
 0.3112000E+00  0.1407029E-02
 0.3123000E+00  0.3018891E-02
 0.3134000E+00  0.4470591E-02
 0.3145000E+00  0.5764834E-02
 0.3156000E+00  0.6905696E-02
 0.3167000E+00  0.7898440E-02
 0.3178000E+00  0.8749342E-02
 0.3189000E+00  0.9465513E-02
 0.3200000E+00  0.1005473E-01
 0.3211000E+00  0.1052528E-01
 0.3222000E+00  0.1088577E-01
 0.3233000E+00  0.1114506E-01
 0.3244000E+00  0.1131206E-01
 0.3255000E+00  0.1139564E-01
 0.3266000E+00  0.1140453E-01
 0.3277000E+00  0.1134725E-01
 0.3288000E+00  0.1123196E-01
 0.3299000E+00  0.1106649E-01
 0.3310000E+00  0.1085823E-01
 0.3321000E+00  0.1061409E-01
 0.3332000E+00  0.1034049E-01
 0.3343000E+00  0.1004336E-01
 0.3354000E+00  0.9728088E-02
 0.3365000E+00  0.9399572E-02
 0.3376000E+00  0.9062191E-02
 0.3387000E+00  0.8719826E-02
 0.3398000E+00  0.8375884E-02
 0.3409000E+00  0.8033313E-02
 0.3420000E+00  0.7694629E-02
 0.3431000E+00  0.7361952E-02
 0.3442000E+00  0.7037031E-02
 0.3453000E+00  0.6721280E-02
 0.3464000E+00  0.6415810E-02
 0.3475000E+00  0.6121460E-02
 0.3486000E+00  0.5838828E-02
 0.3497000E+00  0.5568293E-02
 0.3508000E+00  0.5310051E-02
 0.3519000E+00  0.5064136E-02
 0.3530000E+00  0.4830451E-02
 0.3541000E+00  0.4608785E-02
 0.3552000E+00  0.4398844E-02
 0.3563000E+00  0.4200267E-02
 0.3574000E+00  0.4012641E-02
 0.3585000E+00  0.3835520E-02
 0.3596000E+00  0.3668432E-02
 0.3607000E+00  0.3510899E-02
 0.3618000E+00  0.3362438E-02
 0.3629000E+00  0.3222578E-02
 0.3640000E+00  0.3090862E-02
 0.3651000E+00  0.2966848E-02
 0.3662000E+00  0.2850120E-02
 0.3673000E+00  0.2740281E-02
 0.3684000E+00  0.2636957E-02
 0.3695000E+00  0.2539801E-02
 0.3706000E+00  0.2448492E-02
 0.3717000E+00  0.2362738E-02
 0.3728000E+00  0.2282272E-02
 0.3739000E+00  0.2206855E-02
 0.3750000E+00  0.2136268E-02
 0.3761000E+00  0.2070315E-02
 0.3772000E+00  0.2008817E-02
 0.3783000E+00  0.1951616E-02
 0.3794000E+00  0.1898571E-02
 0.3805000E+00  0.1849562E-02
 0.3816000E+00  0.1804493E-02
 0.3827000E+00  0.1763289E-02
 0.3838000E+00  0.1725904E-02
 0.3849000E+00  0.1692319E-02
 0.3860000E+00  0.1662547E-02
 0.3871000E+00  0.1636631E-02
 0.3882000E+00  0.1614652E-02
 0.3893000E+00  0.1596726E-02
 0.3904000E+00  0.1583006E-02
 0.3915000E+00  0.1573682E-02
 0.3926000E+00  0.1568980E-02
 0.3937000E+00  0.1569166E-02
 0.3948000E+00  0.1574539E-02
 0.3959000E+00  0.1585432E-02
 0.3970000E+00  0.1602206E-02
 0.3981000E+00  0.1625246E-02
 0.3992000E+00  0.1654950E-02
 0.4003000E+00  0.1691718E-02
 0.4014000E+00  0.1735945E-02
 0.4025000E+00  0.1788000E-02
 0.4036000E+00  0.1848215E-02
 0.4047000E+00  0.1916872E-02
 0.4058000E+00  0.1994178E-02
 0.4069000E+00  0.2080255E-02
 0.4080000E+00  0.2175118E-02
 0.4091000E+00  0.2278655E-02
 0.4102000E+00  0.2390612E-02
 0.4113000E+00  0.2510573E-02
 0.4124000E+00  0.2637940E-02
 0.4135000E+00  0.2771926E-02
 0.4146000E+00  0.2911535E-02
 0.4157000E+00  0.3055557E-02
 0.4168000E+00  0.3202556E-02
 0.4179000E+00  0.3350872E-02
 0.4190000E+00  0.3498613E-02
 0.4201000E+00  0.3643666E-02
 0.4212000E+00  0.3783698E-02
 0.4223000E+00  0.3916177E-02
 0.4234000E+00  0.4038391E-02
 0.4245000E+00  0.4147465E-02
 0.4256000E+00  0.4240402E-02
 0.4267000E+00  0.4314103E-02
 0.4278000E+00  0.4365412E-02
 0.4289000E+00  0.4391151E-02
 0.4300000E+00  0.4388170E-02
 0.4311000E+00  0.4353388E-02
 0.4322000E+00  0.4283848E-02
 0.4333000E+00  0.4176768E-02
 0.4344000E+00  0.4029594E-02
 0.4355000E+00  0.3840051E-02
 0.4366000E+00  0.3606190E-02
 0.4377000E+00  0.3326442E-02
 0.4388000E+00  0.2999659E-02
 0.4399000E+00  0.2625159E-02
 0.4410000E+00  0.2202765E-02
 0.4421000E+00  0.1732831E-02
 0.4432000E+00  0.1216273E-02
 0.4443000E+00  0.6545786E-03
 0.4454000E+00  0.4981792E-04
 0.4465000E+00 -0.5953570E-03
 0.4476000E+00 -0.1277721E-02
 0.4487000E+00 -0.1993492E-02
 0.4498000E+00 -0.2738359E-02
 0.4509000E+00 -0.3507512E-02
 0.4520000E+00 -0.4295688E-02
 0.4531000E+00 -0.5097216E-02
 0.4542000E+00 -0.5906086E-02
 0.4553000E+00 -0.6716006E-02
 0.4564000E+00 -0.7520474E-02
 0.4575000E+00 -0.8312860E-02
 0.4586000E+00 -0.9086480E-02
 0.4597000E+00 -0.9834683E-02
 0.4608000E+00 -0.1055092E-01
 0.4619000E+00 -0.1122885E-01
 0.4630000E+00 -0.1186240E-01
 0.4641000E+00 -0.1244584E-01
 0.4652000E+00 -0.1297386E-01
 0.4663000E+00 -0.1344167E-01
 0.4674000E+00 -0.1384501E-01
 0.4685000E+00 -0.1418023E-01
 0.4696000E+00 -0.1444434E-01
 0.4707000E+00 -0.1463504E-01
 0.4718000E+00 -0.1475074E-01
 0.4729000E+00 -0.1479058E-01
 0.4740000E+00 -0.1475445E-01
 0.4751000E+00 -0.1464299E-01
 0.4762000E+00 -0.1445754E-01
 0.4773000E+00 -0.1420015E-01
 0.4784000E+00 -0.1387354E-01
 0.4795000E+00 -0.1348106E-01
 0.4806000E+00 -0.1302663E-01
 0.4817000E+00 -0.1251471E-01
 0.4828000E+00 -0.1195018E-01
 0.4839000E+00 -0.1133833E-01
 0.4850000E+00 -0.1068478E-01
 0.4861000E+00 -0.9995381E-02
 0.4872000E+00 -0.9276163E-02
 0.4883000E+00 -0.8533261E-02
 0.4894000E+00 -0.7772842E-02
 0.4905000E+00 -0.7001027E-02
 0.4916000E+00 -0.6223822E-02
 0.4927000E+00 -0.5447056E-02
 0.4938000E+00 -0.4676312E-02
 0.4949000E+00 -0.3916883E-02
 0.4960000E+00 -0.3173719E-02
 0.4971000E+00 -0.2451395E-02
 0.4982000E+00 -0.1754071E-02
 0.4993000E+00 -0.1085472E-02
 0.5004000E+00 -0.4488572E-03
 0.5015000E+00  0.1529886E-03
 0.5026000E+00  0.7177664E-03
 0.5037000E+00  0.1243661E-02
 0.5048000E+00  0.1729331E-02
 0.5059000E+00  0.2173896E-02
 0.5070000E+00  0.2576916E-02
 0.5081000E+00  0.2938372E-02
 0.5092000E+00  0.3258638E-02
 0.5103000E+00  0.3538454E-02
 0.5114000E+00  0.3778898E-02
 0.5125000E+00  0.3981348E-02
 0.5136000E+00  0.4147441E-02
 0.5147000E+00  0.4279035E-02
 0.5158000E+00  0.4378169E-02
 0.5169000E+00  0.4447025E-02
 0.5180000E+00  0.4487886E-02
 0.5191000E+00  0.4503111E-02
 0.5202000E+00  0.4495100E-02
 0.5213000E+00  0.4466260E-02
 0.5224000E+00  0.4418985E-02
 0.5235000E+00  0.4355615E-02
 0.5246000E+00  0.4278423E-02
 0.5257000E+00  0.4189577E-02
 0.5268000E+00  0.4091132E-02
 0.5279000E+00  0.3985011E-02
 0.5290000E+00  0.3872995E-02
 0.5301000E+00  0.3756719E-02
 0.5312000E+00  0.3637667E-02
 0.5323000E+00  0.3517164E-02
 0.5334000E+00  0.3396380E-02
 0.5345000E+00  0.3276323E-02
 0.5356000E+00  0.3157845E-02
 0.5367000E+00  0.3041648E-02
 0.5378000E+00  0.2928291E-02
 0.5389000E+00  0.2818209E-02
 0.5400000E+00  0.2711717E-02
 0.5411000E+00  0.2609026E-02
 0.5422000E+00  0.2510252E-02
 0.5433000E+00  0.2415422E-02
 0.5444000E+00  0.2324489E-02
 0.5455000E+00  0.2237338E-02
 0.5466000E+00  0.2153800E-02
 0.5477000E+00  0.2073666E-02
 0.5488000E+00  0.1996696E-02
 0.5499000E+00  0.1922632E-02
 0.5510000E+00  0.1851205E-02
 0.5521000E+00  0.1782142E-02
 0.5532000E+00  0.1715168E-02
 0.5543000E+00  0.1650010E-02
 0.5554000E+00  0.1586399E-02
 0.5565000E+00  0.1524074E-02
 0.5576000E+00  0.1462777E-02
 0.5587000E+00  0.1402262E-02
 0.5598000E+00  0.1342289E-02
 0.5609000E+00  0.1282626E-02
 0.5620000E+00  0.1223049E-02
 0.5631000E+00  0.1163337E-02
 0.5642000E+00  0.1103267E-02
 0.5653000E+00  0.1042614E-02
 0.5664000E+00  0.9811415E-03
 0.5675000E+00  0.9186065E-03
 0.5686000E+00  0.8547560E-03
 0.5697000E+00  0.7893308E-03
 0.5708000E+00  0.7220678E-03
 0.5719000E+00  0.6527024E-03
 0.5730000E+00  0.5809687E-03
 0.5741000E+00  0.5066023E-03
 0.5752000E+00  0.4293425E-03
 0.5763000E+00  0.3489376E-03
 0.5774000E+00  0.2651535E-03
 0.5785000E+00  0.1777844E-03
 0.5796000E+00  0.8666462E-04
 0.5807000E+00 -0.8320295E-05
 0.5818000E+00 -0.1072241E-03
 0.5829000E+00 -0.2100319E-03
 0.5840000E+00 -0.3166535E-03
 0.5851000E+00 -0.4269158E-03
 0.5862000E+00 -0.5405541E-03
 0.5873000E+00 -0.6572029E-03
 0.5884000E+00 -0.7763850E-03
 0.5895000E+00 -0.8975042E-03
 0.5906000E+00 -0.1019840E-02
 0.5917000E+00 -0.1142548E-02
 0.5928000E+00 -0.1264661E-02
 0.5939000E+00 -0.1385097E-02
 0.5950000E+00 -0.1502665E-02
 0.5961000E+00 -0.1616072E-02
 0.5972000E+00 -0.1723929E-02
 0.5983000E+00 -0.1824763E-02
 0.5994000E+00 -0.1917027E-02
 0.6005000E+00 -0.1999122E-02
 0.6016000E+00 -0.2069414E-02
 0.6027000E+00 -0.2126265E-02
 0.6038000E+00 -0.2168052E-02
 0.6049000E+00 -0.2193196E-02
 0.6060000E+00 -0.2200186E-02
 0.6071000E+00 -0.2187599E-02
 0.6082000E+00 -0.2154130E-02
 0.6093000E+00 -0.2098614E-02
 0.6104000E+00 -0.2020055E-02
 0.6115000E+00 -0.1917651E-02
 0.6126000E+00 -0.1790817E-02
 0.6137000E+00 -0.1639211E-02
 0.6148000E+00 -0.1462742E-02
 0.6159000E+00 -0.1261590E-02
 0.6170000E+00 -0.1036213E-02
 0.6181000E+00 -0.7873511E-03
 0.6192000E+00 -0.5160343E-03
 0.6203000E+00 -0.2235787E-03
 0.6214000E+00  0.8841680E-04
 0.6225000E+00  0.4180811E-03
 0.6236000E+00  0.7632860E-03
 0.6247000E+00  0.1121666E-02
 0.6258000E+00  0.1490644E-02
 0.6269000E+00  0.1867460E-02
 0.6280000E+00  0.2249199E-02
 0.6291000E+00  0.2632830E-02
 0.6302000E+00  0.3015239E-02
 0.6313000E+00  0.3393264E-02
 0.6324000E+00  0.3763736E-02
 0.6335000E+00  0.4123518E-02
 0.6346000E+00  0.4469544E-02
 0.6357000E+00  0.4798858E-02
 0.6368000E+00  0.5108659E-02
 0.6379000E+00  0.5396327E-02
 0.6390000E+00  0.5659465E-02
 0.6401000E+00  0.5895920E-02
 0.6412000E+00  0.6103810E-02
 0.6423000E+00  0.6281545E-02
 0.6434000E+00  0.6427843E-02
 0.6445000E+00  0.6541742E-02
 0.6456000E+00  0.6622610E-02
 0.6467000E+00  0.6670143E-02
 0.6478000E+00  0.6684369E-02
 0.6489000E+00  0.6665636E-02
 0.6500000E+00  0.6614598E-02
 0.6511000E+00  0.6532205E-02
 0.6522000E+00  0.6419679E-02
 0.6533000E+00  0.6278493E-02
 0.6544000E+00  0.6110343E-02
 0.6555000E+00  0.5917124E-02
 0.6566000E+00  0.5700900E-02
 0.6577000E+00  0.5463873E-02
 0.6588000E+00  0.5208356E-02
 0.6599000E+00  0.4936743E-02
 0.6610000E+00  0.4651474E-02
 0.6621000E+00  0.4355013E-02
 0.6632000E+00  0.4049812E-02
 0.6643000E+00  0.3738283E-02
 0.6654000E+00  0.3422782E-02
 0.6665000E+00  0.3105579E-02
 0.6676000E+00  0.2788849E-02
 0.6687000E+00  0.2474648E-02
 0.6698000E+00  0.2164904E-02
 0.6709000E+00  0.1861400E-02
 0.6720000E+00  0.1565766E-02
 0.6731000E+00  0.1279469E-02
 0.6742000E+00  0.1003811E-02
 0.6753000E+00  0.7399265E-03
 0.6764000E+00  0.4887913E-03
 0.6775000E+00  0.2512207E-03
 0.6786000E+00  0.2787535E-04
 0.6797000E+00 -0.1807352E-03
 0.6808000E+00 -0.3742493E-03
 0.6819000E+00 -0.5524473E-03
 0.6830000E+00 -0.7152428E-03
 0.6841000E+00 -0.8626719E-03
 0.6852000E+00 -0.9948800E-03
 0.6863000E+00 -0.1112109E-02
 0.6874000E+00 -0.1214686E-02
 0.6885000E+00 -0.1303011E-02
 0.6896000E+00 -0.1377553E-02
 0.6907000E+00 -0.1438837E-02
 0.6918000E+00 -0.1487436E-02
 0.6929000E+00 -0.1523961E-02
 0.6940000E+00 -0.1549047E-02
 0.6951000E+00 -0.1563346E-02
 0.6962000E+00 -0.1567510E-02
 0.6973000E+00 -0.1562191E-02
 0.6984000E+00 -0.1548031E-02
 0.6995000E+00 -0.1525660E-02
 0.7006000E+00 -0.1495691E-02
 0.7017000E+00 -0.1458715E-02
 0.7028000E+00 -0.1415294E-02
 0.7039000E+00 -0.1365958E-02
 0.7050000E+00 -0.1311194E-02
 0.7061000E+00 -0.1251451E-02
 0.7072000E+00 -0.1187135E-02
 0.7083000E+00 -0.1118617E-02
 0.7094000E+00 -0.1046231E-02
 0.7105000E+00 -0.9702757E-03
 0.7116000E+00 -0.8910171E-03
 0.7127000E+00 -0.8086845E-03
 0.7138000E+00 -0.7234731E-03
 0.7149000E+00 -0.6355470E-03
 0.7160000E+00 -0.5450458E-03
 0.7171000E+00 -0.4520914E-03
 0.7182000E+00 -0.3567950E-03
 0.7193000E+00 -0.2592619E-03
 0.7204000E+00 -0.1595953E-03
 0.7215000E+00 -0.5789884E-04
 0.7226000E+00  0.4571905E-04
 0.7237000E+00  0.1511390E-03
 0.7248000E+00  0.2582229E-03
 0.7259000E+00  0.3668050E-03
 0.7270000E+00  0.4766854E-03
 0.7281000E+00  0.5876239E-03
 0.7292000E+00  0.6993372E-03
 0.7303000E+00  0.8114961E-03
 0.7314000E+00  0.9237227E-03
 0.7325000E+00  0.1035588E-02
 0.7336000E+00  0.1146605E-02
 0.7347000E+00  0.1256230E-02
 0.7358000E+00  0.1363856E-02
 0.7369000E+00  0.1468818E-02
 0.7380000E+00  0.1570389E-02
 0.7391000E+00  0.1667789E-02
 0.7402000E+00  0.1760185E-02
 0.7413000E+00  0.1846703E-02
 0.7424000E+00  0.1926428E-02
 0.7435000E+00  0.1998417E-02
 0.7446000E+00  0.2061710E-02
 0.7457000E+00  0.2115336E-02
 0.7468000E+00  0.2158330E-02
 0.7479000E+00  0.2189744E-02
 0.7490000E+00  0.2208657E-02
 0.7501000E+00  0.2214196E-02
 0.7512000E+00  0.2205550E-02
 0.7523000E+00  0.2181982E-02
 0.7534000E+00  0.2142858E-02
 0.7545000E+00  0.2087655E-02
 0.7556000E+00  0.2015981E-02
 0.7567000E+00  0.1927588E-02
 0.7578000E+00  0.1822380E-02
 0.7589000E+00  0.1700422E-02
 0.7600000E+00  0.1561950E-02
 0.7611000E+00  0.1407377E-02
 0.7622000E+00  0.1237301E-02
 0.7633000E+00  0.1052512E-02
 0.7644000E+00  0.8539925E-03
 0.7655000E+00  0.6429167E-03
 0.7666000E+00  0.4206392E-03
 0.7677000E+00  0.1886826E-03
 0.7688000E+00 -0.5127985E-04
 0.7699000E+00 -0.2974412E-03
 0.7710000E+00 -0.5478770E-03
 0.7721000E+00 -0.8005621E-03
 0.7732000E+00 -0.1053388E-02
 0.7743000E+00 -0.1304185E-02
 0.7754000E+00 -0.1550749E-02
 0.7765000E+00 -0.1790871E-02
 0.7776000E+00 -0.2022370E-02
 0.7787000E+00 -0.2243125E-02
 0.7798000E+00 -0.2451096E-02
 0.7809000E+00 -0.2644351E-02
 0.7820000E+00 -0.2821082E-02
 0.7831000E+00 -0.2979623E-02
 0.7842000E+00 -0.3118472E-02
 0.7853000E+00 -0.3236308E-02
 0.7864000E+00 -0.3332014E-02
 0.7875000E+00 -0.3404688E-02
 0.7886000E+00 -0.3453659E-02
 0.7897000E+00 -0.3478487E-02
 0.7908000E+00 -0.3478964E-02
 0.7919000E+00 -0.3455109E-02
 0.7930000E+00 -0.3407160E-02
 0.7941000E+00 -0.3335569E-02
 0.7952000E+00 -0.3240996E-02
 0.7963000E+00 -0.3124295E-02
 0.7974000E+00 -0.2986504E-02
 0.7985000E+00 -0.2828829E-02
 0.7996000E+00 -0.2652627E-02
 0.8007000E+00 -0.2459388E-02
 0.8018000E+00 -0.2250711E-02
 0.8029000E+00 -0.2028291E-02
 0.8040000E+00 -0.1793896E-02
 0.8051000E+00 -0.1549348E-02
 0.8062000E+00 -0.1296503E-02
 0.8073000E+00 -0.1037234E-02
 0.8084000E+00 -0.7734142E-03
 0.8095000E+00 -0.5069040E-03
 0.8106000E+00 -0.2395357E-03
 0.8117000E+00  0.2689660E-04
 0.8128000E+00  0.2906493E-03
 0.8139000E+00  0.5500408E-03
 0.8150000E+00  0.8034622E-03
 0.8161000E+00  0.1049386E-02
 0.8172000E+00  0.1286372E-02
 0.8183000E+00  0.1513071E-02
 0.8194000E+00  0.1728222E-02
 0.8205000E+00  0.1930657E-02
 0.8216000E+00  0.2119298E-02
 0.8227000E+00  0.2293164E-02
 0.8238000E+00  0.2451368E-02
 0.8249000E+00  0.2593130E-02
 0.8260000E+00  0.2717772E-02
 0.8271000E+00  0.2824723E-02
 0.8282000E+00  0.2913511E-02
 0.8293000E+00  0.2983763E-02
 0.8304000E+00  0.3035201E-02
 0.8315000E+00  0.3067638E-02
 0.8326000E+00  0.3080988E-02
 0.8337000E+00  0.3075265E-02
 0.8348000E+00  0.3050589E-02
 0.8359000E+00  0.3007188E-02
 0.8370000E+00  0.2945397E-02
 0.8381000E+00  0.2865653E-02
 0.8392000E+00  0.2768493E-02
 0.8403000E+00  0.2654554E-02
 0.8414000E+00  0.2524571E-02
 0.8425000E+00  0.2379385E-02
 0.8436000E+00  0.2219940E-02
 0.8447000E+00  0.2047284E-02
 0.8458000E+00  0.1862565E-02
 0.8469000E+00  0.1667021E-02
 0.8480000E+00  0.1461972E-02
 0.8491000E+00  0.1248813E-02
 0.8502000E+00  0.1029004E-02
 0.8513000E+00  0.8040654E-03
 0.8524000E+00  0.5755681E-03
 0.8535000E+00  0.3451237E-03
 0.8546000E+00  0.1143708E-03
 0.8557000E+00 -0.1150408E-03
 0.8568000E+00 -0.3414676E-03
 0.8579000E+00 -0.5632889E-03
 0.8590000E+00 -0.7789239E-03
 0.8601000E+00 -0.9868480E-03
 0.8612000E+00 -0.1185609E-02
 0.8623000E+00 -0.1373844E-02
 0.8634000E+00 -0.1550291E-02
 0.8645000E+00 -0.1713810E-02
 0.8656000E+00 -0.1863388E-02
 0.8667000E+00 -0.1998155E-02
 0.8678000E+00 -0.2117393E-02
 0.8689000E+00 -0.2220547E-02
 0.8700000E+00 -0.2307231E-02
 0.8711000E+00 -0.2377234E-02
 0.8722000E+00 -0.2430520E-02
 0.8733000E+00 -0.2467224E-02
 0.8744000E+00 -0.2487647E-02
 0.8755000E+00 -0.2492246E-02
 0.8766000E+00 -0.2481624E-02
 0.8777000E+00 -0.2456523E-02
 0.8788000E+00 -0.2417807E-02
 0.8799000E+00 -0.2366459E-02
 0.8810000E+00 -0.2303561E-02
 0.8821000E+00 -0.2230275E-02
 0.8832000E+00 -0.2147824E-02
 0.8843000E+00 -0.2057472E-02
 0.8854000E+00 -0.1960500E-02
 0.8865000E+00 -0.1858195E-02
 0.8876000E+00 -0.1751830E-02
 0.8887000E+00 -0.1642656E-02
 0.8898000E+00 -0.1531887E-02
 0.8909000E+00 -0.1420690E-02
 0.8920000E+00 -0.1310169E-02
 0.8931000E+00 -0.1201359E-02
 0.8942000E+00 -0.1095209E-02
 0.8953000E+00 -0.9925812E-03
 0.8964000E+00 -0.8942448E-03
 0.8975000E+00 -0.8008789E-03
 0.8986000E+00 -0.7130755E-03
 0.8997000E+00 -0.6313419E-03
 0.9008000E+00 -0.5561031E-03
 0.9019000E+00 -0.4877009E-03
 0.9030000E+00 -0.4263951E-03
 0.9041000E+00 -0.3723642E-03
 0.9052000E+00 -0.3257101E-03
 0.9063000E+00 -0.2864649E-03
 0.9074000E+00 -0.2545984E-03
 0.9085000E+00 -0.2300251E-03
 0.9096000E+00 -0.2126088E-03
 0.9107000E+00 -0.2021641E-03
 0.9118000E+00 -0.1984557E-03
 0.9129000E+00 -0.2011981E-03
 0.9140000E+00 -0.2100566E-03
 0.9151000E+00 -0.2246499E-03
 0.9162000E+00 -0.2445543E-03
 0.9173000E+00 -0.2693071E-03
 0.9184000E+00 -0.2984092E-03
 0.9195000E+00 -0.3313256E-03
 0.9206000E+00 -0.3674861E-03
 0.9217000E+00 -0.4062854E-03
 0.9228000E+00 -0.4470867E-03
 0.9239000E+00 -0.4892256E-03
 0.9250000E+00 -0.5320170E-03
 0.9261000E+00 -0.5747628E-03
 0.9272000E+00 -0.6167578E-03
 0.9283000E+00 -0.6572977E-03
 0.9294000E+00 -0.6956840E-03
 0.9305000E+00 -0.7312318E-03
 0.9316000E+00 -0.7632773E-03
 0.9327000E+00 -0.7911864E-03
 0.9338000E+00 -0.8143641E-03
 0.9349000E+00 -0.8322645E-03
 0.9360000E+00 -0.8443983E-03
 0.9371000E+00 -0.8503405E-03
 0.9382000E+00 -0.8497352E-03
 0.9393000E+00 -0.8422997E-03
 0.9404000E+00 -0.8278273E-03
 0.9415000E+00 -0.8061889E-03
 0.9426000E+00 -0.7773352E-03
 0.9437000E+00 -0.7412983E-03
 0.9448000E+00 -0.6981906E-03
 0.9459000E+00 -0.6482046E-03
 0.9470000E+00 -0.5916072E-03
 0.9481000E+00 -0.5287342E-03
 0.9492000E+00 -0.4599828E-03
 0.9503000E+00 -0.3858027E-03
 0.9514000E+00 -0.3066906E-03
 0.9525000E+00 -0.2231838E-03
 0.9536000E+00 -0.1358562E-03
 0.9547000E+00 -0.4531326E-04
 0.9558000E+00  0.4781439E-04
 0.9569000E+00  0.1428786E-03
 0.9580000E+00  0.2392227E-03
 0.9591000E+00  0.3361891E-03
 0.9602000E+00  0.4331256E-03
 0.9613000E+00  0.5293881E-03
 0.9624000E+00  0.6243421E-03
 0.9635000E+00  0.7173627E-03
 0.9646000E+00  0.8078360E-03
 0.9657000E+00  0.8951611E-03
 0.9668000E+00  0.9787549E-03
 0.9679000E+00  0.1058057E-02
 0.9690000E+00  0.1132532E-02
 0.9701000E+00  0.1201674E-02
 0.9712000E+00  0.1265006E-02
 0.9723000E+00  0.1322079E-02
 0.9734000E+00  0.1372477E-02
 0.9745000E+00  0.1415816E-02
 0.9756000E+00  0.1451746E-02
 0.9767000E+00  0.1479962E-02
 0.9778000E+00  0.1500203E-02
 0.9789000E+00  0.1512263E-02