-0.1200000E+00  0.0000000E+00
-0.1189000E+00  0.0000000E+00
-0.1178000E+00  0.0000000E+00
-0.1167000E+00  0.0000000E+00
-0.1156000E+00  0.0000000E+00
-0.1145000E+00  0.0000000E+00
-0.1134000E+00  0.0000000E+00
-0.1123000E+00  0.0000000E+00
-0.1112000E+00  0.0000000E+00
-0.1101000E+00  0.0000000E+00
-0.1090000E+00  0.0000000E+00
-0.1079000E+00  0.0000000E+00
-0.1068000E+00  0.0000000E+00
-0.1057000E+00  0.0000000E+00
-0.1046000E+00  0.0000000E+00
-0.1035000E+00 -0.1249498E-37
-0.1024000E+00 -0.1116604E-36
-0.1013000E+00 -0.6061993E-36
-0.1002000E+00 -0.2671327E-35
-0.9910000E-01 -0.9626785E-35
-0.9800000E-01 -0.2861984E-34
-0.9690000E-01 -0.7097202E-34
-0.9580000E-01 -0.1473318E-33
-0.9470000E-01 -0.2505831E-33
-0.9360000E-01 -0.3130858E-33
-0.9250000E-01 -0.1233202E-33
-0.9140000E-01  0.7524599E-33
-0.9030000E-01  0.2763027E-32
-0.8920000E-01  0.5249266E-32
-0.8810000E-01  0.4119264E-32
-0.8700000E-01 -0.9168553E-32
-0.8590000E-01 -0.3910230E-31
-0.8480000E-01 -0.5821543E-31
-0.8370000E-01  0.2905583E-31
-0.8260000E-01  0.3602533E-30
-0.8150000E-01  0.8957438E-30
-0.8040000E-01  0.9613831E-30
-0.7930000E-01 -0.1058624E-29
-0.7820000E-01 -0.6767701E-29
-0.7710000E-01 -0.1425085E-28
-0.7600000E-01 -0.1277900E-28
-0.7490000E-01  0.1812162E-28
-0.7380000E-01  0.9322536E-28
-0.7270000E-01  0.1812922E-27
-0.7160000E-01  0.1574145E-27
-0.7050000E-01 -0.1858097E-27
-0.6940000E-01 -0.9684956E-27
-0.6830000E-01 -0.1859105E-26
-0.6720000E-01 -0.1716127E-26
-0.6610000E-01  0.1213803E-26
-0.6500000E-01  0.7856302E-26
-0.6390000E-01  0.1557120E-25
-0.6280000E-01  0.1577879E-25
-0.6170000E-01 -0.4254885E-26
-0.6060000E-01 -0.5138230E-25
-0.5950000E-01 -0.1088142E-24
-0.5840000E-01 -0.1217530E-24
-0.5730000E-01 -0.9053557E-26
-0.5620000E-01  0.2770098E-24
-0.5510000E-01  0.6486914E-24
-0.5400000E-01  0.8016333E-24
-0.5290000E-01  0.2747723E-24
-0.5180000E-01 -0.1238004E-23
-0.5070000E-01 -0.3358987E-23
-0.4960000E-01 -0.4595042E-23
-0.4850000E-01 -0.2581920E-23
-0.4740000E-01  0.4470951E-23
-0.4630000E-01  0.1527859E-22
-0.4520000E-01  0.2331598E-22
-0.4410000E-01  0.1755183E-22
-0.4300000E-01 -0.1155120E-22
-0.4190000E-01 -0.6115585E-22
-0.4080000E-01 -0.1058475E-21
-0.3970000E-01 -0.9859817E-22
-0.3860000E-01  0.6912829E-23
-0.3750000E-01  0.2126773E-21
-0.3640000E-01  0.4313703E-21
-0.3530000E-01  0.4798657E-21
-0.3420000E-01  0.1528465E-21
-0.3310000E-01 -0.6161995E-21
-0.3200000E-01 -0.1570430E-20
-0.3090000E-01 -0.2061990E-20
-0.2980000E-01 -0.1261222E-20
-0.2870000E-01  0.1299478E-20
-0.2760000E-01  0.5025467E-20
-0.2650000E-01  0.7859516E-20
-0.2540000E-01  0.6756686E-20
-0.2430000E-01 -0.6529094E-21
-0.2320000E-01 -0.1362353E-19
-0.2210000E-01 -0.2642843E-19
-0.2100000E-01 -0.2898969E-19
-0.1990000E-01 -0.1138571E-19
-0.1880000E-01  0.2839818E-19
-0.1770000E-01  0.7708040E-19
-0.1660000E-01  0.1049490E-18
-0.1550000E-01  0.7625684E-19
-0.1440000E-01 -0.2861123E-19
-0.1330000E-01 -0.1875642E-18
-0.1220000E-01 -0.3242904E-18
-0.1110000E-01 -0.3265564E-18
-0.1000000E-01 -0.1022466E-18
-0.8900000E-02  0.3426041E-18
-0.7800000E-02  0.8450486E-18
-0.6700000E-02  0.1098882E-17
-0.5600000E-02  0.7755270E-18
-0.4500000E-02 -0.2664839E-18
-0.3400000E-02 -0.1773850E-17
-0.2300000E-02 -0.3034106E-17
-0.1200000E-02 -0.3079717E-17
-0.1000000E-03 -0.1176288E-17
 0.1000000E-02  0.2569373E-17
 0.2100000E-02  0.6813305E-17
 0.3200000E-02  0.9160665E-17
 0.4300000E-02  0.7120927E-17
 0.5400000E-02 -0.3789992E-18
 0.6500000E-02 -0.1159670E-16
 0.7600000E-02 -0.2162542E-16
 0.8700000E-02 -0.2382612E-16
 0.9800000E-02 -0.1301433E-16
 0.1090000E-01  0.1072031E-16
 0.1200000E-01  0.3958972E-16
 0.1310000E-01  0.5917683E-16
 0.1420000E-01  0.5392044E-16
 0.1530000E-01  0.1569246E-16
 0.1640000E-01 -0.4826439E-16
 0.1750000E-01 -0.1129588E-15
 0.1860000E-01 -0.1425154E-15
 0.1970000E-01 -0.1060587E-15
 0.2080000E-01  0.2922044E-17
 0.2190000E-01  0.1534160E-15
 0.2300000E-01  0.2797594E-15
 0.2410000E-01  0.3048765E-15
 0.2520000E-01  0.1783051E-15
 0.2630000E-01 -0.8688873E-16
 0.2740000E-01 -0.3991124E-15
 0.2850000E-01 -0.6108681E-15
 0.2960000E-01 -0.5791000E-15
 0.3070000E-01 -0.2426161E-15
 0.3180000E-01  0.3199917E-15
 0.3290000E-01  0.8892233E-15
 0.3400000E-01  0.1178034E-14
 0.3510000E-01  0.9622164E-15
 0.3620000E-01  0.2144203E-15
 0.3730000E-01 -0.8286090E-15
 0.3840000E-01 -0.1719514E-14
 0.3950000E-01 -0.1978111E-14
 0.4060000E-01 -0.1331249E-14
 0.4170000E-01  0.9690770E-16
 0.4280000E-01  0.1757507E-14
 0.4390000E-01  0.2866508E-14
 0.4500000E-01  0.2761551E-14
 0.4610000E-01  0.1274557E-14
 0.4720000E-01 -0.1076160E-14
 0.4830000E-01 -0.3218937E-14
 0.4940000E-01 -0.3988848E-14
 0.5050000E-01 -0.2738894E-14
 0.5160000E-01  0.1972189E-15
 0.5270000E-01  0.3478737E-14
 0.5380000E-01  0.5283520E-14
 0.5490000E-01  0.4224365E-14
 0.5600000E-01  0.2407659E-15
 0.5710000E-01 -0.5035044E-14
 0.5820000E-01 -0.8769933E-14
 0.5930000E-01 -0.8220357E-14
 0.6040000E-01 -0.2309714E-14
 0.6150000E-01  0.7300546E-14
 0.6260000E-01  0.1635709E-13
 0.6370000E-01  0.1960462E-13
 0.6480000E-01  0.1332796E-13
 0.6590000E-01 -0.2265301E-14
 0.6700000E-01 -0.2210399E-13
 0.6810000E-01 -0.3757283E-13
 0.6920000E-01 -0.3992318E-13
 0.7030000E-01 -0.2450549E-13
 0.7140000E-01  0.6110195E-14
 0.7250000E-01  0.4186351E-13
 0.7360000E-01  0.6841132E-13
 0.7470000E-01  0.7283567E-13
 0.7580000E-01  0.4951171E-13
 0.7690000E-01  0.3411637E-14
 0.7800000E-01 -0.5095036E-13
 0.7910000E-01 -0.9479308E-13
 0.8020000E-01 -0.1123647E-12
 0.8130000E-01 -0.9694654E-13
 0.8240000E-01 -0.5277231E-13
 0.8350000E-01  0.7874891E-14
 0.8460000E-01  0.7053562E-13
 0.8570000E-01  0.1238624E-12
 0.8680000E-01  0.1610989E-12
 0.8790000E-01  0.1769923E-12
 0.8900000E-01  0.1628039E-12
 0.9010000E-01  0.1044262E-12
 0.9120000E-01 -0.1198980E-13
 0.9230000E-01 -0.1865437E-12
 0.9340000E-01 -0.3898631E-12
 0.9450000E-01 -0.5555081E-12
 0.9560000E-01 -0.5908694E-12
 0.9670000E-01 -0.4104421E-12
 0.9780000E-01  0.1619297E-13
 0.9890000E-01  0.6211765E-12
 0.1000000E+00  0.1225076E-11
 0.1011000E+00  0.1572825E-11
 0.1022000E+00  0.1420332E-11
 0.1033000E+00  0.6485404E-12
 0.1044000E+00 -0.6394138E-12
 0.1055000E+00 -0.2088455E-11
 0.1066000E+00 -0.3163733E-11
 0.1077000E+00 -0.3322697E-11
 0.1088000E+00 -0.2239730E-11
 0.1099000E+00 -0.3573027E-15
 0.1110000E+00  0.2825469E-11
 0.1121000E+00  0.5291355E-11
 0.1132000E+00  0.6361237E-11
 0.1143000E+00  0.5297394E-11
 0.1154000E+00  0.2014467E-11
 0.1165000E+00 -0.2748748E-11
 0.1176000E+00 -0.7542733E-11
 0.1187000E+00 -0.1061440E-10
 0.1198000E+00 -0.1050290E-10
 0.1209000E+00 -0.6629143E-11
 0.1220000E+00  0.3433988E-12
 0.1231000E+00  0.8544395E-11
 0.1242000E+00  0.1537149E-10
 0.1253000E+00  0.1828964E-10
 0.1264000E+00  0.1570822E-10
 0.1275000E+00  0.7634014E-11
 0.1286000E+00 -0.4151573E-11
 0.1297000E+00 -0.1649541E-10
 0.1308000E+00 -0.2576285E-10
 0.1319000E+00 -0.2894295E-10
 0.1330000E+00 -0.2460337E-10
 0.1341000E+00 -0.1336387E-10
 0.1352000E+00  0.2284650E-11
 0.1363000E+00  0.1875635E-10
 0.1374000E+00  0.3245966E-10
 0.1385000E+00  0.4079043E-10
 0.1396000E+00  0.4264854E-10
 0.1407000E+00  0.3828578E-10
 0.1418000E+00  0.2858208E-10
 0.1429000E+00  0.1412971E-10
 0.1440000E+00 -0.5343980E-11
 0.1451000E+00 -0.3075316E-10
 0.1462000E+00 -0.6247310E-10
 0.1473000E+00 -0.9850677E-10
 0.1484000E+00 -0.1327525E-09
 0.1495000E+00 -0.1543673E-09
 0.1506000E+00 -0.1490904E-09
 0.1517000E+00 -0.1028451E-09
 0.1528000E+00 -0.7091144E-11
 0.1539000E+00  0.1354845E-09
 0.1550000E+00  0.3069263E-09
 0.1561000E+00  0.4735760E-09
 0.1572000E+00  0.5904457E-09
 0.1583000E+00  0.6102365E-09
 0.1594000E+00  0.4952789E-09
 0.1605000E+00  0.2294362E-09
 0.1616000E+00 -0.1733901E-09
 0.1627000E+00 -0.6668323E-09
 0.1638000E+00 -0.1176752E-08
 0.1649000E+00 -0.1612046E-08
 0.1660000E+00 -0.1878804E-08
 0.1671000E+00 -0.1894352E-08
 0.1682000E+00 -0.1598321E-08
 0.1693000E+00 -0.9597326E-09
 0.1704000E+00  0.1879156E-10
 0.1715000E+00  0.1296984E-08
 0.1726000E+00  0.2790371E-08
 0.1737000E+00  0.4360430E-08
 0.1748000E+00  0.5804024E-08
 0.1759000E+00  0.6848195E-08
 0.1770000E+00  0.7158456E-08
 0.1781000E+00  0.6367991E-08
 0.1792000E+00  0.4131171E-08
 0.1803000E+00  0.1982942E-09
 0.1814000E+00 -0.5498501E-08
 0.1825000E+00 -0.1276326E-07
 0.1836000E+00 -0.2107403E-07
 0.1847000E+00 -0.2955213E-07
 0.1858000E+00 -0.3696579E-07
 0.1869000E+00 -0.4176100E-07
 0.1880000E+00 -0.4210347E-07
 0.1891000E+00 -0.3591182E-07
 0.1902000E+00 -0.2086425E-07
 0.1913000E+00  0.5631791E-08
 0.1924000E+00  0.4650695E-07
 0.1935000E+00  0.1051267E-06
 0.1946000E+00  0.1854073E-06
 0.1957000E+00  0.2919447E-06
 0.1968000E+00  0.4301629E-06
 0.1979000E+00  0.6064988E-06
 0.1990000E+00  0.8286552E-06
 0.2001000E+00  0.1105951E-05
 0.2012000E+00  0.1449800E-05
 0.2023000E+00  0.1874313E-05
 0.2034000E+00  0.2397041E-05
 0.2045000E+00  0.3039798E-05
 0.2056000E+00  0.3829569E-05
 0.2067000E+00  0.4799452E-05
 0.2078000E+00  0.5989653E-05
 0.2089000E+00  0.7448547E-05
 0.2100000E+00  0.9233860E-05
 0.2111000E+00  0.1141403E-04
 0.2122000E+00  0.1406984E-04
 0.2133000E+00  0.1729626E-04
 0.2144000E+00  0.2120470E-04
 0.2155000E+00  0.2592552E-04
 0.2166000E+00  0.3161074E-04
 0.2177000E+00  0.3843712E-04
 0.2188000E+00  0.4660936E-04
 0.2199000E+00  0.5636362E-04
 0.2210000E+00  0.6797125E-04
 0.2221000E+00  0.8174288E-04
 0.2232000E+00  0.9803279E-04
 0.2243000E+00  0.1172436E-03
 0.2254000E+00  0.1398312E-03
 0.2265000E+00  0.1663099E-03
 0.2276000E+00  0.1972574E-03
 0.2287000E+00  0.2333195E-03
 0.2298000E+00  0.2752152E-03
 0.2309000E+00  0.3237402E-03
 0.2320000E+00  0.3797711E-03
 0.2331000E+00  0.4442684E-03
 0.2342000E+00  0.5182784E-03
 0.2353000E+00  0.6029353E-03
 0.2364000E+00  0.6994614E-03
 0.2375000E+00  0.8091658E-03
 0.2386000E+00  0.9334423E-03
 0.2397000E+00  0.1073764E-02
 0.2408000E+00  0.1231677E-02
 0.2419000E+00  0.1408791E-02
 0.2430000E+00  0.1606763E-02
 0.2441000E+00  0.1827289E-02
 0.2452000E+00  0.2072079E-02
 0.2463000E+00  0.2342838E-02
 0.2474000E+00  0.2641243E-02
 0.2485000E+00  0.2968909E-02
 0.2496000E+00  0.3327361E-02
 0.2507000E+00  0.3717997E-02
 0.2518000E+00  0.4142050E-02
 0.2529000E+00  0.4600541E-02
 0.2540000E+00  0.5094239E-02
 0.2551000E+00  0.5623610E-02
 0.2562000E+00  0.6188769E-02
 0.2573000E+00  0.6789431E-02
 0.2584000E+00  0.7424861E-02
 0.2595000E+00  0.8093828E-02
 0.2606000E+00  0.8794558E-02
 0.2617000E+00  0.9524691E-02
 0.2628000E+00  0.1028124E-01
 0.2639000E+00  0.1106056E-01
 0.2650000E+00  0.1185832E-01
 0.2661000E+00  0.1266949E-01
 0.2672000E+00  0.1348830E-01
 0.2683000E+00  0.1430831E-01
 0.2694000E+00  0.1512234E-01
 0.2705000E+00  0.1592256E-01
 0.2716000E+00  0.1670051E-01
 0.2727000E+00  0.1744716E-01
 0.2738000E+00  0.1815297E-01
 0.2749000E+00  0.1880797E-01
 0.2760000E+00  0.1940190E-01
 0.2771000E+00  0.1992427E-01
 0.2782000E+00  0.2036451E-01
 0.2793000E+00  0.2071211E-01
 0.2804000E+00  0.2095679E-01
 0.2815000E+00  0.2108859E-01
 0.2826000E+00  0.2109812E-01
 0.2837000E+00  0.2097669E-01
 0.2848000E+00  0.2071644E-01
 0.2859000E+00  0.2031058E-01
 0.2870000E+00  0.1975348E-01
 0.2881000E+00  0.1904085E-01
 0.2892000E+00  0.1816990E-01
 0.2903000E+00  0.1713942E-01
 0.2914000E+00  0.1594988E-01
 0.2925000E+00  0.1460358E-01
 0.2936000E+00  0.1310462E-01
 0.2947000E+00  0.1145901E-01
 0.2958000E+00  0.9674604E-02
 0.2969000E+00  0.7761112E-02
 0.2980000E+00  0.5730040E-02
 0.2991000E+00  0.3594597E-02
 0.3002000E+00  0.1369571E-02
 0.3013000E+00 -0.9288127E-03
 0.3024000E+00 -0.3283070E-02
 0.3035000E+00 -0.5674658E-02
 0.3046000E+00 -0.8084192E-02
 0.3057000E+00 -0.1049168E-01
 0.3068000E+00 -0.1287679E-01
 0.3079000E+00 -0.1521910E-01
 0.3090000E+00 -0.1749836E-01
 0.3101000E+00 -0.1969479E-01
 0.3112000E+00 -0.2178933E-01
 0.3123000E+00 -0.2376388E-01
 0.3134000E+00 -0.2560157E-01
 0.3145000E+00 -0.2728698E-01
 0.3156000E+00 -0.2880632E-01
 0.3167000E+00 -0.3014762E-01
 0.3178000E+00 -0.3130088E-01
 0.3189000E+00 -0.3225818E-01
 0.3200000E+00 -0.3301377E-01
 0.3211000E+00 -0.3356412E-01
 0.3222000E+00 -0.3390794E-01
 0.3233000E+00 -0.3404612E-01
 0.3244000E+00 -0.3398175E-01
 0.3255000E+00 -0.3371993E-01
 0.3266000E+00 -0.3326779E-01
 0.3277000E+00 -0.3263420E-01
 0.3288000E+00 -0.3182974E-01
 0.3299000E+00 -0.3086642E-01
 0.3310000E+00 -0.2975751E-01
 0.3321000E+00 -0.2851736E-01
 0.3332000E+00 -0.2716112E-01
 0.3343000E+00 -0.2570455E-01
 0.3354000E+00 -0.2416379E-01
 0.3365000E+00 -0.2255514E-01
 0.3376000E+00 -0.2089484E-01
 0.3387000E+00 -0.1919885E-01
 0.3398000E+00 -0.1748269E-01
 0.3409000E+00 -0.1576125E-01
 0.3420000E+00 -0.1404866E-01
 0.3431000E+00 -0.1235812E-01
 0.3442000E+00 -0.1070183E-01
 0.3453000E+00 -0.9090880E-02
 0.3464000E+00 -0.7535184E-02
 0.3475000E+00 -0.6043421E-02
 0.3486000E+00 -0.4623019E-02
 0.3497000E+00 -0.3280150E-02
 0.3508000E+00 -0.2019741E-02
 0.3519000E+00 -0.8455078E-03
 0.3530000E+00  0.2399970E-03
 0.3541000E+00  0.1235328E-02
 0.3552000E+00  0.2140078E-02
 0.3563000E+00  0.2954795E-02
 0.3574000E+00  0.3680899E-02
 0.3585000E+00  0.4320587E-02
 0.3596000E+00  0.4876733E-02
 0.3607000E+00  0.5352793E-02
 0.3618000E+00  0.5752708E-02
 0.3629000E+00  0.6080812E-02
 0.3640000E+00  0.6341743E-02
 0.3651000E+00  0.6540349E-02
 0.3662000E+00  0.6681612E-02
 0.3673000E+00  0.6770570E-02
 0.3684000E+00  0.6812243E-02
 0.3695000E+00  0.6811578E-02
 0.3706000E+00  0.6773394E-02
 0.3717000E+00  0.6702336E-02
 0.3728000E+00  0.6602839E-02
 0.3739000E+00  0.6479094E-02
 0.3750000E+00  0.6335025E-02
 0.3761000E+00  0.6174271E-02
 0.3772000E+00  0.6000173E-02
 0.3783000E+00  0.5815777E-02
 0.3794000E+00  0.5623831E-02
 0.3805000E+00  0.5426794E-02
 0.3816000E+00  0.5226843E-02
 0.3827000E+00  0.5025882E-02
 0.3838000E+00  0.4825559E-02
 0.3849000E+00  0.4627280E-02
 0.3860000E+00  0.4432228E-02
 0.3871000E+00  0.4241385E-02
 0.3882000E+00  0.4055547E-02
 0.3893000E+00  0.3875352E-02
 0.3904000E+00  0.3701291E-02
 0.3915000E+00  0.3533727E-02
 0.3926000E+00  0.3372913E-02
 0.3937000E+00  0.3219008E-02
 0.3948000E+00  0.3072090E-02
 0.3959000E+00  0.2932170E-02
 0.3970000E+00  0.2799203E-02
 0.3981000E+00  0.2673098E-02
 0.3992000E+00  0.2553720E-02
 0.4003000E+00  0.2440903E-02
 0.4014000E+00  0.2334456E-02
 0.4025000E+00  0.2234163E-02
 0.4036000E+00  0.2139795E-02
 0.4047000E+00  0.2051109E-02
 0.4058000E+00  0.1967851E-02
 0.4069000E+00  0.1889756E-02
 0.4080000E+00  0.1816553E-02
 0.4091000E+00  0.1747964E-02
 0.4102000E+00  0.1683708E-02
 0.4113000E+00  0.1623504E-02
 0.4124000E+00  0.1567068E-02
 0.4135000E+00  0.1514122E-02
 0.4146000E+00  0.1464389E-02
 0.4157000E+00  0.1417600E-02
 0.4168000E+00  0.1373493E-02
 0.4179000E+00  0.1331818E-02
 0.4190000E+00  0.1292338E-02
 0.4201000E+00  0.1254834E-02
 0.4212000E+00  0.1219104E-02
 0.4223000E+00  0.1184965E-02
 0.4234000E+00  0.1152259E-02
 0.4245000E+00  0.1120850E-02
 0.4256000E+00  0.1090625E-02
 0.4267000E+00  0.1061497E-02
 0.4278000E+00  0.1033401E-02
 0.4289000E+00  0.1006294E-02
 0.4300000E+00  0.9801537E-03
 0.4311000E+00  0.9549783E-03
 0.4322000E+00  0.9307835E-03
 0.4333000E+00  0.9076023E-03
 0.4344000E+00  0.8854842E-03
 0.4355000E+00  0.8644942E-03
 0.4366000E+00  0.8447125E-03
 0.4377000E+00  0.8262343E-03
 0.4388000E+00  0.8091691E-03
 0.4399000E+00  0.7936407E-03
 0.4410000E+00  0.7797885E-03
 0.4421000E+00  0.7677682E-03
 0.4432000E+00  0.7577548E-03
 0.4443000E+00  0.7499473E-03
 0.4454000E+00  0.7445739E-03
 0.4465000E+00  0.7418984E-03
 0.4476000E+00  0.7422264E-03
 0.4487000E+00  0.7459134E-03
 0.4498000E+00  0.7533730E-03
 0.4509000E+00  0.7650859E-03
 0.4520000E+00  0.7816108E-03
 0.4531000E+00  0.8035950E-03
 0.4542000E+00  0.8317848E-03
 0.4553000E+00  0.8670361E-03
 0.4564000E+00  0.9103242E-03
 0.4575000E+00  0.9627534E-03
 0.4586000E+00  0.1025566E-02
 0.4597000E+00  0.1100153E-02
 0.4608000E+00  0.1188060E-02
 0.4619000E+00  0.1290999E-02
 0.4630000E+00  0.1410847E-02
 0.4641000E+00  0.1549660E-02
 0.4652000E+00  0.1709666E-02
 0.4663000E+00  0.1893273E-02
 0.4674000E+00  0.2103062E-02
 0.4685000E+00  0.2341786E-02
 0.4696000E+00  0.2612356E-02
 0.4707000E+00  0.2917827E-02
 0.4718000E+00  0.3261377E-02
 0.4729000E+00  0.3646287E-02
 0.4740000E+00  0.4075911E-02
 0.4751000E+00  0.4553642E-02
 0.4762000E+00  0.5082875E-02
 0.4773000E+00  0.5666959E-02
 0.4784000E+00  0.6309142E-02
 0.4795000E+00  0.7012513E-02
 0.4806000E+00  0.7779925E-02
 0.4817000E+00  0.8613925E-02
 0.4828000E+00  0.9516670E-02
 0.4839000E+00  0.1048984E-01
 0.4850000E+00  0.1153454E-01
 0.4861000E+00  0.1265121E-01
 0.4872000E+00  0.1383951E-01
 0.4883000E+00  0.1509822E-01
 0.4894000E+00  0.1642516E-01
 0.4905000E+00  0.1781705E-01
 0.4916000E+00  0.1926944E-01
 0.4927000E+00  0.2077664E-01
 0.4938000E+00  0.2233163E-01
 0.4949000E+00  0.2392600E-01
 0.4960000E+00  0.2554989E-01
 0.4971000E+00  0.2719202E-01
 0.4982000E+00  0.2883962E-01
 0.4993000E+00  0.3047850E-01
 0.5004000E+00  0.3209309E-01
 0.5015000E+00  0.3366651E-01
 0.5026000E+00  0.3518070E-01
 0.5037000E+00  0.3661659E-01
 0.5048000E+00  0.3795421E-01
 0.5059000E+00  0.3917296E-01
 0.5070000E+00  0.4025180E-01
 0.5081000E+00  0.4116956E-01
 0.5092000E+00  0.4190519E-01
 0.5103000E+00  0.4243810E-01
 0.5114000E+00  0.4274848E-01
 0.5125000E+00  0.4281761E-01
 0.5136000E+00  0.4262823E-01
 0.5147000E+00  0.4216490E-01
 0.5158000E+00  0.4141427E-01
 0.5169000E+00  0.4036546E-01
 0.5180000E+00  0.3901032E-01
 0.5191000E+00  0.3734368E-01
 0.5202000E+00  0.3536366E-01
 0.5213000E+00  0.3307175E-01
 0.5224000E+00  0.3047305E-01
 0.5235000E+00  0.2757628E-01
 0.5246000E+00  0.2439388E-01
 0.5257000E+00  0.2094191E-01
 0.5268000E+00  0.1724003E-01
 0.5279000E+00  0.1331133E-01
 0.5290000E+00  0.9182134E-02
 0.5301000E+00  0.4881713E-02
 0.5312000E+00  0.4419940E-03
 0.5323000E+00 -0.4102824E-02
 0.5334000E+00 -0.8716682E-02
 0.5345000E+00 -0.1336211E-01
 0.5356000E+00 -0.1800068E-01
 0.5367000E+00 -0.2259354E-01
 0.5378000E+00 -0.2710190E-01
 0.5389000E+00 -0.3148755E-01
 0.5400000E+00 -0.3571336E-01
 0.5411000E+00 -0.3974381E-01
 0.5422000E+00 -0.4354543E-01
 0.5433000E+00 -0.4708721E-01
 0.5444000E+00 -0.5034107E-01
 0.5455000E+00 -0.5328213E-01
 0.5466000E+00 -0.5588907E-01
 0.5477000E+00 -0.5814435E-01
 0.5488000E+00 -0.6003436E-01
 0.5499000E+00 -0.6154960E-01
 0.5510000E+00 -0.6268471E-01
 0.5521000E+00 -0.6343842E-01
 0.5532000E+00 -0.6381355E-01
 0.5543000E+00 -0.6381685E-01
 0.5554000E+00 -0.6345877E-01
 0.5565000E+00 -0.6275330E-01
 0.5576000E+00 -0.6171763E-01
 0.5587000E+00 -0.6037186E-01
 0.5598000E+00 -0.5873866E-01
 0.5609000E+00 -0.5684286E-01
 0.5620000E+00 -0.5471105E-01
 0.5631000E+00 -0.5237123E-01
 0.5642000E+00 -0.4985231E-01
 0.5653000E+00 -0.4718379E-01
 0.5664000E+00 -0.4439529E-01
 0.5675000E+00 -0.4151623E-01
 0.5686000E+00 -0.3857540E-01
 0.5697000E+00 -0.3560069E-01
 0.5708000E+00 -0.3261875E-01
 0.5719000E+00 -0.2965472E-01
 0.5730000E+00 -0.2673198E-01
 0.5741000E+00 -0.2387196E-01
 0.5752000E+00 -0.2109401E-01
 0.5763000E+00 -0.1841521E-01
 0.5774000E+00 -0.1585035E-01
 0.5785000E+00 -0.1341188E-01
 0.5796000E+00 -0.1110984E-01
 0.5807000E+00 -0.8951949E-02
 0.5818000E+00 -0.6943611E-02
 0.5829000E+00 -0.5088018E-02
 0.5840000E+00 -0.3386260E-02
 0.5851000E+00 -0.1837457E-02
 0.5862000E+00 -0.4389153E-03
 0.5873000E+00  0.8137076E-03
 0.5884000E+00  0.1926223E-02
 0.5895000E+00  0.2905725E-02
 0.5906000E+00  0.3760393E-02
 0.5917000E+00  0.4499294E-02
 0.5928000E+00  0.5132185E-02
 0.5939000E+00  0.5669311E-02
 0.5950000E+00  0.6121214E-02
 0.5961000E+00  0.6498549E-02
 0.5972000E+00  0.6811911E-02
 0.5983000E+00  0.7071668E-02
 0.5994000E+00  0.7287817E-02
 0.6005000E+00  0.7469845E-02
 0.6016000E+00  0.7626618E-02
 0.6027000E+00  0.7766268E-02
 0.6038000E+00  0.7896109E-02
 0.6049000E+00  0.8022567E-02
 0.6060000E+00  0.8151131E-02
 0.6071000E+00  0.8286317E-02
 0.6082000E+00  0.8431661E-02
 0.6093000E+00  0.8589716E-02
 0.6104000E+00  0.8762079E-02
 0.6115000E+00  0.8949419E-02
 0.6126000E+00  0.9151516E-02
 0.6137000E+00  0.9367330E-02
 0.6148000E+00  0.9595059E-02
 0.6159000E+00  0.9832229E-02
 0.6170000E+00  0.1007578E-01
 0.6181000E+00  0.1032218E-01
 0.6192000E+00  0.1056751E-01
 0.6203000E+00  0.1080757E-01
 0.6214000E+00  0.1103800E-01
 0.6225000E+00  0.1125434E-01
 0.6236000E+00  0.1145217E-01
 0.6247000E+00  0.1162716E-01
 0.6258000E+00  0.1177523E-01
 0.6269000E+00  0.1189256E-01
 0.6280000E+00  0.1197573E-01
 0.6291000E+00  0.1202174E-01
 0.6302000E+00  0.1202806E-01
 0.6313000E+00  0.1199272E-01
 0.6324000E+00  0.1191426E-01
 0.6335000E+00  0.1179184E-01
 0.6346000E+00  0.1162518E-01
 0.6357000E+00  0.1141462E-01
 0.6368000E+00  0.1116104E-01
 0.6379000E+00  0.1086591E-01
 0.6390000E+00  0.1053121E-01
 0.6401000E+00  0.1015938E-01
 0.6412000E+00  0.9753318E-02
 0.6423000E+00  0.9316288E-02
 0.6434000E+00  0.8851884E-02
 0.6445000E+00  0.8363961E-02
 0.6456000E+00  0.7856579E-02
 0.6467000E+00  0.7333927E-02
 0.6478000E+00  0.6800273E-02
 0.6489000E+00  0.6259892E-02
 0.6500000E+00  0.5717010E-02
 0.6511000E+00  0.5175753E-02
 0.6522000E+00  0.4640086E-02
 0.6533000E+00  0.4113774E-02
 0.6544000E+00  0.3600332E-02
 0.6555000E+00  0.3102990E-02
 0.6566000E+00  0.2624664E-02
 0.6577000E+00  0.2167940E-02
 0.6588000E+00  0.1735051E-02
 0.6599000E+00  0.1327873E-02
 0.6610000E+00  0.9479172E-03
 0.6621000E+00  0.5963281E-03
 0.6632000E+00  0.2738893E-03
 0.6643000E+00 -0.1896347E-04
 0.6654000E+00 -0.2821226E-03
 0.6665000E+00 -0.5157858E-03
 0.6676000E+00 -0.7204307E-03
 0.6687000E+00 -0.8967902E-03
 0.6698000E+00 -0.1045827E-02
 0.6709000E+00 -0.1168709E-02
 0.6720000E+00 -0.1266775E-02
 0.6731000E+00 -0.1341507E-02
 0.6742000E+00 -0.1394494E-02
 0.6753000E+00 -0.1427396E-02
 0.6764000E+00 -0.1441920E-02
 0.6775000E+00 -0.1439792E-02
 0.6786000E+00 -0.1422737E-02
 0.6797000E+00 -0.1392456E-02
 0.6808000E+00 -0.1350611E-02
 0.6819000E+00 -0.1298801E-02
 0.6830000E+00 -0.1238544E-02
 0.6841000E+00 -0.1171264E-02
 0.6852000E+00 -0.1098273E-02
 0.6863000E+00 -0.1020771E-02
 0.6874000E+00 -0.9398372E-03
 0.6885000E+00 -0.8564317E-03
 0.6896000E+00 -0.7713943E-03
 0.6907000E+00 -0.6854427E-03
 0.6918000E+00 -0.5991720E-03
 0.6929000E+00 -0.5130541E-03
 0.6940000E+00 -0.4274412E-03
 0.6951000E+00 -0.3425714E-03
 0.6962000E+00 -0.2585765E-03
 0.6973000E+00 -0.1754905E-03
 0.6984000E+00 -0.9325655E-04
 0.6995000E+00 -0.1173204E-04
 0.7006000E+00  0.6930698E-04
 0.7017000E+00  0.1501611E-03
 0.7028000E+00  0.2312002E-03
 0.7039000E+00  0.3128541E-03
 0.7050000E+00  0.3956006E-03
 0.7061000E+00  0.4799542E-03
 0.7072000E+00  0.5664568E-03
 0.7083000E+00  0.6556695E-03
 0.7094000E+00  0.7481668E-03
 0.7105000E+00  0.8445276E-03
 0.7116000E+00  0.9453258E-03
 0.7127000E+00  0.1051116E-02
 0.7138000E+00  0.1162421E-02
 0.7149000E+00  0.1279716E-02
 0.7160000E+00  0.1403418E-02
 0.7171000E+00  0.1533873E-02
 0.7182000E+00  0.1671345E-02
 0.7193000E+00  0.1816003E-02
 0.7204000E+00  0.1967909E-02
 0.7215000E+00  0.2126995E-02
 0.7226000E+00  0.2293054E-02
 0.7237000E+00  0.2465732E-02
 0.7248000E+00  0.2644508E-02
 0.7259000E+00  0.2828701E-02
 0.7270000E+00  0.3017457E-02
 0.7281000E+00  0.3209751E-02
 0.7292000E+00  0.3404381E-02
 0.7303000E+00  0.3599968E-02
 0.7314000E+00  0.3794962E-02
 0.7325000E+00  0.3987646E-02
 0.7336000E+00  0.4176145E-02
 0.7347000E+00  0.4358450E-02
 0.7358000E+00  0.4532431E-02
 0.7369000E+00  0.4695860E-02
 0.7380000E+00  0.4846437E-02
 0.7391000E+00  0.4981823E-02
 0.7402000E+00  0.5099664E-02
 0.7413000E+00  0.5197627E-02
 0.7424000E+00  0.5273431E-02
 0.7435000E+00  0.5324888E-02
 0.7446000E+00  0.5349940E-02
 0.7457000E+00  0.5346699E-02
 0.7468000E+00  0.5313488E-02
 0.7479000E+00  0.5248873E-02
 0.7490000E+00  0.5151700E-02
 0.7501000E+00  0.5021119E-02
 0.7512000E+00  0.4856616E-02
 0.7523000E+00  0.4658035E-02
 0.7534000E+00  0.4425602E-02
 0.7545000E+00  0.4159942E-02
 0.7556000E+00  0.3862088E-02
 0.7567000E+00  0.3533480E-02
 0.7578000E+00  0.3175966E-02
 0.7589000E+00  0.2791783E-02
 0.7600000E+00  0.2383546E-02
 0.7611000E+00  0.1954220E-02
 0.7622000E+00  0.1507097E-02
 0.7633000E+00  0.1045757E-02
 0.7644000E+00  0.5740330E-03
 0.7655000E+00  0.9595798E-04
 0.7666000E+00 -0.3842820E-03
 0.7677000E+00 -0.8624049E-03
 0.7688000E+00 -0.1334089E-02
 0.7699000E+00 -0.1795029E-02
 0.7710000E+00 -0.2241000E-02
 0.7721000E+00 -0.2667911E-02
 0.7732000E+00 -0.3071868E-02
 0.7743000E+00 -0.3449230E-02
 0.7754000E+00 -0.3796662E-02
 0.7765000E+00 -0.4111182E-02
 0.7776000E+00 -0.4390207E-02
 0.7787000E+00 -0.4631586E-02
 0.7798000E+00 -0.4833630E-02
 0.7809000E+00 -0.4995138E-02
 0.7820000E+00 -0.5115410E-02
 0.7831000E+00 -0.5194256E-02
 0.7842000E+00 -0.5231999E-02
 0.7853000E+00 -0.5229463E-02
 0.7864000E+00 -0.5187961E-02
 0.7875000E+00 -0.5109266E-02
 0.7886000E+00 -0.4995579E-02
 0.7897000E+00 -0.4849489E-02
 0.7908000E+00 -0.4673926E-02
 0.7919000E+00 -0.4472113E-02
 0.7930000E+00 -0.4247517E-02
 0.7941000E+00 -0.4003793E-02
 0.7952000E+00 -0.3744721E-02
 0.7963000E+00 -0.3474148E-02
 0.7974000E+00 -0.3195926E-02
 0.7985000E+00 -0.2913844E-02
 0.7996000E+00 -0.2631584E-02
 0.8007000E+00 -0.2352662E-02
 0.8018000E+00 -0.2080390E-02
 0.8029000E+00 -0.1817832E-02
 0.8040000E+00 -0.1567764E-02
 0.8051000E+00 -0.1332636E-02
 0.8062000E+00 -0.1114547E-02
 0.8073000E+00 -0.9152252E-03
 0.8084000E+00 -0.7360200E-03
 0.8095000E+00 -0.5779033E-03
 0.8106000E+00 -0.4414768E-03
 0.8117000E+00 -0.3269802E-03
 0.8128000E+00 -0.2343037E-03
 0.8139000E+00 -0.1630036E-03
 0.8150000E+00 -0.1123255E-03
 0.8161000E+00 -0.8123474E-04
 0.8172000E+00 -0.6845358E-04
 0.8183000E+00 -0.7250056E-04
 0.8194000E+00 -0.9172950E-04
 0.8205000E+00 -0.1243660E-03
 0.8216000E+00 -0.1685415E-03
 0.8227000E+00 -0.2223268E-03
 0.8238000E+00 -0.2837661E-03
 0.8249000E+00 -0.3509117E-03
 0.8260000E+00 -0.4218577E-03
 0.8271000E+00 -0.4947711E-03
 0.8282000E+00 -0.5679168E-03
 0.8293000E+00 -0.6396776E-03
 0.8304000E+00 -0.7085685E-03
 0.8315000E+00 -0.7732476E-03
 0.8326000E+00 -0.8325258E-03
 0.8337000E+00 -0.8853742E-03
 0.8348000E+00 -0.9309298E-03
 0.8359000E+00 -0.9684991E-03
 0.8370000E+00 -0.9975558E-03
 0.8381000E+00 -0.1017735E-02
 0.8392000E+00 -0.1028824E-02
 0.8403000E+00 -0.1030746E-02
 0.8414000E+00 -0.1023550E-02
 0.8425000E+00 -0.1007404E-02
 0.8436000E+00 -0.9825805E-03
 0.8447000E+00 -0.9494495E-03
 0.8458000E+00 -0.9084685E-03
 0.8469000E+00 -0.8601657E-03
 0.8480000E+00 -0.8051225E-03
 0.8491000E+00 -0.7439572E-03
 0.8502000E+00 -0.6773102E-03
 0.8513000E+00 -0.6058360E-03
 0.8524000E+00 -0.5301968E-03
 0.8535000E+00 -0.4510566E-03
 0.8546000E+00 -0.3690725E-03
 0.8557000E+00 -0.2848831E-03
 0.8568000E+00 -0.1990965E-03
 0.8579000E+00 -0.1122797E-03
 0.8590000E+00 -0.2495293E-04
 0.8601000E+00  0.6241214E-04
 0.8612000E+00  0.1493925E-03
 0.8623000E+00  0.2356149E-03
 0.8634000E+00  0.3207588E-03
 0.8645000E+00  0.4045605E-03
 0.8656000E+00  0.4868158E-03
 0.8667000E+00  0.5673798E-03
 0.8678000E+00  0.6461615E-03
 0.8689000E+00  0.7231186E-03
 0.8700000E+00  0.7982503E-03
 0.8711000E+00  0.8715922E-03
 0.8722000E+00  0.9432113E-03
 0.8733000E+00  0.1013200E-02
 0.8744000E+00  0.1081671E-02
 0.8755000E+00  0.1148743E-02
 0.8766000E+00  0.1214535E-02
 0.8777000E+00  0.1279158E-02
 0.8788000E+00  0.1342698E-02
 0.8799000E+00  0.1405217E-02
 0.8810000E+00  0.1466737E-02
 0.8821000E+00  0.1527237E-02
 0.8832000E+00  0.1586641E-02
 0.8843000E+00  0.1644816E-02
 0.8854000E+00  0.1701565E-02
 0.8865000E+00  0.1756630E-02
 0.8876000E+00  0.1809691E-02
 0.8887000E+00  0.1860367E-02
 0.8898000E+00  0.1908218E-02
 0.8909000E+00  0.1952747E-02
 0.8920000E+00  0.1993408E-02
 0.8931000E+00  0.2029614E-02
 0.8942000E+00  0.2060748E-02
 0.8953000E+00  0.2086174E-02
 0.8964000E+00  0.2105252E-02
 0.8975000E+00  0.2117347E-02
 0.8986000E+00  0.2121848E-02
 0.8997000E+00  0.2118177E-02
 0.9008000E+00  0.2105806E-02
 0.9019000E+00  0.2084269E-02
 0.9030000E+00  0.2053176E-02
 0.9041000E+00  0.2012222E-02
 0.9052000E+00  0.1961202E-02
 0.9063000E+00  0.1900014E-02
 0.9074000E+00  0.1828671E-02
 0.9085000E+00  0.1747310E-02
 0.9096000E+00  0.1656191E-02
 0.9107000E+00  0.1555699E-02
 0.9118000E+00  0.1446343E-02
 0.9129000E+00  0.1328751E-02
 0.9140000E+00  0.1203669E-02
 0.9151000E+00  0.1071950E-02
 0.9162000E+00  0.9345482E-03
 0.9173000E+00  0.7925089E-03
 0.9184000E+00  0.6469521E-03
 0.9195000E+00  0.4990566E-03
 0.9206000E+00  0.3500438E-03
 0.9217000E+00  0.2011619E-03
 0.9228000E+00  0.5367047E-04
 0.9239000E+00 -0.9117459E-04
 0.9250000E+00 -0.2321380E-03
 0.9261000E+00 -0.3680223E-03
 0.9272000E+00 -0.4976852E-03
 0.9283000E+00 -0.6200556E-03
 0.9294000E+00 -0.7341496E-03
 0.9305000E+00 -0.8390835E-03
 0.9316000E+00 -0.9340869E-03
 0.9327000E+00 -0.1018514E-02
 0.9338000E+00 -0.1091854E-02
 0.9349000E+00 -0.1153733E-02
 0.9360000E+00 -0.1203920E-02
 0.9371000E+00 -0.1242327E-02
 0.9382000E+00 -0.1269008E-02
 0.9393000E+00 -0.1284160E-02
 0.9404000E+00 -0.1288123E-02
 0.9415000E+00 -0.1281374E-02
 0.9426000E+00 -0.1264520E-02
 0.9437000E+00 -0.1238286E-02
 0.9448000E+00 -0.1203500E-02
 0.9459000E+00 -0.1161076E-02
 0.9470000E+00 -0.1112007E-02
 0.9481000E+00 -0.1057350E-02
 0.9492000E+00 -0.9982159E-03
 0.9503000E+00 -0.9357489E-03
 0.9514000E+00 -0.8711088E-03
 0.9525000E+00 -0.8054484E-03
 0.9536000E+00 -0.7398939E-03
 0.9547000E+00 -0.6755302E-03
 0.9558000E+00 -0.6133903E-03
 0.9569000E+00 -0.5544456E-03
 0.9580000E+00 -0.4995937E-03
 0.9591000E+00 -0.4496451E-03
 0.9602000E+00 -0.4053079E-03
 0.9613000E+00 -0.3671754E-03
 0.9624000E+00 -0.3357187E-03
 0.9635000E+00 -0.3112844E-03
 0.9646000E+00 -0.2940949E-03
 0.9657000E+00 -0.2842496E-03
 0.9668000E+00 -0.2817248E-03
 0.9679000E+00 -0.2863728E-03
 0.9690000E+00 -0.2979228E-03
 0.9701000E+00 -0.3159841E-03
 0.9712000E+00 -0.3400543E-03
 0.9723000E+00 -0.3695295E-03
 0.9734000E+00 -0.4037162E-03
 0.9745000E+00 -0.4418430E-03
 0.9756000E+00 -0.4830703E-03
 0.9767000E+00 -0.5265002E-03
 0.9778000E+00 -0.5711861E-03
 0.9789000E+00 -0.6161432E-03