-0.1200000E+00  0.0000000E+00
-0.1189000E+00  0.0000000E+00
-0.1178000E+00  0.0000000E+00
-0.1167000E+00  0.0000000E+00
-0.1156000E+00  0.0000000E+00
-0.1145000E+00  0.0000000E+00
-0.1134000E+00  0.0000000E+00
-0.1123000E+00  0.0000000E+00
-0.1112000E+00  0.0000000E+00
-0.1101000E+00  0.0000000E+00
-0.1090000E+00  0.0000000E+00
-0.1079000E+00  0.2709293E-35
-0.1068000E+00 -0.1880810E-34
-0.1057000E+00 -0.5705029E-32
-0.1046000E+00 -0.9689181E-31
-0.1035000E+00 -0.8245117E-30
-0.1024000E+00 -0.4468890E-29
-0.1013000E+00 -0.1641786E-28
-0.1002000E+00 -0.3801649E-28
-0.9910000E-01 -0.2233037E-28
-0.9800000E-01  0.2508734E-27
-0.9690000E-01  0.1348685E-26
-0.9580000E-01  0.4035066E-26
-0.9470000E-01  0.7746667E-26
-0.9360000E-01  0.6234446E-26
-0.9250000E-01 -0.1915420E-25
-0.9140000E-01 -0.1005554E-24
-0.9030000E-01 -0.2573327E-24
-0.8920000E-01 -0.4117626E-24
-0.8810000E-01 -0.2428172E-24
-0.8700000E-01  0.9188756E-24
-0.8590000E-01  0.3855792E-23
-0.8480000E-01  0.8425290E-23
-0.8370000E-01  0.1146330E-22
-0.8260000E-01  0.4435665E-23
-0.8150000E-01 -0.2624885E-22
-0.8040000E-01 -0.9111174E-22
-0.7930000E-01 -0.1769481E-21
-0.7820000E-01 -0.2163388E-21
-0.7710000E-01 -0.6729173E-22
-0.7600000E-01  0.4543537E-21
-0.7490000E-01  0.1436945E-20
-0.7380000E-01  0.2610164E-20
-0.7270000E-01  0.3044383E-20
-0.7160000E-01  0.1071129E-20
-0.7050000E-01 -0.5165219E-20
-0.6940000E-01 -0.1616481E-19
-0.6830000E-01 -0.2864882E-19
-0.6720000E-01 -0.3334292E-19
-0.6610000E-01 -0.1526166E-19
-0.6500000E-01  0.4059858E-19
-0.6390000E-01  0.1364680E-18
-0.6280000E-01  0.2442982E-18
-0.6170000E-01  0.2925668E-18
-0.6060000E-01  0.1728683E-18
-0.5950000E-01 -0.2173771E-18
-0.5840000E-01 -0.8908604E-18
-0.5730000E-01 -0.1665931E-17
-0.5620000E-01 -0.2098582E-17
-0.5510000E-01 -0.1535485E-17
-0.5400000E-01  0.6351630E-18
-0.5290000E-01  0.4527567E-17
-0.5180000E-01  0.9224398E-17
-0.5070000E-01  0.1245417E-16
-0.4960000E-01  0.1087043E-16
-0.4850000E-01  0.1248806E-17
-0.4740000E-01 -0.1741861E-16
-0.4630000E-01 -0.4153069E-16
-0.4520000E-01 -0.6141789E-16
-0.4410000E-01 -0.6237858E-16
-0.4300000E-01 -0.2939641E-16
-0.4190000E-01  0.4461085E-16
-0.4080000E-01  0.1492883E-15
-0.3970000E-01  0.2505549E-15
-0.3860000E-01  0.2930430E-15
-0.3750000E-01  0.2154161E-15
-0.3640000E-01 -0.2170042E-16
-0.3530000E-01 -0.4022349E-15
-0.3420000E-01 -0.8295383E-15
-0.3310000E-01 -0.1126877E-14
-0.3200000E-01 -0.1077206E-14
-0.3090000E-01 -0.5036474E-15
-0.2980000E-01  0.6267401E-15
-0.2870000E-01  0.2112756E-14
-0.2760000E-01  0.3490238E-14
-0.2650000E-01  0.4106254E-14
-0.2540000E-01  0.3310392E-14
-0.2430000E-01  0.7321127E-15
-0.2320000E-01 -0.3436376E-14
-0.2210000E-01 -0.8266756E-14
-0.2100000E-01 -0.1214552E-13
-0.1990000E-01 -0.1311745E-13
-0.1880000E-01 -0.9500503E-14
-0.1770000E-01 -0.6398098E-15
-0.1660000E-01  0.1242983E-13
-0.1550000E-01  0.2668939E-13
-0.1440000E-01  0.3744812E-13
-0.1330000E-01  0.3937031E-13
-0.1220000E-01  0.2811443E-13
-0.1110000E-01  0.2240131E-14
-0.1000000E-01 -0.3517039E-13
-0.8900000E-02 -0.7582985E-13
-0.7800000E-02 -0.1070791E-12
-0.6700000E-02 -0.1145212E-12
-0.5600000E-02 -0.8624786E-13
-0.4500000E-02 -0.1783339E-13
-0.3400000E-02  0.8330606E-13
-0.2300000E-02  0.1959204E-12
-0.1200000E-02  0.2868897E-12
-0.1000000E-03  0.3179726E-12
 0.1000000E-02  0.2568073E-12
 0.2100000E-02  0.8993400E-13
 0.3200000E-02 -0.1659375E-12
 0.4300000E-02 -0.4589410E-12
 0.5400000E-02 -0.7072577E-12
 0.6500000E-02 -0.8161691E-12
 0.7600000E-02 -0.7050157E-12
 0.8700000E-02 -0.3380395E-12
 0.9800000E-02  0.2501135E-12
 0.1090000E-01  0.9443612E-12
 0.1200000E-01  0.1562389E-11
 0.1310000E-01  0.1893166E-11
 0.1420000E-01  0.1754993E-11
 0.1530000E-01  0.1059464E-11
 0.1640000E-01 -0.1374567E-12
 0.1750000E-01 -0.1616215E-11
 0.1860000E-01 -0.3019467E-11
 0.1970000E-01 -0.3924922E-11
 0.2080000E-01 -0.3953420E-11
 0.2190000E-01 -0.2887687E-11
 0.2300000E-01 -0.7695267E-12
 0.2410000E-01  0.2056465E-11
 0.2520000E-01  0.4975095E-11
 0.2630000E-01  0.7214031E-11
 0.2740000E-01  0.8022618E-11
 0.2850000E-01  0.6879765E-11
 0.2960000E-01  0.3680479E-11
 0.3070000E-01 -0.1152875E-11
 0.3180000E-01 -0.6678700E-11
 0.3290000E-01 -0.1158472E-10
 0.3400000E-01 -0.1446504E-10
 0.3510000E-01 -0.1417693E-10
 0.3620000E-01 -0.1019717E-10
 0.3730000E-01 -0.2880507E-11
 0.3840000E-01  0.6470363E-11
 0.3950000E-01  0.1578102E-10
 0.4060000E-01  0.2262725E-10
 0.4170000E-01  0.2483187E-10
 0.4280000E-01  0.2109976E-10
 0.4390000E-01  0.1151604E-10
 0.4500000E-01 -0.2260994E-11
 0.4610000E-01 -0.1722122E-10
 0.4720000E-01 -0.2964183E-10
 0.4830000E-01 -0.3602217E-10
 0.4940000E-01 -0.3408248E-10
 0.5050000E-01 -0.2353939E-10
 0.5160000E-01 -0.6397894E-11
 0.5270000E-01  0.1338745E-10
 0.5380000E-01  0.3085342E-10
 0.5490000E-01  0.4135280E-10
 0.5600000E-01  0.4190057E-10
 0.5710000E-01  0.3213450E-10
 0.5820000E-01  0.1456255E-10
 0.5930000E-01 -0.6037158E-11
 0.6040000E-01 -0.2394460E-10
 0.6150000E-01 -0.3419517E-10
 0.6260000E-01 -0.3414106E-10
 0.6370000E-01 -0.2437379E-10
 0.6480000E-01 -0.8667096E-11
 0.6590000E-01  0.7117985E-11
 0.6700000E-01  0.1689999E-10
 0.6810000E-01  0.1648237E-10
 0.6920000E-01  0.5239049E-11
 0.7030000E-01 -0.1321150E-10
 0.7140000E-01 -0.3168268E-10
 0.7250000E-01 -0.4140616E-10
 0.7360000E-01 -0.3487929E-10
 0.7470000E-01 -0.8801889E-11
 0.7580000E-01  0.3380898E-10
 0.7690000E-01  0.8313308E-10
 0.7800000E-01  0.1241462E-09
 0.7910000E-01  0.1402244E-09
 0.8020000E-01  0.1180652E-09
 0.8130000E-01  0.5271666E-10
 0.8240000E-01 -0.4877757E-10
 0.8350000E-01 -0.1665137E-09
 0.8460000E-01 -0.2705267E-09
 0.8570000E-01 -0.3272433E-09
 0.8680000E-01 -0.3085004E-09
 0.8790000E-01 -0.2010281E-09
 0.8900000E-01 -0.1369945E-10
 0.9010000E-01  0.2200853E-09
 0.9120000E-01  0.4466244E-09
 0.9230000E-01  0.6028960E-09
 0.9340000E-01  0.6324549E-09
 0.9450000E-01  0.5025696E-09
 0.9560000E-01  0.2178463E-09
 0.9670000E-01 -0.1742668E-09
 0.9780000E-01 -0.5891231E-09
 0.9890000E-01 -0.9219404E-09
 0.1000000E+00 -0.1073246E-08
 0.1011000E+00 -0.9767391E-09
 0.1022000E+00 -0.6220247E-09
 0.1033000E+00 -0.6506554E-10
 0.1044000E+00  0.5781984E-09
 0.1055000E+00  0.1155400E-08
 0.1066000E+00  0.1513951E-08
 0.1077000E+00  0.1541309E-08
 0.1088000E+00  0.1198679E-08
 0.1099000E+00  0.5382839E-09
 0.1110000E+00 -0.3020040E-09
 0.1121000E+00 -0.1127232E-08
 0.1132000E+00 -0.1731380E-08
 0.1143000E+00 -0.1949921E-08
 0.1154000E+00 -0.1705473E-08
 0.1165000E+00 -0.1033986E-08
 0.1176000E+00 -0.8324025E-10
 0.1187000E+00  0.9178199E-09
 0.1198000E+00  0.1712880E-08
 0.1209000E+00  0.2082754E-08
 0.1220000E+00  0.1904645E-08
 0.1231000E+00  0.1190592E-08
 0.1242000E+00  0.9387770E-10
 0.1253000E+00 -0.1120366E-08
 0.1264000E+00 -0.2135222E-08
 0.1275000E+00 -0.2659398E-08
 0.1286000E+00 -0.2503312E-08
 0.1297000E+00 -0.1634179E-08
 0.1308000E+00 -0.1944806E-09
 0.1319000E+00  0.1523402E-08
 0.1330000E+00  0.3142540E-08
 0.1341000E+00  0.4291972E-08
 0.1352000E+00  0.4699597E-08
 0.1363000E+00  0.4262355E-08
 0.1374000E+00  0.3073032E-08
 0.1385000E+00  0.1393916E-08
 0.1396000E+00 -0.4177303E-09
 0.1407000E+00 -0.2012656E-08
 0.1418000E+00 -0.3151031E-08
 0.1429000E+00 -0.3770018E-08
 0.1440000E+00 -0.3992840E-08
 0.1451000E+00 -0.4070839E-08
 0.1462000E+00 -0.4270782E-08
 0.1473000E+00 -0.4739049E-08
 0.1484000E+00 -0.5386083E-08
 0.1495000E+00 -0.5833926E-08
 0.1506000E+00 -0.5455723E-08
 0.1517000E+00 -0.3511364E-08
 0.1528000E+00  0.6453064E-09
 0.1539000E+00  0.7336800E-08
 0.1550000E+00  0.1637120E-07
 0.1561000E+00  0.2694694E-07
 0.1572000E+00  0.3768817E-07
 0.1583000E+00  0.4681191E-07
 0.1594000E+00  0.5239162E-07
 0.1605000E+00  0.5265252E-07
 0.1616000E+00  0.4622058E-07
 0.1627000E+00  0.3225398E-07
 0.1638000E+00  0.1041219E-07
 0.1649000E+00 -0.1934431E-07
 0.1660000E+00 -0.5708954E-07
 0.1671000E+00 -0.1033373E-06
 0.1682000E+00 -0.1594354E-06
 0.1693000E+00 -0.2278762E-06
 0.1704000E+00 -0.3124753E-06
 0.1715000E+00 -0.4184108E-06
 0.1726000E+00 -0.5521580E-06
 0.1737000E+00 -0.7213884E-06
 0.1748000E+00 -0.9349190E-06
 0.1759000E+00 -0.1202801E-05
 0.1770000E+00 -0.1536607E-05
 0.1781000E+00 -0.1949955E-05
 0.1792000E+00 -0.2459231E-05
 0.1803000E+00 -0.3084489E-05
 0.1814000E+00 -0.3850415E-05
 0.1825000E+00 -0.4787301E-05
 0.1836000E+00 -0.5931938E-05
 0.1847000E+00 -0.7328431E-05
 0.1858000E+00 -0.9028941E-05
 0.1869000E+00 -0.1109443E-04
 0.1880000E+00 -0.1359552E-04
 0.1891000E+00 -0.1661362E-04
 0.1902000E+00 -0.2024238E-04
 0.1913000E+00 -0.2458958E-04
 0.1924000E+00 -0.2977938E-04
 0.1935000E+00 -0.3595498E-04
 0.1946000E+00 -0.4328144E-04
 0.1957000E+00 -0.5194855E-04
 0.1968000E+00 -0.6217362E-04
 0.1979000E+00 -0.7420411E-04
 0.1990000E+00 -0.8832010E-04
 0.2001000E+00 -0.1048366E-03
 0.2012000E+00 -0.1241057E-03
 0.2023000E+00 -0.1465190E-03
 0.2034000E+00 -0.1725102E-03
 0.2045000E+00 -0.2025572E-03
 0.2056000E+00 -0.2371851E-03
 0.2067000E+00 -0.2769681E-03
 0.2078000E+00 -0.3225316E-03
 0.2089000E+00 -0.3745527E-03
 0.2100000E+00 -0.4337609E-03
 0.2111000E+00 -0.5009359E-03
 0.2122000E+00 -0.5769057E-03
 0.2133000E+00 -0.6625421E-03
 0.2144000E+00 -0.7587567E-03
 0.2155000E+00 -0.8664932E-03
 0.2166000E+00 -0.9867209E-03
 0.2177000E+00 -0.1120426E-02
 0.2188000E+00 -0.1268598E-02
 0.2199000E+00 -0.1432223E-02
 0.2210000E+00 -0.1612264E-02
 0.2221000E+00 -0.1809645E-02
 0.2232000E+00 -0.2025234E-02
 0.2243000E+00 -0.2259821E-02
 0.2254000E+00 -0.2514095E-02
 0.2265000E+00 -0.2788618E-02
 0.2276000E+00 -0.3083801E-02
 0.2287000E+00 -0.3399879E-02
 0.2298000E+00 -0.3736882E-02
 0.2309000E+00 -0.4094611E-02
 0.2320000E+00 -0.4472609E-02
 0.2331000E+00 -0.4870135E-02
 0.2342000E+00 -0.5286144E-02
 0.2353000E+00 -0.5719260E-02
 0.2364000E+00 -0.6167759E-02
 0.2375000E+00 -0.6629552E-02
 0.2386000E+00 -0.7102174E-02
 0.2397000E+00 -0.7582773E-02
 0.2408000E+00 -0.8068114E-02
 0.2419000E+00 -0.8554581E-02
 0.2430000E+00 -0.9038186E-02
 0.2441000E+00 -0.9514590E-02
 0.2452000E+00 -0.9979127E-02
 0.2463000E+00 -0.1042684E-01
 0.2474000E+00 -0.1085250E-01
 0.2485000E+00 -0.1125070E-01
 0.2496000E+00 -0.1161586E-01
 0.2507000E+00 -0.1194233E-01
 0.2518000E+00 -0.1222442E-01
 0.2529000E+00 -0.1245650E-01
 0.2540000E+00 -0.1263310E-01
 0.2551000E+00 -0.1274892E-01
 0.2562000E+00 -0.1279899E-01
 0.2573000E+00 -0.1277871E-01
 0.2584000E+00 -0.1268396E-01
 0.2595000E+00 -0.1251114E-01
 0.2606000E+00 -0.1225731E-01
 0.2617000E+00 -0.1192023E-01
 0.2628000E+00 -0.1149840E-01
 0.2639000E+00 -0.1099120E-01
 0.2650000E+00 -0.1039883E-01
 0.2661000E+00 -0.9722448E-02
 0.2672000E+00 -0.8964136E-02
 0.2683000E+00 -0.8126928E-02
 0.2694000E+00 -0.7214812E-02
 0.2705000E+00 -0.6232702E-02
 0.2716000E+00 -0.5186420E-02
 0.2727000E+00 -0.4082644E-02
 0.2738000E+00 -0.2928854E-02
 0.2749000E+00 -0.1733257E-02
 0.2760000E+00 -0.5047068E-03
 0.2771000E+00  0.7473960E-03
 0.2782000E+00  0.2013210E-02
 0.2793000E+00  0.3282572E-02
 0.2804000E+00  0.4545116E-02
 0.2815000E+00  0.5790405E-02
 0.2826000E+00  0.7008059E-02
 0.2837000E+00  0.8187884E-02
 0.2848000E+00  0.9320003E-02
 0.2859000E+00  0.1039498E-01
 0.2870000E+00  0.1140394E-01
 0.2881000E+00  0.1233867E-01
 0.2892000E+00  0.1319176E-01
 0.2903000E+00  0.1395664E-01
 0.2914000E+00  0.1462770E-01
 0.2925000E+00  0.1520036E-01
 0.2936000E+00  0.1567109E-01
 0.2947000E+00  0.1603749E-01
 0.2958000E+00  0.1629826E-01
 0.2969000E+00  0.1645326E-01
 0.2980000E+00  0.1650344E-01
 0.2991000E+00  0.1645084E-01
 0.3002000E+00  0.1629855E-01
 0.3013000E+00  0.1605065E-01
 0.3024000E+00  0.1571211E-01
 0.3035000E+00  0.1528876E-01
 0.3046000E+00  0.1478717E-01
 0.3057000E+00  0.1421452E-01
 0.3068000E+00  0.1357855E-01
 0.3079000E+00  0.1288742E-01
 0.3090000E+00  0.1214955E-01
 0.3101000E+00  0.1137358E-01
 0.3112000E+00  0.1056820E-01
 0.3123000E+00  0.9742028E-02
 0.3134000E+00  0.8903529E-02
 0.3145000E+00  0.8060889E-02
 0.3156000E+00  0.7221922E-02
 0.3167000E+00  0.6393981E-02
 0.3178000E+00  0.5583884E-02
 0.3189000E+00  0.4797847E-02
 0.3200000E+00  0.4041427E-02
 0.3211000E+00  0.3319476E-02
 0.3222000E+00  0.2636118E-02
 0.3233000E+00  0.1994722E-02
 0.3244000E+00  0.1397903E-02
 0.3255000E+00  0.8475299E-03
 0.3266000E+00  0.3447442E-03
 0.3277000E+00 -0.1100078E-03
 0.3288000E+00 -0.5169359E-03
 0.3299000E+00 -0.8768564E-03
 0.3310000E+00 -0.1191135E-02
 0.3321000E+00 -0.1461623E-02
 0.3332000E+00 -0.1690586E-02
 0.3343000E+00 -0.1880633E-02
 0.3354000E+00 -0.2034641E-02
 0.3365000E+00 -0.2155683E-02
 0.3376000E+00 -0.2246955E-02
 0.3387000E+00 -0.2311711E-02
 0.3398000E+00 -0.2353200E-02
 0.3409000E+00 -0.2374605E-02
 0.3420000E+00 -0.2378987E-02
 0.3431000E+00 -0.2369240E-02
 0.3442000E+00 -0.2348048E-02
 0.3453000E+00 -0.2317847E-02
 0.3464000E+00 -0.2280803E-02
 0.3475000E+00 -0.2238798E-02
 0.3486000E+00 -0.2193416E-02
 0.3497000E+00 -0.2145946E-02
 0.3508000E+00 -0.2097395E-02
 0.3519000E+00 -0.2048496E-02
 0.3530000E+00 -0.1999734E-02
 0.3541000E+00 -0.1951368E-02
 0.3552000E+00 -0.1903461E-02
 0.3563000E+00 -0.1855905E-02
 0.3574000E+00 -0.1808458E-02
 0.3585000E+00 -0.1760771E-02
 0.3596000E+00 -0.1712423E-02
 0.3607000E+00 -0.1662959E-02
 0.3618000E+00 -0.1611924E-02
 0.3629000E+00 -0.1558893E-02
 0.3640000E+00 -0.1503503E-02
 0.3651000E+00 -0.1445478E-02
 0.3662000E+00 -0.1384642E-02
 0.3673000E+00 -0.1320935E-02
 0.3684000E+00 -0.1254419E-02
 0.3695000E+00 -0.1185277E-02
 0.3706000E+00 -0.1113817E-02
 0.3717000E+00 -0.1040466E-02
 0.3728000E+00 -0.9657607E-03
 0.3739000E+00 -0.8903383E-03
 0.3750000E+00 -0.8149178E-03
 0.3761000E+00 -0.7402817E-03
 0.3772000E+00 -0.6672524E-03
 0.3783000E+00 -0.5966678E-03
 0.3794000E+00 -0.5293554E-03
 0.3805000E+00 -0.4661067E-03
 0.3816000E+00 -0.4076531E-03
 0.3827000E+00 -0.3546439E-03
 0.3838000E+00 -0.3076262E-03
 0.3849000E+00 -0.2670288E-03
 0.3860000E+00 -0.2331471E-03
 0.3871000E+00 -0.2061322E-03
 0.3882000E+00 -0.1859811E-03
 0.3893000E+00 -0.1725321E-03
 0.3904000E+00 -0.1654636E-03
 0.3915000E+00 -0.1642982E-03
 0.3926000E+00 -0.1684128E-03
 0.3937000E+00 -0.1770541E-03
 0.3948000E+00 -0.1893575E-03
 0.3959000E+00 -0.2043676E-03
 0.3970000E+00 -0.2210592E-03
 0.3981000E+00 -0.2383575E-03
 0.3992000E+00 -0.2551564E-03
 0.4003000E+00 -0.2703372E-03
 0.4014000E+00 -0.2827872E-03
 0.4025000E+00 -0.2914183E-03
 0.4036000E+00 -0.2951869E-03
 0.4047000E+00 -0.2931118E-03
 0.4058000E+00 -0.2842910E-03
 0.4069000E+00 -0.2679126E-03
 0.4080000E+00 -0.2432610E-03
 0.4091000E+00 -0.2097167E-03
 0.4102000E+00 -0.1667493E-03
 0.4113000E+00 -0.1139043E-03
 0.4124000E+00 -0.5078586E-04
 0.4135000E+00  0.2296324E-04
 0.4146000E+00  0.1076838E-03
 0.4157000E+00  0.2037218E-03
 0.4168000E+00  0.3114492E-03
 0.4179000E+00  0.4312854E-03
 0.4190000E+00  0.5637173E-03
 0.4201000E+00  0.7093218E-03
 0.4212000E+00  0.8687879E-03
 0.4223000E+00  0.1042938E-02
 0.4234000E+00  0.1232750E-02
 0.4245000E+00  0.1439367E-02
 0.4256000E+00  0.1664110E-02
 0.4267000E+00  0.1908472E-02
 0.4278000E+00  0.2174109E-02
 0.4289000E+00  0.2462818E-02
 0.4300000E+00  0.2776510E-02
 0.4311000E+00  0.3117173E-02
 0.4322000E+00  0.3486826E-02
 0.4333000E+00  0.3887469E-02
 0.4344000E+00  0.4321026E-02
 0.4355000E+00  0.4789283E-02
 0.4366000E+00  0.5293818E-02
 0.4377000E+00  0.5835932E-02
 0.4388000E+00  0.6416575E-02
 0.4399000E+00  0.7036269E-02
 0.4410000E+00  0.7695037E-02
 0.4421000E+00  0.8392322E-02
 0.4432000E+00  0.9126920E-02
 0.4443000E+00  0.9896919E-02
 0.4454000E+00  0.1069963E-01
 0.4465000E+00  0.1153157E-01
 0.4476000E+00  0.1238838E-01
 0.4487000E+00  0.1326487E-01
 0.4498000E+00  0.1415496E-01
 0.4509000E+00  0.1505173E-01
 0.4520000E+00  0.1594744E-01
 0.4531000E+00  0.1683357E-01
 0.4542000E+00  0.1770088E-01
 0.4553000E+00  0.1853951E-01
 0.4564000E+00  0.1933906E-01
 0.4575000E+00  0.2008873E-01
 0.4586000E+00  0.2077741E-01
 0.4597000E+00  0.2139385E-01
 0.4608000E+00  0.2192680E-01
 0.4619000E+00  0.2236517E-01
 0.4630000E+00  0.2269825E-01
 0.4641000E+00  0.2291580E-01
 0.4652000E+00  0.2300829E-01
 0.4663000E+00  0.2296706E-01
 0.4674000E+00  0.2278448E-01
 0.4685000E+00  0.2245408E-01
 0.4696000E+00  0.2197075E-01
 0.4707000E+00  0.2133083E-01
 0.4718000E+00  0.2053223E-01
 0.4729000E+00  0.1957452E-01
 0.4740000E+00  0.1845900E-01
 0.4751000E+00  0.1718877E-01
 0.4762000E+00  0.1576872E-01
 0.4773000E+00  0.1420553E-01
 0.4784000E+00  0.1250764E-01
 0.4795000E+00  0.1068518E-01
 0.4806000E+00  0.8749896E-02
 0.4817000E+00  0.6715022E-02
 0.4828000E+00  0.4595150E-02
 0.4839000E+00  0.2406065E-02
 0.4850000E+00  0.1645649E-03
 0.4861000E+00 -0.2111736E-02
 0.4872000E+00 -0.4404626E-02
 0.4883000E+00 -0.6695515E-02
 0.4894000E+00 -0.8965668E-02
 0.4905000E+00 -0.1119644E-01
 0.4916000E+00 -0.1336951E-01
 0.4927000E+00 -0.1546710E-01
 0.4938000E+00 -0.1747221E-01
 0.4949000E+00 -0.1936881E-01
 0.4960000E+00 -0.2114207E-01
 0.4971000E+00 -0.2277847E-01
 0.4982000E+00 -0.2426601E-01
 0.4993000E+00 -0.2559432E-01
 0.5004000E+00 -0.2675478E-01
 0.5015000E+00 -0.2774058E-01
 0.5026000E+00 -0.2854680E-01
 0.5037000E+00 -0.2917042E-01
 0.5048000E+00 -0.2961035E-01
 0.5059000E+00 -0.2986733E-01
 0.5070000E+00 -0.2994397E-01
 0.5081000E+00 -0.2984459E-01
 0.5092000E+00 -0.2957514E-01
 0.5103000E+00 -0.2914311E-01
 0.5114000E+00 -0.2855738E-01
 0.5125000E+00 -0.2782803E-01
 0.5136000E+00 -0.2696624E-01
 0.5147000E+00 -0.2598406E-01
 0.5158000E+00 -0.2489427E-01
 0.5169000E+00 -0.2371019E-01
 0.5180000E+00 -0.2244548E-01
 0.5191000E+00 -0.2111399E-01
 0.5202000E+00 -0.1972956E-01
 0.5213000E+00 -0.1830590E-01
 0.5224000E+00 -0.1685638E-01
 0.5235000E+00 -0.1539393E-01
 0.5246000E+00 -0.1393087E-01
 0.5257000E+00 -0.1247886E-01
 0.5268000E+00 -0.1104874E-01
 0.5279000E+00 -0.9650500E-02
 0.5290000E+00 -0.8293178E-02
 0.5301000E+00 -0.6984838E-02
 0.5312000E+00 -0.5732531E-02
 0.5323000E+00 -0.4542278E-02
 0.5334000E+00 -0.3419073E-02
 0.5345000E+00 -0.2366894E-02
 0.5356000E+00 -0.1388726E-02
 0.5367000E+00 -0.4865988E-03
 0.5378000E+00  0.3383690E-03
 0.5389000E+00  0.1085917E-02
 0.5400000E+00  0.1756580E-02
 0.5411000E+00  0.2351621E-02
 0.5422000E+00  0.2872958E-02
 0.5433000E+00  0.3323086E-02
 0.5444000E+00  0.3705003E-02
 0.5455000E+00  0.4022130E-02
 0.5466000E+00  0.4278237E-02
 0.5477000E+00  0.4477371E-02
 0.5488000E+00  0.4623781E-02
 0.5499000E+00  0.4721861E-02
 0.5510000E+00  0.4776078E-02
 0.5521000E+00  0.4790917E-02
 0.5532000E+00  0.4770826E-02
 0.5543000E+00  0.4720164E-02
 0.5554000E+00  0.4643156E-02
 0.5565000E+00  0.4543852E-02
 0.5576000E+00  0.4426096E-02
 0.5587000E+00  0.4293492E-02
 0.5598000E+00  0.4149390E-02
 0.5609000E+00  0.3996866E-02
 0.5620000E+00  0.3838711E-02
 0.5631000E+00  0.3677425E-02
 0.5642000E+00  0.3515216E-02
 0.5653000E+00  0.3353999E-02
 0.5664000E+00  0.3195402E-02
 0.5675000E+00  0.3040774E-02
 0.5686000E+00  0.2891196E-02
 0.5697000E+00  0.2747499E-02
 0.5708000E+00  0.2610281E-02
 0.5719000E+00  0.2479928E-02
 0.5730000E+00  0.2356638E-02
 0.5741000E+00  0.2240440E-02
 0.5752000E+00  0.2131223E-02
 0.5763000E+00  0.2028753E-02
 0.5774000E+00  0.1932700E-02
 0.5785000E+00  0.1842659E-02
 0.5796000E+00  0.1758168E-02
 0.5807000E+00  0.1678735E-02
 0.5818000E+00  0.1603850E-02
 0.5829000E+00  0.1533008E-02
 0.5840000E+00  0.1465729E-02
 0.5851000E+00  0.1401566E-02
 0.5862000E+00  0.1340121E-02
 0.5873000E+00  0.1281053E-02
 0.5884000E+00  0.1224084E-02
 0.5895000E+00  0.1168998E-02
 0.5906000E+00  0.1115641E-02
 0.5917000E+00  0.1063922E-02
 0.5928000E+00  0.1013808E-02
 0.5939000E+00  0.9653232E-03
 0.5950000E+00  0.9185407E-03
 0.5961000E+00  0.8735801E-03
 0.5972000E+00  0.8305981E-03
 0.5983000E+00  0.7897790E-03
 0.5994000E+00  0.7513245E-03
 0.6005000E+00  0.7154421E-03
 0.6016000E+00  0.6823352E-03
 0.6027000E+00  0.6521933E-03
 0.6038000E+00  0.6251831E-03
 0.6049000E+00  0.6014425E-03
 0.6060000E+00  0.5810745E-03
 0.6071000E+00  0.5641432E-03
 0.6082000E+00  0.5506714E-03
 0.6093000E+00  0.5406381E-03
 0.6104000E+00  0.5339785E-03
 0.6115000E+00  0.5305831E-03
 0.6126000E+00  0.5302980E-03
 0.6137000E+00  0.5329261E-03
 0.6148000E+00  0.5382297E-03
 0.6159000E+00  0.5459343E-03
 0.6170000E+00  0.5557349E-03
 0.6181000E+00  0.5673025E-03
 0.6192000E+00  0.5802913E-03
 0.6203000E+00  0.5943453E-03
 0.6214000E+00  0.6091046E-03
 0.6225000E+00  0.6242096E-03
 0.6236000E+00  0.6393047E-03
 0.6247000E+00  0.6540424E-03
 0.6258000E+00  0.6680860E-03
 0.6269000E+00  0.6811131E-03
 0.6280000E+00  0.6928184E-03
 0.6291000E+00  0.7029159E-03
 0.6302000E+00  0.7111410E-03
 0.6313000E+00  0.7172513E-03
 0.6324000E+00  0.7210274E-03
 0.6335000E+00  0.7222716E-03
 0.6346000E+00  0.7208074E-03
 0.6357000E+00  0.7164771E-03
 0.6368000E+00  0.7091390E-03
 0.6379000E+00  0.6986656E-03
 0.6390000E+00  0.6849404E-03
 0.6401000E+00  0.6678588E-03
 0.6412000E+00  0.6473268E-03
 0.6423000E+00  0.6232635E-03
 0.6434000E+00  0.5956016E-03
 0.6445000E+00  0.5642882E-03
 0.6456000E+00  0.5292859E-03
 0.6467000E+00  0.4905724E-03
 0.6478000E+00  0.4481423E-03
 0.6489000E+00  0.4020083E-03
 0.6500000E+00  0.3522050E-03
 0.6511000E+00  0.2987923E-03
 0.6522000E+00  0.2418591E-03
 0.6533000E+00  0.1815268E-03
 0.6544000E+00  0.1179512E-03
 0.6555000E+00  0.5132474E-04
 0.6566000E+00 -0.1812207E-04
 0.6577000E+00 -0.9011934E-04
 0.6588000E+00 -0.1643566E-03
 0.6599000E+00 -0.2404822E-03
 0.6610000E+00 -0.3181039E-03
 0.6621000E+00 -0.3967905E-03
 0.6632000E+00 -0.4760743E-03
 0.6643000E+00 -0.5554546E-03
 0.6654000E+00 -0.6344009E-03
 0.6665000E+00 -0.7123574E-03
 0.6676000E+00 -0.7887481E-03
 0.6687000E+00 -0.8629835E-03
 0.6698000E+00 -0.9344689E-03
 0.6709000E+00 -0.1002613E-02
 0.6720000E+00 -0.1066838E-02
 0.6731000E+00 -0.1126586E-02
 0.6742000E+00 -0.1181330E-02
 0.6753000E+00 -0.1230576E-02
 0.6764000E+00 -0.1273875E-02
 0.6775000E+00 -0.1310824E-02
 0.6786000E+00 -0.1341076E-02
 0.6797000E+00 -0.1364347E-02
 0.6808000E+00 -0.1380421E-02
 0.6819000E+00 -0.1389157E-02
 0.6830000E+00 -0.1390491E-02
 0.6841000E+00 -0.1384436E-02
 0.6852000E+00 -0.1371086E-02
 0.6863000E+00 -0.1350614E-02
 0.6874000E+00 -0.1323271E-02
 0.6885000E+00 -0.1289383E-02
 0.6896000E+00 -0.1249348E-02
 0.6907000E+00 -0.1203632E-02
 0.6918000E+00 -0.1152762E-02
 0.6929000E+00 -0.1097321E-02
 0.6940000E+00 -0.1037935E-02
 0.6951000E+00 -0.9752703E-03
 0.6962000E+00 -0.9100216E-03
 0.6973000E+00 -0.8429029E-03
 0.6984000E+00 -0.7746375E-03
 0.6995000E+00 -0.7059475E-03
 0.7006000E+00 -0.6375426E-03
 0.7017000E+00 -0.5701096E-03
 0.7028000E+00 -0.5043026E-03
 0.7039000E+00 -0.4407334E-03
 0.7050000E+00 -0.3799632E-03
 0.7061000E+00 -0.3224952E-03
 0.7072000E+00 -0.2687672E-03
 0.7083000E+00 -0.2191461E-03
 0.7094000E+00 -0.1739235E-03
 0.7105000E+00 -0.1333126E-03
 0.7116000E+00 -0.9744716E-04
 0.7127000E+00 -0.6638159E-04
 0.7138000E+00 -0.4009244E-04
 0.7149000E+00 -0.1848152E-04
 0.7160000E+00 -0.1380188E-05
 0.7171000E+00  0.1144480E-04
 0.7182000E+00  0.2028426E-04
 0.7193000E+00  0.2547863E-04
 0.7204000E+00  0.2740958E-04
 0.7215000E+00  0.2649159E-04
 0.7226000E+00  0.2316359E-04
 0.7237000E+00  0.1788055E-04
 0.7248000E+00  0.1110468E-04
 0.7259000E+00  0.3296155E-05
 0.7270000E+00 -0.5096544E-05
 0.7281000E+00 -0.1364601E-04
 0.7292000E+00 -0.2195445E-04
 0.7303000E+00 -0.2966074E-04
 0.7314000E+00 -0.3644574E-04
 0.7325000E+00 -0.4203598E-04
 0.7336000E+00 -0.4620598E-04
 0.7347000E+00 -0.4877958E-04
 0.7358000E+00 -0.4963021E-04
 0.7369000E+00 -0.4868031E-04
 0.7380000E+00 -0.4589975E-04
 0.7391000E+00 -0.4130351E-04
 0.7402000E+00 -0.3494869E-04
 0.7413000E+00 -0.2693129E-04
 0.7424000E+00 -0.1738254E-04
 0.7435000E+00 -0.6464707E-05
 0.7446000E+00  0.5633942E-05
 0.7457000E+00  0.1870518E-04
 0.7468000E+00  0.3252744E-04
 0.7479000E+00  0.4687249E-04
 0.7490000E+00  0.6151111E-04
 0.7501000E+00  0.7621740E-04
 0.7512000E+00  0.9077165E-04
 0.7523000E+00  0.1049624E-03
 0.7534000E+00  0.1185884E-03
 0.7545000E+00  0.1314616E-03
 0.7556000E+00  0.1434099E-03
 0.7567000E+00  0.1542812E-03
 0.7578000E+00  0.1639459E-03
 0.7589000E+00  0.1722978E-03
 0.7600000E+00  0.1792544E-03
 0.7611000E+00  0.1847544E-03
 0.7622000E+00  0.1887563E-03
 0.7633000E+00  0.1912361E-03
 0.7644000E+00  0.1921861E-03
 0.7655000E+00  0.1916136E-03
 0.7666000E+00  0.1895407E-03
 0.7677000E+00  0.1860035E-03
 0.7688000E+00  0.1810512E-03
 0.7699000E+00  0.1747455E-03
 0.7710000E+00  0.1671600E-03
 0.7721000E+00  0.1583788E-03
 0.7732000E+00  0.1484953E-03
 0.7743000E+00  0.1376099E-03
 0.7754000E+00  0.1258269E-03
 0.7765000E+00  0.1132521E-03
 0.7776000E+00  0.9999076E-04
 0.7787000E+00  0.8614639E-04
 0.7798000E+00  0.7182101E-04
 0.7809000E+00  0.5711557E-04
 0.7820000E+00  0.4213015E-04
 0.7831000E+00  0.2696317E-04
 0.7842000E+00  0.1170967E-04
 0.7853000E+00 -0.3540936E-05
 0.7864000E+00 -0.1870684E-04
 0.7875000E+00 -0.3371483E-04
 0.7886000E+00 -0.4850028E-04
 0.7897000E+00 -0.6300642E-04
 0.7908000E+00 -0.7718352E-04
 0.7919000E+00 -0.9098840E-04
 0.7930000E+00 -0.1043846E-03
 0.7941000E+00 -0.1173423E-03
 0.7952000E+00 -0.1298385E-03
 0.7963000E+00 -0.1418560E-03
 0.7974000E+00 -0.1533823E-03
 0.7985000E+00 -0.1644073E-03
 0.7996000E+00 -0.1749223E-03
 0.8007000E+00 -0.1849180E-03
 0.8018000E+00 -0.1943833E-03
 0.8029000E+00 -0.2033045E-03
 0.8040000E+00 -0.2116638E-03
 0.8051000E+00 -0.2194387E-03
 0.8062000E+00 -0.2266005E-03
 0.8073000E+00 -0.2331149E-03
 0.8084000E+00 -0.2389417E-03
 0.8095000E+00 -0.2440363E-03
 0.8106000E+00 -0.2483509E-03
 0.8117000E+00 -0.2518360E-03
 0.8128000E+00 -0.2544419E-03
 0.8139000E+00 -0.2561201E-03
 0.8150000E+00 -0.2568252E-03
 0.8161000E+00 -0.2565175E-03
 0.8172000E+00 -0.2551648E-03
 0.8183000E+00 -0.2527453E-03
 0.8194000E+00 -0.2492508E-03
 0.8205000E+00 -0.2446885E-03
 0.8216000E+00 -0.2390836E-03
 0.8227000E+00 -0.2324815E-03
 0.8238000E+00 -0.2249486E-03
 0.8249000E+00 -0.2165735E-03
 0.8260000E+00 -0.2074662E-03
 0.8271000E+00 -0.1977570E-03
 0.8282000E+00 -0.1875936E-03
 0.8293000E+00 -0.1771381E-03
 0.8304000E+00 -0.1665635E-03
 0.8315000E+00 -0.1560497E-03
 0.8326000E+00 -0.1457803E-03
 0.8337000E+00 -0.1359386E-03
 0.8348000E+00 -0.1267035E-03
 0.8359000E+00 -0.1182454E-03
 0.8370000E+00 -0.1107219E-03
 0.8381000E+00 -0.1042733E-03
 0.8392000E+00 -0.9901918E-04
 0.8403000E+00 -0.9505445E-04
 0.8414000E+00 -0.9244665E-04
 0.8425000E+00 -0.9123358E-04
 0.8436000E+00 -0.9142190E-04
 0.8447000E+00 -0.9298713E-04
 0.8458000E+00 -0.9587547E-04
 0.8469000E+00 -0.1000072E-03
 0.8480000E+00 -0.1052818E-03
 0.8491000E+00 -0.1115830E-03
 0.8502000E+00 -0.1187841E-03
 0.8513000E+00 -0.1267526E-03
 0.8524000E+00 -0.1353543E-03
 0.8535000E+00 -0.1444573E-03
 0.8546000E+00 -0.1539375E-03
 0.8557000E+00 -0.1636848E-03
 0.8568000E+00 -0.1736099E-03
 0.8579000E+00 -0.1836511E-03
 0.8590000E+00 -0.1937796E-03
 0.8601000E+00 -0.2040026E-03
 0.8612000E+00 -0.2143642E-03
 0.8623000E+00 -0.2249437E-03
 0.8634000E+00 -0.2358540E-03
 0.8645000E+00 -0.2472382E-03
 0.8656000E+00 -0.2592661E-03
 0.8667000E+00 -0.2721307E-03
 0.8678000E+00 -0.2860423E-03
 0.8689000E+00 -0.3012229E-03
 0.8700000E+00 -0.3178985E-03
 0.8711000E+00 -0.3362918E-03
 0.8722000E+00 -0.3566132E-03
 0.8733000E+00 -0.3790530E-03
 0.8744000E+00 -0.4037723E-03
 0.8755000E+00 -0.4308936E-03
 0.8766000E+00 -0.4604918E-03
 0.8777000E+00 -0.4925854E-03
 0.8788000E+00 -0.5271291E-03
 0.8799000E+00 -0.5640096E-03
 0.8810000E+00 -0.6030433E-03
 0.8821000E+00 -0.6439761E-03
 0.8832000E+00 -0.6864862E-03
 0.8843000E+00 -0.7301867E-03
 0.8854000E+00 -0.7746292E-03
 0.8865000E+00 -0.8193079E-03
 0.8876000E+00 -0.8636646E-03
 0.8887000E+00 -0.9070953E-03
 0.8898000E+00 -0.9489574E-03
 0.8909000E+00 -0.9885799E-03
 0.8920000E+00 -0.1025274E-02
 0.8931000E+00 -0.1058345E-02
 0.8942000E+00 -0.1087105E-02
 0.8953000E+00 -0.1110885E-02
 0.8964000E+00 -0.1129049E-02
 0.8975000E+00 -0.1141006E-02
 0.8986000E+00 -0.1146219E-02
 0.8997000E+00 -0.1144218E-02
 0.9008000E+00 -0.1134605E-02
 0.9019000E+00 -0.1117060E-02
 0.9030000E+00 -0.1091349E-02
 0.9041000E+00 -0.1057328E-02
 0.9052000E+00 -0.1014943E-02
 0.9063000E+00 -0.9642387E-03
 0.9074000E+00 -0.9053517E-03
 0.9085000E+00 -0.8385142E-03
 0.9096000E+00 -0.7640494E-03
 0.9107000E+00 -0.6823681E-03
 0.9118000E+00 -0.5939624E-03
 0.9129000E+00 -0.4994002E-03
 0.9140000E+00 -0.3993162E-03
 0.9151000E+00 -0.2944037E-03
 0.9162000E+00 -0.1854039E-03
 0.9173000E+00 -0.7309590E-04
 0.9184000E+00  0.4171392E-04
 0.9195000E+00  0.1582011E-03
 0.9206000E+00  0.2755322E-03
 0.9217000E+00  0.3928737E-03
 0.9228000E+00  0.5094010E-03
 0.9239000E+00  0.6243074E-03
 0.9250000E+00  0.7368135E-03
 0.9261000E+00  0.8461747E-03
 0.9272000E+00  0.9516883E-03
 0.9283000E+00  0.1052698E-02
 0.9294000E+00  0.1148595E-02
 0.9305000E+00  0.1238826E-02
 0.9316000E+00  0.1322887E-02
 0.9327000E+00  0.1400335E-02
 0.9338000E+00  0.1470783E-02
 0.9349000E+00  0.1533909E-02
 0.9360000E+00  0.1589452E-02
 0.9371000E+00  0.1637209E-02
 0.9382000E+00  0.1677038E-02
 0.9393000E+00  0.1708851E-02
 0.9404000E+00  0.1732613E-02
 0.9415000E+00  0.1748341E-02
 0.9426000E+00  0.1756102E-02
 0.9437000E+00  0.1756012E-02
 0.9448000E+00  0.1748236E-02
 0.9459000E+00  0.1732982E-02
 0.9470000E+00  0.1710500E-02
 0.9481000E+00  0.1681080E-02
 0.9492000E+00  0.1645050E-02
 0.9503000E+00  0.1602775E-02
 0.9514000E+00  0.1554660E-02
 0.9525000E+00  0.1501142E-02
 0.9536000E+00  0.1442694E-02
 0.9547000E+00  0.1379815E-02
 0.9558000E+00  0.1313032E-02
 0.9569000E+00  0.1242891E-02
 0.9580000E+00  0.1169960E-02
 0.9591000E+00  0.1094818E-02
 0.9602000E+00  0.1018061E-02
 0.9613000E+00  0.9402886E-03
 0.9624000E+00  0.8621024E-03
 0.9635000E+00  0.7840992E-03
 0.9646000E+00  0.7068648E-03
 0.9657000E+00  0.6309674E-03
 0.9668000E+00  0.5569526E-03
 0.9679000E+00  0.4853372E-03
 0.9690000E+00  0.4166024E-03
 0.9701000E+00  0.3511866E-03
 0.9712000E+00  0.2894785E-03
 0.9723000E+00  0.2318108E-03
 0.9734000E+00  0.1784566E-03
 0.9745000E+00  0.1296261E-03
 0.9756000E+00  0.8546687E-04
 0.9767000E+00  0.4606319E-04
 0.9778000E+00  0.1143694E-04
 0.9789000E+00 -0.1845145E-04