 -0.12000000000000000          0.0000000000000000     
 -0.11889999999999999          0.0000000000000000     
 -0.11780000000000000          0.0000000000000000     
 -0.11670000000000000          0.0000000000000000     
 -0.11559999999999999          0.0000000000000000     
 -0.11449999999999999          0.0000000000000000     
 -0.11340000000000000          0.0000000000000000     
 -0.11230000000000000          0.0000000000000000     
 -0.11119999999999999          0.0000000000000000     
 -0.11009999999999999          0.0000000000000000     
 -0.10900000000000000          0.0000000000000000     
 -0.10790000000000000          0.0000000000000000     
 -0.10679999999999999          0.0000000000000000     
 -0.10569999999999999          0.0000000000000000     
 -0.10460000000000000          0.0000000000000000     
 -0.10349999999999999          0.0000000000000000     
 -0.10239999999999999          0.0000000000000000     
 -0.10130000000000000         -1.2561686728677473E-037
 -0.10020000000000000         -9.1137582260431165E-037
  -9.9099999999999994E-002    -2.3462215066897174E-036
  -9.7999999999999990E-002     1.9198009581680217E-036
  -9.6899999999999986E-002     2.9387470695068130E-035
  -9.5799999999999996E-002     6.0211696248091013E-035
  -9.4699999999999993E-002    -1.6203721265054828E-034
  -9.3599999999999989E-002    -1.3350122403067336E-033
  -9.2499999999999999E-002    -3.6757969163022019E-033
  -9.1399999999999995E-002    -2.6738868979108800E-033
  -9.0299999999999991E-002     1.7451846105736563E-032
  -8.9200000000000002E-002     7.6683103612191236E-032
  -8.8099999999999984E-002     1.4050159704898336E-031
  -8.6999999999999994E-002    -1.0105325265939926E-032
  -8.5899999999999990E-002    -8.4245319730776895E-031
  -8.4799999999999986E-002    -2.6070606479768557E-030
  -8.3699999999999997E-002    -3.7403978217176372E-030
  -8.2599999999999993E-002     1.4318382595275744E-030
  -8.1499999999999989E-002     2.2024236694407589E-029
  -8.0399999999999999E-002     5.9187516550569475E-029
  -7.9299999999999995E-002     7.8280391573122471E-029
  -7.8199999999999992E-002    -2.0630236563597955E-029
  -7.7100000000000002E-002    -3.7575295252870862E-028
  -7.5999999999999984E-002    -9.8580833096749771E-028
  -7.4899999999999994E-002    -1.3461089938475285E-027
  -7.3799999999999991E-002    -1.2568050667737507E-028
  -7.2699999999999987E-002     4.4394033369086857E-027
  -7.1599999999999997E-002     1.2504579335304292E-026
  -7.0499999999999993E-002     1.8751302295045182E-026
  -6.9399999999999989E-002     9.0904008930874195E-027
  -6.8300000000000000E-002    -3.5798859168551372E-026
  -6.7199999999999996E-002    -1.2205716916170983E-025
  -6.6099999999999992E-002    -2.0804406786264151E-025
  -6.5000000000000002E-002    -1.7275543529942094E-025
  -6.3899999999999985E-002     1.6408722213167451E-025
  -6.2799999999999995E-002     9.0808243990319485E-025
  -6.1699999999999991E-002     1.8256755840949605E-024
  -6.0599999999999994E-002     2.0711211744997472E-024
  -5.9499999999999990E-002     2.2729626755836688E-025
  -5.8399999999999994E-002    -4.9068051550483412E-024
  -5.7299999999999990E-002    -1.2588815086055150E-023
  -5.6199999999999986E-002    -1.8075272473246722E-023
  -5.5099999999999996E-002    -1.2066769815946136E-023
  -5.3999999999999992E-002     1.5660504555770977E-023
  -5.2899999999999989E-002     6.6685012403875736E-023
  -5.1799999999999985E-002     1.2066181641255203E-022
  -5.0699999999999995E-002     1.2722317014717141E-022
  -4.9599999999999991E-002     1.7705863110828016E-023
  -4.8499999999999988E-002    -2.5061878718221048E-022
  -4.7399999999999998E-002    -6.2183635763520221E-022
  -4.6299999999999994E-002    -8.7613835531655132E-022
  -4.5199999999999990E-002    -6.4157701487584454E-022
  -4.4099999999999986E-002     4.4188342742010236E-022
  -4.2999999999999997E-002     2.3876210932689770E-021
  -4.1899999999999993E-002     4.4715437132120335E-021
  -4.0799999999999989E-002     5.0679748621925782E-021
  -3.9699999999999985E-002     2.0859768389838010E-021
  -3.8599999999999995E-002    -5.7598419743464285E-021
  -3.7499999999999992E-002    -1.7081828948845545E-020
  -3.6399999999999988E-002    -2.6312839851923421E-020
  -3.5299999999999984E-002    -2.4120712677842731E-020
  -3.4199999999999994E-002    -1.1928784538324283E-021
  -3.3099999999999991E-002     4.4522220988842446E-020
  -3.1999999999999987E-002     9.9649828008803829E-020
  -3.0899999999999997E-002     1.3173301034365041E-019
  -2.9799999999999993E-002     9.6704470492049778E-020
  -2.8699999999999989E-002    -3.8723684894845722E-020
  -2.7599999999999986E-002    -2.6389364721459660E-019
  -2.6499999999999996E-002    -4.9557734666547287E-019
  -2.5399999999999992E-002    -5.7797415165037535E-019
  -2.4299999999999988E-002    -3.3361538272759005E-019
  -2.3199999999999985E-002     3.3143847599989776E-019
  -2.2099999999999995E-002     1.2998827963662294E-018
  -2.0999999999999991E-002     2.1632989862303316E-018
  -1.9899999999999987E-002     2.2784206072114804E-018
  -1.8799999999999983E-002     1.0186886407906921E-018
  -1.7699999999999994E-002    -1.8081808366842724E-018
  -1.6599999999999990E-002    -5.5342696726692015E-018
  -1.5499999999999986E-002    -8.4649577616450840E-018
  -1.4399999999999996E-002    -8.2484324829613658E-018
  -1.3299999999999992E-002    -2.8960312892614420E-018
  -1.2199999999999989E-002     7.7664020799828271E-018
  -1.1099999999999985E-002     2.0838108998309259E-017
  -9.9999999999999950E-003     3.0155875082245488E-017
  -8.8999999999999913E-003     2.7936741404667827E-017
  -7.7999999999999875E-003     8.3552372164736002E-018
  -6.6999999999999837E-003    -2.7926318928949659E-017
  -5.5999999999999939E-003    -7.0366044483289323E-017
  -4.4999999999999901E-003    -9.8875995582676797E-017
  -3.3999999999999864E-003    -8.9732407265964633E-017
  -2.2999999999999826E-003    -2.6733509596397167E-017
  -1.1999999999999927E-003     8.5844056199479464E-017
  -9.9999999999988987E-005     2.1470552765821583E-016
   1.0000000000000148E-003     3.0032357826201110E-016
   2.1000000000000185E-003     2.7519502239273220E-016
   3.2000000000000084E-003     9.5379900180109174E-017
   4.3000000000000121E-003    -2.2499323249354193E-016
   5.4000000000000159E-003    -5.9293936846224488E-016
   6.5000000000000058E-003    -8.4667110536714514E-016
   7.6000000000000234E-003    -8.0531752751409171E-016
   8.7000000000000133E-003    -3.5067598120713502E-016
   9.8000000000000032E-003     4.8616790084552493E-016
   1.0900000000000021E-002     1.4744115106816026E-015
   1.2000000000000011E-002     2.2093295888505476E-015
   1.3100000000000001E-002     2.2330128418140147E-015
   1.4200000000000018E-002     1.2299396967747640E-015
   1.5300000000000008E-002    -7.6662770946147544E-016
   1.6400000000000026E-002    -3.2509425212316322E-015
   1.7500000000000016E-002    -5.2930216429985556E-015
   1.8600000000000005E-002    -5.8001902434635932E-015
   1.9700000000000023E-002    -3.9492538471234961E-015
   2.0800000000000013E-002     3.4643594603141680E-016
   2.1900000000000003E-002     6.1328895385520318E-015
   2.3000000000000020E-002     1.1465047491845525E-014
   2.4100000000000010E-002     1.3905780552655317E-014
   2.5200000000000000E-002     1.1403054844501877E-014
   2.6300000000000018E-002     3.2874132188415606E-015
   2.7400000000000008E-002    -8.9981224782407360E-015
   2.8500000000000025E-002    -2.1824661083349670E-014
   2.9600000000000015E-002    -3.0185567451634573E-014
   3.0700000000000005E-002    -2.9307604249278335E-014
   3.1800000000000023E-002    -1.6634639493770184E-014
   3.2900000000000013E-002     6.5132268136269995E-015
   3.4000000000000002E-002     3.4352945835203208E-014
   3.5100000000000020E-002     5.7635259141219225E-014
   3.6200000000000010E-002     6.6240266852375662E-014
   3.7300000000000028E-002     5.2771026751944478E-014
   3.8400000000000017E-002     1.6023740697485543E-014
   3.9500000000000007E-002    -3.6992669805212611E-014
   4.0600000000000025E-002    -9.1563353578870410E-014
   4.1700000000000015E-002    -1.2867591920370097E-013
   4.2800000000000005E-002    -1.3073271848754175E-013
   4.3900000000000022E-002    -8.8030900928168232E-014
   4.5000000000000012E-002    -3.9122469776579558E-015
   4.6100000000000002E-002     1.0344309230806564E-013
   4.7200000000000020E-002     2.0382915461806400E-013
   4.8300000000000010E-002     2.6236800817862338E-013
   4.9400000000000027E-002     2.4984902384853069E-013
   5.0500000000000017E-002     1.5329286505525591E-013
   5.1600000000000007E-002    -1.6526375130583928E-014
   5.2700000000000025E-002    -2.2344440479740019E-013
   5.3800000000000014E-002    -4.1167655222273947E-013
   5.4900000000000004E-002    -5.1858718057642972E-013
   5.6000000000000022E-002    -4.9199457442111738E-013
   5.7100000000000012E-002    -3.0789265451428016E-013
   5.8200000000000002E-002     1.6318699592576119E-014
   5.9300000000000019E-002     4.1764383834977381E-013
   6.0400000000000009E-002     7.9532891774161674E-013
   6.1500000000000027E-002     1.0311330782275530E-012
   6.2600000000000017E-002     1.0192493550553738E-012
   6.3700000000000007E-002     6.9990221300900157E-013
   6.4800000000000024E-002     8.8205335505193994E-014
   6.5900000000000014E-002    -7.1101729105099709E-013
   6.7000000000000004E-002    -1.5103698456850334E-012
   6.8100000000000022E-002    -2.0729156238741275E-012
   6.9200000000000012E-002    -2.1686985974406214E-012
   7.0300000000000029E-002    -1.6447298167507340E-012
   7.1400000000000019E-002    -4.9141317100612203E-013
   7.2500000000000009E-002     1.1156056547306781E-012
   7.3600000000000027E-002     2.8178767912806491E-012
   7.4700000000000016E-002     4.1326612271186391E-012
   7.5800000000000006E-002     4.5652552918551415E-012
   7.6900000000000024E-002     3.7553744836049674E-012
   7.8000000000000014E-002     1.6216041096722700E-012
   7.9100000000000004E-002    -1.5413141683101594E-012
   8.0200000000000021E-002    -5.0549013759504380E-012
   8.1300000000000011E-002    -7.9645691083984893E-012
   8.2400000000000029E-002    -9.2583839900184373E-012
   8.3500000000000019E-002    -8.1571442309136266E-012
   8.4600000000000009E-002    -4.4040756284891014E-012
   8.5700000000000026E-002     1.5344578906117956E-012
   8.6800000000000016E-002     8.4388928137113517E-012
   8.7900000000000006E-002     1.4524831858098164E-011
   8.9000000000000024E-002     1.7841575439270230E-011
   9.0100000000000013E-002     1.6807156361098308E-011
   9.1200000000000003E-002     1.0749738772741768E-011
   9.2300000000000021E-002     2.9677757647228464E-013
   9.3400000000000011E-002    -1.2533186294350074E-011
   9.4500000000000028E-002    -2.4621979802241789E-011
   9.5600000000000018E-002    -3.2416840045623729E-011
   9.6700000000000008E-002    -3.2849344772101219E-011
   9.7800000000000026E-002    -2.4293712874712270E-011
   9.8900000000000016E-002    -7.3003634387669436E-012
  0.10000000000000001          1.5142113257704537E-011
  0.10110000000000002          3.7973582611705581E-011
  0.10220000000000001          5.5066177312435016E-011
  0.10330000000000003          6.0699251180906799E-011
  0.10440000000000002          5.1182991872567030E-011
  0.10550000000000001          2.6215259130157875E-011
  0.10660000000000003         -1.0438368919230001E-011
  0.10770000000000002         -5.1235016229611574E-011
  0.10880000000000001         -8.6196765003432319E-011
  0.10990000000000003         -1.0512030135245709E-010
  0.11100000000000002         -1.0021213026067954E-010
  0.11210000000000001         -6.8527857000066916E-011
  0.11320000000000002         -1.3548739387359010E-011
  0.11430000000000001          5.4649864494882294E-011
  0.11540000000000003          1.2090346779292105E-010
  0.11650000000000002          1.6801179891778872E-010
  0.11760000000000001          1.8079890362621143E-010
  0.11870000000000003          1.5029827382662120E-010
  0.11980000000000002          7.7015276100933505E-011
  0.12090000000000001         -2.7703639729481644E-011
  0.12200000000000003         -1.4282983129554339E-010
  0.12310000000000001         -2.4142740584487399E-010
  0.12420000000000003         -2.9648208887955718E-010
  0.12530000000000002         -2.8761951154088194E-010
  0.12640000000000001         -2.0715569537532730E-010
  0.12750000000000003         -6.3866884003616065E-011
  0.12860000000000002          1.1678655265079385E-010
  0.12970000000000001          2.9653338118329486E-010
  0.13080000000000003          4.3186068610090445E-010
  0.13190000000000002          4.8390053075664241E-010
  0.13300000000000001          4.2849654380283653E-010
  0.13410000000000000          2.6399704644575195E-010
  0.13520000000000004          1.4575739920585917E-011
  0.13630000000000003         -2.7227878285351892E-010
  0.13740000000000002         -5.3419113577035660E-010
  0.13850000000000001         -7.0689271103319129E-010
  0.13960000000000000         -7.3916522902450765E-010
  0.14070000000000005         -6.0636745624620403E-010
  0.14180000000000004         -3.1917252174551436E-010
  0.14290000000000003          7.5044970238025144E-011
  0.14400000000000002          4.9922593836626561E-010
  0.14510000000000001          8.6120988118665309E-010
  0.14620000000000000          1.0731933119956238E-009
  0.14730000000000004          1.0720098142513734E-009
  0.14840000000000003          8.3565732111878788E-010
  0.14950000000000002          3.9200825918683790E-010
  0.15060000000000001         -1.8288309755476462E-010
  0.15170000000000000         -7.7729478409338526E-010
  0.15280000000000005         -1.2651966141419280E-009
  0.15390000000000004         -1.5323855517834772E-009
  0.15500000000000003         -1.5020211741045841E-009
  0.15610000000000002         -1.1539913469249541E-009
  0.15720000000000001         -5.3354354268009274E-010
  0.15830000000000000          2.5334170872248762E-010
  0.15940000000000004          1.0576830522524006E-009
  0.16050000000000003          1.7154108133965451E-009
  0.16160000000000002          2.0802488620574877E-009
  0.16270000000000001          2.0550399160157440E-009
  0.16380000000000000          1.6149603876414176E-009
  0.16490000000000005          8.1739520707557745E-010
  0.16600000000000004         -2.0431689673472420E-010
  0.16710000000000003         -1.2629075563097558E-009
  0.16820000000000002         -2.1513948400553318E-009
  0.16930000000000001         -2.6832451816005687E-009
  0.17040000000000000         -2.7307094363493434E-009
  0.17150000000000004         -2.2535195931538965E-009
  0.17260000000000003         -1.3116985275729576E-009
  0.17370000000000002         -5.9135307761692957E-011
  0.17480000000000001          1.2816934180648332E-009
  0.17590000000000000          2.4596535919130247E-009
  0.17700000000000005          3.2422244888863361E-009
  0.17810000000000004          3.4610598831363859E-009
  0.17920000000000003          3.0468463307897764E-009
  0.18030000000000002          2.0463664096581624E-009
  0.18140000000000001          6.1801164186192636E-010
  0.18250000000000000         -9.9384256380119496E-010
  0.18360000000000004         -2.5011415161202422E-009
  0.18470000000000003         -3.6234961697800827E-009
  0.18580000000000002         -4.1392969052367334E-009
  0.18690000000000001         -3.9274548058187975E-009
  0.18800000000000000         -2.9924041022866277E-009
  0.18910000000000005         -1.4679892856861443E-009
  0.19020000000000004          4.0061376438416119E-010
  0.19130000000000003          2.2943269506470187E-009
  0.19240000000000002          3.8714476069401371E-009
  0.19350000000000001          4.8252437601092879E-009
  0.19460000000000005          4.9392743228793279E-009
  0.19570000000000004          4.1317345100821967E-009
  0.19680000000000003          2.4809692078520129E-009
  0.19790000000000002          2.2616630790395220E-010
  0.19900000000000001         -2.2598014570718306E-009
  0.20010000000000000         -4.5243959689855728E-009
  0.20120000000000005         -6.1104530324485040E-009
  0.20230000000000004         -6.6414544974691125E-009
  0.20340000000000003         -5.9022213783066491E-009
  0.20450000000000002         -3.8984069306025049E-009
  0.20560000000000000         -8.7967327866422806E-010
  0.20670000000000005          2.6832145394450890E-009
  0.20780000000000004          6.1684293228836395E-009
  0.20890000000000003          8.9107947687239175E-009
  0.21000000000000002          1.0327844357505001E-008
  0.21110000000000001          1.0038460729333565E-008
  0.21220000000000000          7.9476221159779925E-009
  0.21330000000000005          4.2766972185859231E-009
  0.21440000000000003         -4.6949677479091179E-010
  0.21550000000000002         -5.5927538156197443E-009
  0.21660000000000001         -1.0328408350801510E-008
  0.21770000000000000         -1.3979559732035796E-008
  0.21880000000000005         -1.6027433602516794E-008
  0.21990000000000004         -1.6193755669746679E-008
  0.22100000000000003         -1.4444822227233090E-008
  0.22210000000000002         -1.0943708161903487E-008
  0.22320000000000001         -5.9715636879786871E-009
  0.22430000000000000          1.5324874702571378E-010
  0.22540000000000004          7.1308554616678066E-009
  0.22650000000000003          1.4693305239177334E-008
  0.22760000000000002          2.2574177194201184E-008
  0.22870000000000001          3.0448038756958340E-008
  0.22980000000000000          3.7863046031816339E-008
  0.23090000000000005          4.4190159087520442E-008
  0.23200000000000004          4.8602636582018022E-008
  0.23310000000000003          5.0083254876653882E-008
  0.23420000000000002          4.7439996819775843E-008
  0.23530000000000001          3.9300505960682131E-008
  0.23640000000000000          2.4056513225900744E-008
  0.23750000000000004         -2.5806246028992064E-010
  0.23860000000000003         -3.6150282767266617E-008
  0.23970000000000002         -8.6885897587762884E-008
  0.24080000000000001         -1.5670002539991401E-007
  0.24190000000000000         -2.5096113631661865E-007
  0.24300000000000005         -3.7626716675731586E-007
  0.24410000000000004         -5.4048581432653009E-007
  0.24520000000000003         -7.5278728672856232E-007
  0.24630000000000002         -1.0237473588858848E-006
  0.24740000000000001         -1.3656105011250474E-006
  0.24850000000000005         -1.7927849285115371E-006
  0.24960000000000004         -2.3226068606163608E-006
  0.25070000000000003         -2.9763557449768996E-006
  0.25180000000000002         -3.7804632029292407E-006
  0.25290000000000001         -4.7678227019787300E-006
  0.25400000000000000         -5.9791145758936182E-006
  0.25510000000000005         -7.4640929597080685E-006
  0.25620000000000004         -9.2828486231155694E-006
  0.25730000000000003         -1.1507114322739653E-005
  0.25840000000000002         -1.4221746823750436E-005
  0.25950000000000001         -1.7526521332911216E-005
  0.26060000000000005         -2.1538377040997148E-005
  0.26170000000000004         -2.6394167434773408E-005
  0.26280000000000003         -3.2253916288027540E-005
  0.26390000000000002         -3.9304515667026863E-005
  0.26500000000000001         -4.7763685870449990E-005
  0.26610000000000000         -5.7884168199962005E-005
  0.26720000000000005         -6.9957975938450545E-005
  0.26830000000000004         -8.4320803580339998E-005
  0.26940000000000003         -1.0135662159882486E-004
  0.27050000000000002         -1.2150251859566197E-004
  0.27160000000000001         -1.4525397273246199E-004
  0.27270000000000005         -1.7317058518528938E-004
  0.27380000000000004         -2.0588221377693117E-004
  0.27490000000000003         -2.4409529578406364E-004
  0.27600000000000002         -2.8859925805591047E-004
  0.27710000000000001         -3.4027238143607974E-004
  0.27820000000000000         -4.0008701034821570E-004
  0.27930000000000005         -4.6911407844163477E-004
  0.28040000000000004         -5.4852635366842151E-004
  0.28150000000000003         -6.3960067927837372E-004
  0.28260000000000002         -7.4371887603774667E-004
  0.28370000000000001         -8.6236762581393123E-004
  0.28480000000000005         -9.9713657982647419E-004
  0.28590000000000004         -1.1497148079797626E-003
  0.28700000000000003         -1.3218848034739494E-003
  0.28810000000000002         -1.5155138680711389E-003
  0.28920000000000001         -1.7325427616015077E-003
  0.29030000000000000         -1.9749691709876060E-003
  0.29140000000000005         -2.2448280360549688E-003
  0.29250000000000004         -2.5441686157137156E-003
  0.29360000000000003         -2.8750246856361628E-003
  0.29470000000000002         -3.2393846195191145E-003
  0.29580000000000001         -3.6391536705195904E-003
  0.29690000000000005         -4.0761157870292664E-003
  0.29800000000000004         -4.5518907718360424E-003
  0.29910000000000003         -5.0678867846727371E-003
  0.30020000000000002         -5.6252507492899895E-003
  0.30130000000000001         -6.2248134054243565E-003
  0.30240000000000000         -6.8670334294438362E-003
  0.30350000000000005         -7.5519382953643799E-003
  0.30460000000000004         -8.2790637388825417E-003
  0.30570000000000003         -9.0473946183919907E-003
  0.30680000000000002         -9.8553067073225975E-003
  0.30790000000000001         -1.0700509883463383E-002
  0.30900000000000005         -1.1580003425478935E-002
  0.31010000000000004         -1.2490026652812958E-002
  0.31120000000000003         -1.3426024466753006E-002
  0.31230000000000002         -1.4382619410753250E-002
  0.31340000000000001         -1.5353588387370110E-002
  0.31450000000000006         -1.6331862658262253E-002
  0.31560000000000005         -1.7309533432126045E-002
  0.31670000000000004         -1.8277868628501892E-002
  0.31780000000000003         -1.9227350130677223E-002
  0.31890000000000002         -2.0147729665040970E-002
  0.32000000000000001         -2.1028097718954086E-002
  0.32110000000000005         -2.1856971085071564E-002
  0.32220000000000004         -2.2622397169470787E-002
  0.32330000000000003         -2.3312080651521683E-002
  0.32440000000000002         -2.3913528770208359E-002
  0.32550000000000001         -2.4414194747805595E-002
  0.32660000000000006         -2.4801656603813171E-002
  0.32770000000000005         -2.5063794106245041E-002
  0.32880000000000004         -2.5188973173499107E-002
  0.32990000000000003         -2.5166241452097893E-002
  0.33100000000000002         -2.4985523894429207E-002
  0.33210000000000001         -2.4637823924422264E-002
  0.33320000000000005         -2.4115417152643204E-002
  0.33430000000000004         -2.3412043228745461E-002
  0.33540000000000003         -2.2523073479533195E-002
  0.33650000000000002         -2.1445682272315025E-002
  0.33760000000000001         -2.0178975537419319E-002
  0.33870000000000006         -1.8724108114838600E-002
  0.33980000000000005         -1.7084376886487007E-002
  0.34090000000000004         -1.5265268273651600E-002
  0.34200000000000003         -1.3274494558572769E-002
  0.34310000000000002         -1.1121988296508789E-002
  0.34420000000000001         -8.8198585435748100E-003
  0.34530000000000005         -6.3823130913078785E-003
  0.34640000000000004         -3.8255478721112013E-003
  0.34750000000000003         -1.1675931746140122E-003
  0.34860000000000002          1.5718704089522362E-003
  0.34970000000000001          4.3717287480831146E-003
  0.35080000000000006          7.2096749208867550E-003
  0.35190000000000005          1.0062479414045811E-002
  0.35300000000000004          1.2906278483569622E-002
  0.35410000000000003          1.5716876834630966E-002
  0.35520000000000002          1.8470060080289841E-002
  0.35630000000000001          2.1141925826668739E-002
  0.35740000000000005          2.3709196597337723E-002
  0.35850000000000004          2.6149537414312363E-002
  0.35960000000000003          2.8441864997148514E-002
  0.36070000000000002          3.0566625297069550E-002
  0.36180000000000001          3.2506044954061508E-002
  0.36290000000000006          3.4244380891323090E-002
  0.36400000000000005          3.5768095403909683E-002
  0.36510000000000004          3.7066046148538589E-002
  0.36620000000000003          3.8129597902297974E-002
  0.36730000000000002          3.8952719420194626E-002
  0.36840000000000006          3.9532028138637543E-002
  0.36950000000000005          3.9866808801889420E-002
  0.37060000000000004          3.9958961308002472E-002
  0.37170000000000003          3.9812941104173660E-002
  0.37280000000000002          3.9435625076293945E-002
  0.37390000000000001          3.8836177438497543E-002
  0.37500000000000006          3.8025848567485809E-002
  0.37610000000000005          3.7017796188592911E-002
  0.37720000000000004          3.5826839506626129E-002
  0.37830000000000003          3.4469220787286758E-002
  0.37940000000000002          3.2962344586849213E-002
  0.38050000000000006          3.1324494630098343E-002
  0.38160000000000005          2.9574574902653694E-002
  0.38270000000000004          2.7731832116842270E-002
  0.38380000000000003          2.5815598666667938E-002
  0.38490000000000002          2.3845031857490540E-002
  0.38600000000000001          2.1838879212737083E-002
  0.38710000000000000          1.9815262407064438E-002
  0.38819999999999999          1.7791487276554108E-002
  0.38930000000000009          1.5783866867423058E-002
  0.39040000000000008          1.3807574287056923E-002
  0.39150000000000007          1.1876519769430161E-002
  0.39260000000000006          1.0003253817558289E-002
  0.39370000000000005          8.1988964229822159E-003
  0.39480000000000004          6.4730895683169365E-003
  0.39590000000000003          4.8339869827032089E-003
  0.39700000000000002          3.2882580999284983E-003
  0.39810000000000001          1.8411207711324096E-003
  0.39920000000000000          4.9638998461887240E-004
  0.40029999999999999         -7.4345787288621068E-004
  0.40140000000000009         -1.8772069597616792E-003
  0.40250000000000008         -2.9048116412013769E-003
  0.40360000000000007         -3.8272989913821220E-003
  0.40470000000000006         -4.6466579660773277E-003
  0.40580000000000005         -5.3657302632927895E-003
  0.40690000000000004         -5.9880912303924561E-003
  0.40800000000000003         -6.5179383382201195E-003
  0.40910000000000002         -6.9599794223904610E-003
  0.41020000000000001         -7.3193283751606941E-003
  0.41130000000000000         -7.6014073565602303E-003
  0.41239999999999999         -7.8118545934557915E-003
  0.41350000000000009         -7.9564368352293968E-003
  0.41460000000000008         -8.0409655347466469E-003
  0.41570000000000007         -8.0712223425507545E-003
  0.41680000000000006         -8.0528920516371727E-003
  0.41790000000000005         -7.9915029928088188E-003
  0.41900000000000004         -7.8923841938376427E-003
  0.42010000000000003         -7.7606281265616417E-003
  0.42120000000000002         -7.6010641641914845E-003
  0.42230000000000001         -7.4182399548590183E-003
  0.42340000000000000         -7.2164065204560757E-003
  0.42449999999999999         -6.9995038211345673E-003
  0.42560000000000009         -6.7711547017097473E-003
  0.42670000000000008         -6.5346574410796165E-003
  0.42780000000000007         -6.2929838895797729E-003
  0.42890000000000006         -6.0487855225801468E-003
  0.43000000000000005         -5.8043999597430229E-003
  0.43110000000000004         -5.5618654005229473E-003
  0.43220000000000003         -5.3229350596666336E-003
  0.43330000000000002         -5.0890967249870300E-003
  0.43440000000000001         -4.8615867272019386E-003
  0.43550000000000000         -4.6414108946919441E-003
  0.43659999999999999         -4.4293575920164585E-003
  0.43770000000000009         -4.2260140180587769E-003
  0.43880000000000008         -4.0317815728485584E-003
  0.43990000000000007         -3.8468907587230206E-003
  0.44100000000000006         -3.6714198067784309E-003
  0.44210000000000005         -3.5053133033216000E-003
  0.44320000000000004         -3.3484015148133039E-003
  0.44430000000000003         -3.2004187814891338E-003
  0.44540000000000002         -3.0610214453190565E-003
  0.44650000000000001         -2.9298025183379650E-003
  0.44760000000000000         -2.8063065838068724E-003
  0.44869999999999999         -2.6900444645434618E-003
  0.44980000000000009         -2.5805074255913496E-003
  0.45090000000000008         -2.4771818425506353E-003
  0.45200000000000007         -2.3795622400939465E-003
  0.45310000000000006         -2.2871617693454027E-003
  0.45420000000000005         -2.1995194256305695E-003
  0.45530000000000004         -2.1162058692425489E-003
  0.45640000000000003         -2.0368266850709915E-003
  0.45750000000000002         -1.9610265735536814E-003
  0.45860000000000001         -1.8884919118136168E-003
  0.45970000000000000         -1.8189565744251013E-003
  0.46079999999999999         -1.7522044945508242E-003
  0.46190000000000009         -1.6880711773410439E-003
  0.46300000000000008         -1.6264426521956921E-003
  0.46410000000000007         -1.5672504669055343E-003
  0.46520000000000006         -1.5104647027328610E-003
  0.46630000000000005         -1.4560847776010633E-003
  0.46740000000000004         -1.4041307149454951E-003
  0.46850000000000003         -1.3546351110562682E-003
  0.46960000000000002         -1.3076363829895854E-003
  0.47070000000000001         -1.2631721328943968E-003
  0.47180000000000000         -1.2212736764922738E-003
  0.47289999999999999         -1.1819606879726052E-003
  0.47400000000000009         -1.1452350299805403E-003
  0.47510000000000008         -1.1110765626654029E-003
  0.47620000000000007         -1.0794384870678186E-003
  0.47730000000000006         -1.0502457153052092E-003
  0.47840000000000005         -1.0233941720798612E-003