 -0.119999997         0.00000000    
 -0.119000003         0.00000000    
 -0.118000001         0.00000000    
 -0.116999999         0.00000000    
 -0.115999997         0.00000000    
 -0.115000002         0.00000000    
 -0.114000000         0.00000000    
 -0.112999998         0.00000000    
 -0.112000003         0.00000000    
 -0.111000001         0.00000000    
 -0.109999999         0.00000000    
 -0.108999997         0.00000000    
 -0.108000003         0.00000000    
 -0.107000001         0.00000000    
 -0.105999999         0.00000000    
 -0.104999997         0.00000000    
 -0.104000002         0.00000000    
 -0.103000000         0.00000000    
 -0.101999998         0.00000000    
 -0.101000004         0.00000000    
 -0.100000001         0.00000000    
  -9.89999995E-02     0.00000000    
  -9.79999974E-02     0.00000000    
  -9.70000029E-02     0.00000000    
  -9.60000008E-02     0.00000000    
  -9.49999988E-02     0.00000000    
  -9.39999968E-02     0.00000000    
  -9.30000022E-02     0.00000000    
  -9.20000002E-02     0.00000000    
  -9.09999982E-02     0.00000000    
  -9.00000036E-02     0.00000000    
  -8.90000015E-02     0.00000000    
  -8.79999995E-02     0.00000000    
  -8.69999975E-02     0.00000000    
  -8.60000029E-02     0.00000000    
  -8.50000009E-02     0.00000000    
  -8.39999989E-02     0.00000000    
  -8.29999968E-02     0.00000000    
  -8.20000023E-02     0.00000000    
  -8.10000002E-02     0.00000000    
  -7.99999982E-02     0.00000000    
  -7.90000036E-02     0.00000000    
  -7.80000016E-02     0.00000000    
  -7.69999996E-02     0.00000000    
  -7.59999976E-02     0.00000000    
  -7.50000030E-02     0.00000000    
  -7.40000010E-02     0.00000000    
  -7.29999989E-02     0.00000000    
  -7.19999969E-02    -0.00000000    
  -7.10000023E-02    -0.00000000    
  -7.00000003E-02    -0.00000000    
  -6.89999983E-02     0.00000000    
  -6.80000037E-02     1.37615539E-38
  -6.70000017E-02     0.00000000    
  -6.59999996E-02    -6.03014602E-38
  -6.49999976E-02    -2.07455063E-37
  -6.40000030E-02    -3.58658553E-37
  -6.30000010E-02    -2.45522961E-37
  -6.19999990E-02     5.80718666E-37
  -6.10000007E-02     2.42039194E-36
  -5.99999987E-02     4.66233711E-36
  -5.90000004E-02     4.80165838E-36
  -5.79999983E-02    -1.67306678E-36
  -5.70000000E-02    -1.87061645E-35
  -5.60000017E-02    -4.30878487E-35
  -5.49999997E-02    -5.55356509E-35
  -5.40000014E-02    -1.75669538E-35
  -5.29999994E-02     1.11485216E-34
  -5.20000011E-02     3.24982380E-34
  -5.09999990E-02     4.96319383E-34
  -5.00000007E-02     3.37577343E-34
  -4.89999987E-02    -5.07046182E-34
  -4.80000004E-02    -2.13209696E-33
  -4.69999984E-02    -3.83559986E-33
  -4.60000001E-02    -3.70189509E-33
  -4.50000018E-02     1.02116728E-33
  -4.39999998E-02     1.19946026E-32
  -4.30000015E-02     2.62320381E-32
  -4.19999994E-02     3.25747910E-32
  -4.10000011E-02     1.21836463E-32
  -3.99999991E-02    -5.18236198E-32
  -3.90000008E-02    -1.53344402E-31
  -3.79999988E-02    -2.37793997E-31
  -3.70000005E-02    -1.92999598E-31
  -3.59999985E-02     1.12381433E-31
  -3.50000001E-02     7.20436037E-31
  -3.40000018E-02     1.42545119E-30
  -3.29999998E-02     1.66005475E-30
  -3.20000015E-02     5.93314787E-31
  -3.09999995E-02    -2.39580475E-30
  -2.99999993E-02    -6.87223639E-30
  -2.89999992E-02    -1.04851433E-29
  -2.80000009E-02    -8.88154631E-30
  -2.70000007E-02     2.64120095E-30
  -2.60000005E-02     2.52879808E-29
  -2.50000004E-02     5.17489853E-29
  -2.40000002E-02     6.31991263E-29
  -2.30000000E-02     3.31292481E-29
  -2.19999999E-02    -5.80667397E-29
  -2.09999997E-02    -1.99047821E-28
  -1.99999996E-02    -3.24752474E-28
  -1.89999994E-02    -3.15394645E-28
  -1.79999992E-02    -3.99058492E-29
  -1.70000009E-02     5.48116436E-28
  -1.60000008E-02     1.28926305E-27
  -1.49999997E-02     1.74593427E-27
  -1.40000004E-02     1.28314322E-27
  -1.30000003E-02    -6.18338924E-28
  -1.20000001E-02    -3.84871870E-27
  -1.09999999E-02    -7.17442724E-27
  -9.99999978E-03    -8.16180684E-27
  -8.99999961E-03    -3.94954537E-27
  -8.00000038E-03     6.97413668E-27
  -7.00000022E-03     2.24619160E-26
  -6.00000005E-03     3.51403267E-26
  -4.99999989E-03     3.33763228E-26
  -4.00000019E-03     6.17652744E-27
  -3.00000003E-03    -4.83268886E-26
  -2.00000009E-03    -1.14046693E-25
  -1.00000005E-03    -1.53851062E-25
   0.00000000        -1.18976224E-25
   1.00000005E-03     2.59407664E-26
   2.00000009E-03     2.67750879E-25
   3.00000003E-03     5.16452296E-25
   4.00000019E-03     6.08421151E-25
   4.99999989E-03     3.62567449E-25
   6.00000005E-03    -3.09985037E-25
   7.00000022E-03    -1.27826853E-24
   8.00000038E-03    -2.11920087E-24
   8.99999961E-03    -2.18863542E-24
   9.99999978E-03    -8.89278856E-25
   1.09999999E-02     1.90502257E-24
   1.20000001E-02     5.44040882E-24
   1.30000003E-02     7.96757008E-24
   1.40000004E-02     7.19212849E-24
   1.49999997E-02     1.37585073E-24
   1.60000008E-02    -9.19106022E-24
   1.70000009E-02    -2.10457203E-23
   1.79999992E-02    -2.76735340E-23
   1.89999994E-02    -2.16215557E-23
   1.99999996E-02     1.47098104E-24
   2.09999997E-02     3.82497291E-23
   2.19999999E-02     7.49349198E-23
   2.30000000E-02     8.93572724E-23
   2.40000002E-02     5.93394489E-23
   2.50000004E-02    -2.39271294E-23
   2.60000005E-02    -1.42700899E-22
   2.70000007E-02    -2.47779797E-22
   2.80000009E-02    -2.69559905E-22
   2.89999992E-02    -1.47515879E-22
   2.99999993E-02     1.29093402E-22
   3.09999995E-02     4.87155612E-22
   3.20000015E-02     7.65982828E-22
   3.29999998E-02     7.62594589E-22
   3.40000018E-02     3.25904618E-22
   3.50000001E-02    -5.28903040E-22
   3.59999985E-02    -1.54130345E-21
   3.70000005E-02    -2.22549289E-21
   3.79999988E-02    -2.02902961E-21
   3.90000008E-02    -6.10032525E-22
   3.99999991E-02     1.86480357E-21
   4.10000011E-02     4.55945225E-21
   4.19999994E-02     6.10301288E-21
   4.30000015E-02     5.08763373E-21
   4.39999998E-02     8.26929742E-22
   4.50000018E-02    -5.92259743E-21
   4.60000001E-02    -1.26938369E-20
   4.69999984E-02    -1.58538955E-20
   4.80000004E-02    -1.20366347E-20
   4.89999987E-02    -8.38971811E-23
   5.00000007E-02     1.73328960E-20
   5.09999990E-02     3.34335094E-20
   5.20000011E-02     3.91351459E-20
   5.29999994E-02     2.68812260E-20
   5.40000014E-02    -4.68935798E-21
   5.49999997E-02    -4.73708436E-20
   5.60000017E-02    -8.36621910E-20
   5.70000000E-02    -9.20602391E-20
   5.79999983E-02    -5.66498908E-20
   5.90000004E-02     2.23085732E-20
   5.99999987E-02     1.21956110E-19
   6.10000007E-02     1.99607484E-19
   6.19999990E-02     2.06915301E-19
   6.30000010E-02     1.12518975E-19
   6.40000030E-02    -7.52787672E-20
   6.49999976E-02    -2.97521176E-19
   6.59999996E-02    -4.55390121E-19
   6.70000017E-02    -4.45413289E-19
   6.80000037E-02    -2.10121582E-19
   6.89999983E-02     2.16031038E-19
   7.00000003E-02     6.90574681E-19
   7.10000023E-02     9.95641011E-19
   7.19999969E-02     9.20101430E-19
   7.29999989E-02     3.67204654E-19
   7.40000010E-02    -5.57544755E-19
   7.50000030E-02    -1.52912288E-18
   7.59999976E-02    -2.08896978E-18
   7.69999996E-02    -1.82606179E-18
   7.80000016E-02    -5.94664588E-19
   7.90000036E-02     1.32712289E-18
   7.99999982E-02     3.23565138E-18
   8.10000002E-02     4.20804769E-18
   8.20000023E-02     3.48118506E-18
   8.29999968E-02     8.71610965E-19
   8.39999989E-02    -2.95629677E-18
   8.50000009E-02    -6.55136558E-18
   8.60000029E-02    -8.13593675E-18
   8.69999975E-02    -6.36151935E-18
   8.79999995E-02    -1.08108598E-18
   8.90000015E-02     6.23055309E-18
   9.00000036E-02     1.27129603E-17
   9.09999982E-02     1.50869852E-17
   9.20000002E-02     1.10943929E-17
   9.30000022E-02     8.51936371E-19
   9.39999968E-02    -1.25520423E-17
   9.49999988E-02    -2.37106773E-17
   9.60000008E-02    -2.68276527E-17
   9.70000029E-02    -1.83447716E-17
   9.79999974E-02     7.96728165E-19
   9.89999995E-02     2.44307612E-17
  0.100000001         4.27188692E-17
  0.101000004         4.58298790E-17
  0.101999998         2.85472338E-17
  0.103000000        -6.13811855E-18
  0.104000002        -4.63962330E-17
  0.104999997        -7.49164841E-17
  0.105999999        -7.56524896E-17
  0.107000001        -4.16074528E-17
  0.108000003         1.97402981E-17
  0.108999997         8.64738450E-17
  0.109999999         1.29008610E-16
  0.111000001         1.22014845E-16
  0.112000003         5.71337090E-17
  0.112999998        -4.92411321E-17
  0.114000000        -1.57850082E-16
  0.115000002        -2.19429404E-16
  0.115999997        -1.95059604E-16
  0.116999999        -7.62808888E-17
  0.118000001         1.04317130E-16
  0.119000003         2.78940734E-16
  0.119999997         3.67705261E-16
  0.120999999         3.12117718E-16
  0.122000001         1.05867975E-16
  0.123000003        -1.91567565E-16
  0.123999998        -4.68107517E-16
  0.125000000        -5.98386955E-16
  0.126000002        -4.96634263E-16
  0.127000004        -1.62007929E-16
  0.128000006         3.05252622E-16
  0.128999993         7.29372130E-16
  0.129999995         9.22351540E-16
  0.130999997         7.63532333E-16
  0.131999999         2.62942241E-16
  0.133000001        -4.22256909E-16
  0.134000003        -1.03300560E-15
  0.135000005        -1.30490741E-15
  0.136000007        -1.08123787E-15
  0.136999995        -3.94873102E-16
  0.137999997         5.21558896E-16
  0.138999999         1.31173820E-15
  0.140000001         1.63566477E-15
  0.141000003         1.31942333E-15
  0.142000005         4.48688122E-16
  0.143000007        -6.43295318E-16
  0.143999994        -1.50071633E-15
  0.144999996        -1.73950932E-15
  0.145999998        -1.22929839E-15
  0.147000000        -1.76266087E-16
  0.148000002         9.44502723E-16
  0.149000004         1.59371324E-15
  0.150000006         1.42792190E-15
  0.150999993         4.94197826E-16
  0.151999995        -7.47655071E-16
  0.152999997        -1.61357574E-15
  0.153999999        -1.53287838E-15
  0.155000001        -3.86243239E-16
  0.156000003         1.33387699E-15
  0.157000005         2.66350378E-15
  0.158000007         2.60226394E-15
  0.158999994         6.83226728E-16
  0.159999996        -2.59165104E-15
  0.160999998        -5.71875650E-15
  0.162000000        -6.69527960E-15
  0.163000003        -3.95313029E-15
  0.164000005         2.62585253E-15
  0.165000007         1.11037591E-14
  0.165999994         1.77204697E-14
  0.166999996         1.81173402E-14
  0.167999998         9.27309309E-15
  0.169000000        -8.53947955E-15
  0.170000002        -3.06760368E-14
  0.171000004        -4.86817075E-14
  0.172000006        -5.27363018E-14
  0.172999993        -3.54766841E-14
  0.173999995         4.03693827E-15
  0.174999997         5.78304901E-14
  0.175999999         1.09430396E-13
  0.177000001         1.37795455E-13
  0.178000003         1.24131120E-13
  0.179000005         5.96787769E-14
  0.180000007        -4.82327259E-14
  0.180999994        -1.74525311E-13
  0.181999996        -2.80688450E-13
  0.182999998        -3.24820330E-13
  0.184000000        -2.75059950E-13
  0.185000002        -1.22477874E-13
  0.186000004         1.10991057E-13
  0.187000006         3.73036942E-13
  0.187999994         5.91107024E-13
  0.188999996         6.90481363E-13
  0.189999998         6.15891019E-13
  0.191000000         3.50698799E-13
  0.192000002        -7.22073429E-14
  0.193000004        -5.71747890E-13
  0.194000006        -1.03297872E-12
  0.194999993        -1.33165852E-12
  0.195999995        -1.36347964E-12
  0.196999997        -1.07108517E-12
  0.197999999        -4.62519617E-13
  0.199000001         3.83117935E-13
  0.200000003         1.32408526E-12
  0.201000005         2.17681884E-12
  0.202000007         2.74543365E-12
  0.202999994         2.85529629E-12
  0.203999996         2.38624485E-12
  0.204999998         1.30176946E-12
  0.206000000        -3.28969274E-13
  0.207000002        -2.31943111E-12
  0.208000004        -4.36811915E-12
  0.209000006        -6.07970141E-12
  0.209999993        -7.00922523E-12
  0.210999995        -6.73162567E-12
  0.211999997        -4.93384283E-12
  0.213000000        -1.51931115E-12
  0.214000002         3.29424574E-12
  0.215000004         8.91056586E-12
  0.216000006         1.43544863E-11
  0.216999993         1.83618294E-11
  0.217999995         1.95723941E-11
  0.218999997         1.68159566E-11
  0.219999999         9.45205112E-12
  0.221000001        -2.30474927E-12
  0.222000003        -1.71624243E-11
  0.223000005        -3.27225712E-11
  0.224000007        -4.57129577E-11
  0.224999994        -5.25010278E-11
  0.225999996        -4.98391536E-11
  0.226999998        -3.57180674E-11
  0.228000000        -1.01442136E-11
  0.229000002         2.43687986E-11
  0.230000004         6.27792540E-11
  0.231000006         9.80710235E-11
  0.231999993         1.22361454E-10
  0.232999995         1.28400748E-10
  0.233999997         1.11177741E-10
  0.234999999         6.92814278E-11
  0.236000001         5.68706063E-12
  0.237000003        -7.22568741E-11
  0.238000005        -1.53687701E-10
  0.238999993        -2.25781879E-10
  0.239999995        -2.75685946E-10
  0.240999997        -2.92430163E-10
  0.241999999        -2.68466610E-10
  0.243000001        -2.00616246E-10
  0.244000003        -9.04142317E-11
  0.245000005         5.59672655E-11
  0.246000007         2.27937058E-10
  0.246999994         4.10603274E-10
  0.247999996         5.84738480E-10
  0.248999998         7.26815552E-10
  0.250000000         8.09606326E-10
  0.250999987         8.03964006E-10
  0.252000004         6.82305823E-10
  0.252999991         4.23930335E-10
  0.254000008         2.17038956E-11
  0.254999995        -5.11026610E-10
  0.256000012        -1.13498155E-09
  0.256999999        -1.78285098E-09
  0.257999986        -2.36216691E-09
  0.259000003        -2.76397372E-09
  0.259999990        -2.87696156E-09
  0.261000007        -2.60543453E-09
  0.261999995        -1.88839300E-09
  0.263000011        -7.16429804E-10
  0.263999999         8.56750171E-10
  0.264999986         2.71055334E-09
  0.266000003         4.66248817E-09
  0.266999990         6.48142784E-09
  0.268000007         7.90734234E-09
  0.268999994         8.67494521E-09
  0.270000011         8.53865334E-09
  0.270999998         7.29685601E-09
  0.272000015         4.81444040E-09
  0.273000002         1.04343945E-09
  0.273999989        -3.95785094E-09
  0.275000006        -1.00070965E-08
  0.275999993        -1.67820424E-08
  0.277000010        -2.38081057E-08
  0.277999997        -3.04517656E-08
  0.279000014        -3.59220920E-08
  0.280000001        -3.92815487E-08
  0.280999988        -3.94649362E-08
  0.282000005        -3.53023708E-08
  0.282999992        -2.55392223E-08
  0.284000009        -8.84405083E-09
  0.284999996         1.62045311E-08
  0.286000013         5.11591445E-08
  0.287000000         9.77763577E-08
  0.287999988         1.58119192E-07
  0.289000005         2.34683469E-07
  0.289999992         3.30539422E-07
  0.291000009         4.49480410E-07
  0.291999996         5.96173777E-07
  0.293000013         7.76315233E-07
  0.294000000         9.96794597E-07
  0.294999987         1.26588725E-06
  0.296000004         1.59348826E-06
  0.296999991         1.99140595E-06
  0.298000008         2.47372645E-06
  0.298999995         3.05725166E-06
  0.300000012         3.76201092E-06
  0.300999999         4.61182890E-06
  0.301999986         5.63494905E-06
  0.303000003         6.86469593E-06
  0.303999990         8.34018192E-06
  0.305000007         1.01070755E-05
  0.305999994         1.22184492E-05
  0.307000011         1.47357423E-05
  0.307999998         1.77298662E-05
  0.308999985         2.12824743E-05
  0.310000002         2.54874030E-05
  0.310999990         3.04522873E-05
  0.312000006         3.63003055E-05
  0.312999994         4.31720546E-05
  0.314000010         5.12275292E-05
  0.314999998         6.06481044E-05
  0.316000015         7.16386785E-05
  0.317000002         8.44297901E-05
  0.317999989         9.92798959E-05
  0.319000006         1.16477706E-04
  0.319999993         1.36344650E-04
  0.321000010         1.59237388E-04
  0.321999997         1.85550452E-04
  0.323000014         2.15718668E-04
  0.324000001         2.50219658E-04
  0.324999988         2.89575954E-04
  0.326000005         3.34356766E-04
  0.326999992         3.85179475E-04
  0.328000009         4.42710443E-04
  0.328999996         5.07665623E-04
  0.330000013         5.80810418E-04
  0.331000000         6.62958657E-04
  0.331999987         7.54971406E-04
  0.333000004         8.57754785E-04
  0.333999991         9.72256705E-04
  0.335000008         1.09946204E-03
  0.335999995         1.24038802E-03
  0.337000012         1.39607594E-03
  0.338000000         1.56758365E-03
  0.338999987         1.75597449E-03
  0.340000004         1.96230598E-03
  0.340999991         2.18761666E-03
  0.342000008         2.43291073E-03
  0.342999995         2.69914325E-03
  0.344000012         2.98719970E-03
  0.344999999         3.29787983E-03
  0.345999986         3.63187515E-03
  0.347000003         3.98974866E-03
  0.347999990         4.37190989E-03
  0.349000007         4.77859331E-03
  0.349999994         5.20983199E-03
  0.351000011         5.66543313E-03
  0.351999998         6.14495249E-03
  0.352999985         6.64767018E-03
  0.354000002         7.17256824E-03
  0.354999989         7.71830929E-03
  0.356000006         8.28321557E-03
  0.356999993         8.86525307E-03
  0.358000010         9.46201850E-03
  0.358999997         1.00707263E-02
  0.360000014         1.06882025E-02
  0.361000001         1.13108847E-02
  0.361999989         1.19348224E-02
  0.363000005         1.25556858E-02
  0.363999993         1.31687792E-02
  0.365000010         1.37690613E-02
  0.365999997         1.43511770E-02
  0.367000014         1.49094835E-02
  0.368000001         1.54380947E-02
  0.368999988         1.59309264E-02
  0.370000005         1.63817517E-02
  0.370999992         1.67842582E-02
  0.372000009         1.71321090E-02
  0.372999996         1.74190253E-02
  0.374000013         1.76388416E-02
  0.375000000         1.77855939E-02
  0.375999987         1.78536028E-02
  0.377000004         1.78375430E-02
  0.377999991         1.77325364E-02
  0.379000008         1.75342336E-02
  0.379999995         1.72388833E-02
  0.381000012         1.68434195E-02
  0.381999999         1.63455214E-02
  0.382999986         1.57436896E-02
  0.384000003         1.50372880E-02
  0.384999990         1.42266033E-02
  0.386000007         1.33128753E-02
  0.386999995         1.22983297E-02
  0.388000011         1.11861881E-02
  0.388999999         9.98067576E-03
  0.389999986         8.68701097E-03
  0.391000003         7.31138187E-03
  0.391999990         5.86091354E-03
  0.393000007         4.34361491E-03
  0.393999994         2.76831514E-03
  0.395000011         1.14459125E-03
  0.395999998        -5.17323322E-04
  0.397000015        -2.20663403E-03
  0.398000002        -3.91209265E-03
  0.398999989        -5.62211173E-03
  0.400000006        -7.32488604E-03
  0.400999993        -9.00851469E-03
  0.402000010        -1.06611364E-02
  0.402999997        -1.22710522E-02
  0.404000014        -1.38268601E-02
  0.405000001        -1.53175788E-02
  0.405999988        -1.67327709E-02
  0.407000005        -1.80626567E-02
  0.407999992        -1.92982238E-02
  0.409000009        -2.04313193E-02
  0.409999996        -2.14547347E-02
  0.411000013        -2.23622881E-02
  0.412000000        -2.31488645E-02
  0.412999988        -2.38104817E-02
  0.414000005        -2.43443009E-02
  0.414999992        -2.47486494E-02
  0.416000009        -2.50230283E-02
  0.416999996        -2.51680855E-02
  0.418000013        -2.51855999E-02
  0.419000000        -2.50784326E-02
  0.419999987        -2.48504691E-02
  0.421000004        -2.45065596E-02
  0.421999991        -2.40524337E-02
  0.423000008        -2.34946162E-02
  0.423999995        -2.28403248E-02
  0.425000012        -2.20973864E-02
  0.425999999        -2.12741159E-02
  0.426999986        -2.03792136E-02
  0.428000003        -1.94216687E-02
  0.428999990        -1.84106361E-02
  0.430000007        -1.73553452E-02
  0.430999994        -1.62649900E-02
  0.432000011        -1.51486425E-02
  0.432999998        -1.40151521E-02
  0.433999985        -1.28730740E-02
  0.435000002        -1.17305843E-02
  0.435999990        -1.05954222E-02
  0.437000006        -9.47482791E-03
  0.437999994        -8.37549381E-03
  0.439000010        -7.30352895E-03
  0.439999998        -6.26442814E-03
  0.441000015        -5.26305242E-03
  0.442000002        -4.30362206E-03
  0.442999989        -3.38971172E-03
  0.444000006        -2.52426136E-03
  0.444999993        -1.70958764E-03
  0.446000010        -9.47405468E-04
  0.446999997        -2.38854482E-04
  0.448000014         4.15470247E-04
  0.449000001         1.01548224E-03
  0.449999988         1.56156474E-03
  0.451000005         2.05452880E-03
  0.451999992         2.49556894E-03
  0.453000009         2.88621988E-03
  0.453999996         3.22831050E-03
  0.455000013         3.52391880E-03
  0.456000000         3.77532840E-03
  0.456999987         3.98498774E-03
  0.458000004         4.15546820E-03
  0.458999991         4.28942498E-03
  0.460000008         4.38956451E-03
  0.460999995         4.45860857E-03
  0.462000012         4.49926453E-03
  0.463000000         4.51420154E-03
  0.463999987         4.50602453E-03
  0.465000004         4.47725505E-03
  0.465999991         4.43031685E-03
  0.467000008         4.36752010E-03
  0.467999995         4.29104920E-03
  0.469000012         4.20295587E-03
  0.469999999         4.10515303E-03
  0.470999986         3.99940880E-03
  0.472000003         3.88734764E-03
  0.472999990         3.77045153E-03
  0.474000007         3.65006155E-03
  0.474999994         3.52738216E-03
  0.476000011         3.40348482E-03
  0.476999998         3.27931438E-03
  0.477999985         3.15569388E-03
  0.479000002         3.03333392E-03
  0.479999989         2.91283871E-03
  0.481000006         2.79471627E-03
  0.481999993         2.67938664E-03
  0.483000010         2.56719021E-03
  0.483999997         2.45839637E-03
  0.485000014         2.35321000E-03
  0.486000001         2.25177896E-03
  0.486999989         2.15420057E-03
  0.488000005         2.06052791E-03
  0.488999993         1.97077566E-03
  0.490000010         1.88492704E-03
  0.490999997         1.80293783E-03
  0.492000014         1.72474200E-03
  0.493000001         1.65025564E-03
  0.493999988         1.57938141E-03
  0.495000005         1.51201221E-03
  0.495999992         1.44803489E-03
  0.497000009         1.38733222E-03
  0.497999996         1.32978475E-03
  0.499000013         1.27527083E-03
  0.500000000         1.22366648E-03
  0.500999987         1.17484550E-03
  0.501999974         1.12867937E-03
  0.503000021         1.08503934E-03
  0.504000008         1.04379817E-03
  0.504999995         1.00483221E-03
  0.505999982         9.68023436E-04
  0.507000029         9.33258736E-04
  0.508000016         9.00429906E-04
  0.509000003         8.69431591E-04
  0.509999990         8.40160297E-04
  0.510999978         8.12512997E-04
  0.512000024         7.86387711E-04
  0.513000011         7.61683914E-04
  0.513999999         7.38303585E-04
  0.514999986         7.16152077E-04
  0.515999973         6.95138820E-04
  0.517000020         6.75177551E-04
  0.518000007         6.56187069E-04
  0.518999994         6.38091646E-04
  0.519999981         6.20821607E-04
  0.521000028         6.04313565E-04
  0.522000015         5.88509487E-04
  0.523000002         5.73356112E-04
  0.523999989         5.58803440E-04
  0.524999976         5.44803857E-04
  0.526000023         5.31311904E-04
  0.527000010         5.18285669E-04
  0.527999997         5.05687785E-04
  0.528999984         4.93486819E-04
  0.529999971         4.81658091E-04
  0.531000018         4.70182946E-04
  0.532000005         4.59047355E-04
  0.532999992         4.48240025E-04
  0.533999979         4.37750423E-04
  0.535000026         4.27567807E-04
  0.536000013         4.17680771E-04
  0.537000000         4.08077613E-04
  0.537999988         3.98746837E-04
  0.538999975         3.89677356E-04
  0.540000021         3.80858866E-04
  0.541000009         3.72281676E-04
  0.541999996         3.63936648E-04
  0.542999983         3.55815224E-04
  0.544000030         3.47909343E-04
  0.545000017         3.40211671E-04
  0.546000004         3.32715252E-04
  0.546999991         3.25413363E-04
  0.547999978         3.18299106E-04
  0.549000025         3.11365380E-04
  0.550000012         3.04604968E-04
  0.550999999         2.98010855E-04
  0.551999986         2.91576696E-04
  0.552999973         2.85296963E-04
  0.554000020         2.79167143E-04
  0.555000007         2.73183017E-04
  0.555999994         2.67340190E-04
  0.556999981         2.61633249E-04
  0.558000028         2.56055268E-04
  0.559000015         2.50597193E-04
  0.560000002         2.45247502E-04
  0.560999990         2.39991510E-04
  0.561999977         2.34810519E-04
  0.563000023         2.29680678E-04
  0.564000010         2.24571631E-04
  0.564999998         2.19445268E-04
  0.565999985         2.14254644E-04
  0.566999972         2.08943253E-04
  0.568000019         2.03444841E-04
  0.569000006         1.97683476E-04
  0.569999993         1.91573679E-04
  0.570999980         1.85020559E-04
  0.572000027         1.77919763E-04
  0.573000014         1.70157044E-04
  0.574000001         1.61607473E-04
  0.574999988         1.52134729E-04
  0.575999975         1.41590179E-04
  0.577000022         1.29812252E-04
  0.578000009         1.16626135E-04
  0.578999996         1.01843696E-04
  0.579999983         8.52637677E-05
  0.580999970         6.66724663E-05
  0.582000017         4.58436734E-05
  0.583000004         2.25394870E-05
  0.583999991        -3.48937419E-06
  0.584999979        -3.25032488E-05
  0.586000025        -6.47734269E-05
  0.587000012        -1.00582438E-04
  0.588000000        -1.40224714E-04
  0.588999987        -1.84007848E-04
  0.589999974        -2.32253966E-04
  0.591000021        -2.85301270E-04
  0.592000008        -3.43504827E-04
  0.592999995        -4.07236628E-04
  0.593999982        -4.76884597E-04
  0.595000029        -5.52850717E-04
  0.596000016        -6.35548553E-04
  0.597000003        -7.25400983E-04
  0.597999990        -8.22837581E-04
  0.598999977        -9.28293099E-04
  0.600000024        -1.04220596E-03
  0.601000011        -1.16501609E-03
  0.601999998        -1.29716389E-03
  0.602999985        -1.43908663E-03
  0.603999972        -1.59121584E-03
  0.605000019        -1.75397261E-03
  0.606000006        -1.92776311E-03
  0.606999993        -2.11297302E-03
  0.607999980        -2.30996148E-03
  0.609000027        -2.51905317E-03
  0.610000014        -2.74053193E-03
  0.611000001        -2.97463289E-03
  0.611999989        -3.22153443E-03
  0.612999976        -3.48134991E-03
  0.614000022        -3.75412125E-03
  0.615000010        -4.03980864E-03
  0.615999997        -4.33828216E-03
  0.616999984        -4.64931270E-03
  0.617999971        -4.97255940E-03
  0.619000018        -5.30755939E-03
  0.620000005        -5.65371197E-03
  0.620999992        -6.01026835E-03
  0.621999979        -6.37631631E-03
  0.623000026        -6.75076758E-03
  0.624000013        -7.13234488E-03
  0.625000000        -7.51956692E-03
  0.625999987        -7.91073684E-03
  0.626999974        -8.30393098E-03
  0.628000021        -8.69698264E-03
  0.629000008        -9.08747781E-03
  0.629999995        -9.47274547E-03
  0.630999982        -9.84984823E-03
  0.632000029        -1.02155870E-02
  0.633000016        -1.05664926E-02
  0.634000003        -1.08988425E-02
  0.634999990        -1.12086590E-02
  0.635999978        -1.14917317E-02
  0.637000024        -1.17436340E-02
  0.638000011        -1.19597530E-02
  0.638999999        -1.21353222E-02
  0.639999986        -1.22654606E-02
  0.640999973        -1.23452200E-02
  0.642000020        -1.23696420E-02
  0.643000007        -1.23338122E-02
  0.643999994        -1.22329341E-02
  0.644999981        -1.20623950E-02
  0.646000028        -1.18178492E-02
  0.647000015        -1.14952987E-02
  0.648000002        -1.10911746E-02
  0.648999989        -1.06024267E-02
  0.649999976        -1.00266067E-02
  0.651000023        -9.36195347E-03
  0.652000010        -8.60747136E-03
  0.652999997        -7.76301138E-03
  0.653999984        -6.82934094E-03
  0.654999971        -5.80820534E-03
  0.656000018        -4.70238179E-03
  0.657000005        -3.51572037E-03
  0.657999992        -2.25317152E-03
  0.658999979        -9.20795312E-04
  0.660000026         4.74242872E-04
  0.661000013         1.92369684E-03
  0.662000000         3.41828354E-03
  0.662999988         4.94774152E-03
  0.663999975         6.50090910E-03
  0.665000021         8.06582067E-03
  0.666000009         9.62981954E-03
  0.666999996         1.11796800E-02
  0.667999983         1.27017526E-02
  0.669000030         1.41821178E-02
  0.670000017         1.56067507E-02
  0.671000004         1.69616975E-02
  0.671999991         1.82332620E-02
  0.672999978         1.94081776E-02
  0.674000025         2.04738043E-02
  0.675000012         2.14183033E-02
  0.675999999         2.22308040E-02
  0.676999986         2.29015779E-02
  0.677999973         2.34221835E-02
  0.679000020         2.37855949E-02
  0.680000007         2.39863340E-02
  0.680999994         2.40205545E-02
  0.681999981         2.38861274E-02
  0.683000028         2.35826839E-02
  0.684000015         2.31116489E-02
  0.685000002         2.24762354E-02
  0.685999990         2.16814168E-02
  0.686999977         2.07338817E-02
  0.688000023         1.96419545E-02
  0.689000010         1.84154976E-02