 -0.12000000000000000          0.0000000000000000     
 -0.11889999999999999          0.0000000000000000     
 -0.11780000000000000          0.0000000000000000     
 -0.11670000000000000          0.0000000000000000     
 -0.11559999999999999          0.0000000000000000     
 -0.11449999999999999          0.0000000000000000     
 -0.11340000000000000          0.0000000000000000     
 -0.11230000000000000          0.0000000000000000     
 -0.11119999999999999          0.0000000000000000     
 -0.11009999999999999          0.0000000000000000     
 -0.10900000000000000          0.0000000000000000     
 -0.10790000000000000         -2.7092894358128456E-036
 -0.10679999999999999          1.8807893617734668E-035
 -0.10569999999999999          5.7050170033980367E-033
 -0.10460000000000000          9.6891673538897280E-032
 -0.10349999999999999          8.2451042791612653E-031
 -0.10239999999999999          4.4688846367724991E-030
 -0.10130000000000000          1.6417840721526998E-029
 -0.10020000000000000          3.8016449185146949E-029
  -9.9099999999999994E-002     2.2330366474049874E-029
  -9.7999999999999990E-002    -2.5087303784318495E-028
  -9.6899999999999986E-002    -1.3486831758262761E-027
  -9.5799999999999996E-002    -4.0350600704161294E-027
  -9.4699999999999993E-002    -7.7466560861516956E-027
  -9.3599999999999989E-002    -6.2344427901958057E-027
  -9.2499999999999999E-002     1.9154151291423193E-026
  -9.1399999999999995E-002     1.0055523117292427E-025
  -9.0299999999999991E-002     2.5733229853120779E-025
  -8.9200000000000002E-002     4.1176201157835759E-025
  -8.8099999999999984E-002     2.4281716176258769E-025
  -8.6999999999999994E-002    -9.1887329068512213E-025
  -8.5899999999999990E-002    -3.8557849077512317E-024
  -8.4799999999999986E-002    -8.4252750743513363E-024
  -8.3699999999999997E-002    -1.1463283494312498E-023
  -8.2599999999999993E-002    -4.4356680313013963E-024
  -8.1499999999999989E-002     2.6248792017792229E-023
  -8.0399999999999999E-002     9.1111572780208870E-023
  -7.9299999999999995E-002     1.7694775481174960E-022
  -7.8199999999999992E-002     2.1633848169170326E-022
  -7.7100000000000002E-002     6.7291835646507572E-023
  -7.5999999999999984E-002    -4.5435260145193662E-022
  -7.4899999999999994E-002    -1.4369416401966364E-021
  -7.3799999999999991E-002    -2.6101590021054893E-021
  -7.2699999999999987E-002    -3.0443784844931648E-021
  -7.1599999999999997E-002    -1.0711289601454011E-021
  -7.0499999999999993E-002     5.1652063107066163E-021
  -6.9399999999999989E-002     1.6164772587313015E-020
  -6.8300000000000000E-002     2.8648759794021195E-020
  -6.7199999999999996E-002     3.3342855257880896E-020
  -6.6099999999999992E-002     1.5261639262684449E-020
  -6.5000000000000002E-002    -4.0598474399331300E-020
  -6.3899999999999985E-002    -1.3646767087100918E-019
  -6.2799999999999995E-002    -2.4429769943358376E-019
  -6.1699999999999991E-002    -2.9256629851525454E-019
  -6.0599999999999994E-002    -1.7286812177350239E-019
  -5.9499999999999990E-002     2.1737646883708971E-019
  -5.8399999999999994E-002     8.9085840450504021E-019
  -5.7299999999999990E-002     1.6659280149108891E-018
  -5.6199999999999986E-002     2.0985779501490823E-018
  -5.5099999999999996E-002     1.5354820405133430E-018
  -5.3999999999999992E-002    -6.3516086890010718E-019
  -5.2899999999999989E-002    -4.5275574808011467E-018
  -5.1799999999999985E-002    -9.2243810755701199E-018
  -5.0699999999999995E-002    -1.2454149078149504E-017
  -4.9599999999999991E-002    -1.0870414084357611E-017
  -4.8499999999999988E-002    -1.2488076101300530E-018
  -4.7399999999999998E-002     1.7418566533891800E-017
  -4.6299999999999994E-002     4.1530601674607097E-017
  -4.5199999999999990E-002     6.1417756153853588E-017
  -4.4099999999999986E-002     6.2378446323782726E-017
  -4.2999999999999997E-002     2.9396348627522145E-017
  -4.1899999999999993E-002    -4.4610747279258939E-017
  -4.0799999999999989E-002    -1.4928795712986030E-016
  -3.9699999999999985E-002    -2.5055432277388502E-016
  -3.8599999999999995E-002    -2.9304224525548302E-016
  -3.7499999999999992E-002    -2.1541554690770247E-016
  -3.6399999999999988E-002     2.1700392793124187E-017
  -3.5299999999999984E-002     4.0223398956058791E-016
  -3.4199999999999994E-002     8.2953636814279436E-016
  -3.3099999999999991E-002     1.1268748769807229E-015
  -3.1999999999999987E-002     1.0772036832213216E-015
  -3.0899999999999997E-002     5.0364615316152398E-016
  -2.9799999999999993E-002    -6.2673870716768410E-016
  -2.8699999999999989E-002    -2.1127516329695643E-015
  -2.7599999999999986E-002    -3.4902295803278975E-015
  -2.6499999999999996E-002    -4.1062439927119156E-015
  -2.5399999999999992E-002    -3.3103834968756727E-015
  -2.4299999999999988E-002    -7.3211069815990655E-016
  -2.3199999999999985E-002     3.4363675144360922E-015
  -2.2099999999999995E-002     8.2667350430623202E-015
  -2.0999999999999991E-002     1.2145491648877157E-014
  -1.9899999999999987E-002     1.3117418975279662E-014
  -1.8799999999999983E-002     9.5004817398834243E-015
  -1.7699999999999994E-002     6.3981152087617120E-016
  -1.6599999999999990E-002    -1.2429792000125341E-014
  -1.5499999999999986E-002    -2.6689319067597662E-014
  -1.4399999999999996E-002    -3.7448022205232966E-014
  -1.3299999999999992E-002    -3.9370215343316178E-014
  -1.2199999999999989E-002    -2.8114378812486059E-014
  -1.1099999999999985E-002    -2.2401509666690720E-015
  -9.9999999999999950E-003     3.5170276125896209E-014
  -8.8999999999999913E-003     7.5829638341174042E-014
  -7.7999999999999875E-003     1.0707880767647290E-013
  -6.6999999999999837E-003     1.1452093116687141E-013
  -5.5999999999999939E-003     8.6247684078438193E-014
  -4.4999999999999901E-003     1.7833406142582845E-014
  -3.3999999999999864E-003    -8.3305789760409818E-014
  -2.2999999999999826E-003    -1.9591987781170973E-013
  -1.1999999999999927E-003    -2.8688898959042276E-013
  -9.9999999999988987E-005    -3.1797184037935816E-013
   1.0000000000000148E-003    -2.5680669311682248E-013
   2.1000000000000185E-003    -8.9933761918728930E-014
   3.2000000000000084E-003     1.6593706225515607E-013
   4.3000000000000121E-003     4.5893980783715921E-013
   5.4000000000000159E-003     7.0725580562394470E-013
   6.5000000000000058E-003     8.1616685584694600E-013
   7.6000000000000234E-003     7.0501364630791965E-013
   8.7000000000000133E-003     3.3803849414645491E-013
   9.8000000000000032E-003    -2.5011268684024931E-013
   1.0900000000000021E-002    -9.4435827094331669E-013
   1.2000000000000011E-002    -1.5623843720651670E-012
   1.3100000000000001E-002    -1.8931602250106101E-012
   1.4200000000000018E-002    -1.7549880571093711E-012
   1.5300000000000008E-002    -1.0594617797852177E-012
   1.6400000000000026E-002     1.3745346159953289E-013
   1.7500000000000016E-002     1.6162057755504740E-012
   1.8600000000000005E-002     3.0194530356820830E-012
   1.9700000000000023E-002     3.9249059161500101E-012
   2.0800000000000013E-002     3.9534059242601935E-012
   2.1900000000000003E-002     2.8876816595218273E-012
   2.3000000000000020E-002     7.6953352181454136E-013
   2.4100000000000010E-002    -2.0564445393712718E-012
   2.5200000000000000E-002    -4.9750633931344425E-012
   2.6300000000000018E-002    -7.2139956409500654E-012
   2.7400000000000008E-002    -8.0225878645063436E-012
   2.8500000000000025E-002    -6.8797520604445741E-012
   2.9600000000000015E-002    -3.6804943665330074E-012
   3.0700000000000005E-002     1.1528290491190303E-012
   3.1800000000000023E-002     6.6786271413263608E-012
   3.2900000000000013E-002     1.1584635753833112E-011
   3.4000000000000002E-002     1.4464958320372420E-011
   3.5100000000000020E-002     1.4176892993427607E-011
   3.6200000000000010E-002     1.0197196594336824E-011
   3.7300000000000028E-002     2.8806219262213025E-012
   3.8400000000000017E-002    -6.4701745672099873E-012
   3.9500000000000007E-002    -1.5780792261177449E-011
   4.0600000000000025E-002    -2.2627062202501482E-011
   4.1700000000000015E-002    -2.4831805690002768E-011
   4.2800000000000005E-002    -2.1099870997792455E-011
   4.3900000000000022E-002    -1.1516359056473660E-011
   4.5000000000000012E-002     2.2605176840179186E-012
   4.6100000000000002E-002     1.7220717713530275E-011
   4.7200000000000020E-002     2.9641478499914656E-011
   4.8300000000000010E-002     3.6022151544408923E-011
   4.9400000000000027E-002     3.4082890830701075E-011
   5.0500000000000017E-002     2.3540190273215327E-011
   5.1600000000000007E-002     6.3988632997851882E-012
   5.2700000000000025E-002    -1.3386638399352316E-011
   5.3800000000000014E-002    -3.0853100960265561E-011
   5.4900000000000004E-002    -4.1353175564197286E-011
   5.6000000000000022E-002    -4.1901620314190142E-011
   5.7100000000000012E-002    -3.2135888207837080E-011
   5.8200000000000002E-002    -1.4563764965091235E-011
   5.9300000000000019E-002     6.0366354401596129E-012
   6.0400000000000009E-002     2.3945058925638918E-011
   6.1500000000000027E-002     3.4196490296562123E-011
   6.2600000000000017E-002     3.4142687201069478E-011
   6.3700000000000007E-002     2.4374921391911424E-011
   6.4800000000000024E-002     8.6670487730124538E-012
   6.5900000000000014E-002    -7.1194271521284077E-012
   6.7000000000000004E-002    -1.6902356354593501E-011
   6.8100000000000022E-002    -1.6484563645261018E-011
   6.9200000000000012E-002    -5.2397404413090895E-012
   7.0300000000000029E-002     1.3213275387929660E-011
   7.1400000000000019E-002     3.1686991915903485E-011
   7.2500000000000009E-002     4.1411891535018044E-011
   7.3600000000000027E-002     3.4884389802332947E-011
   7.4700000000000016E-002     8.8040202282309412E-012
   7.5800000000000006E-002    -3.3811548520468245E-011
   7.6900000000000024E-002    -8.3140674006769347E-011
   7.8000000000000014E-002    -1.2415747187373367E-010
   7.9100000000000004E-002    -1.4023650964740130E-010
   8.0200000000000021E-002    -1.1807482461176756E-010
   8.1300000000000011E-002    -5.2720790609843279E-011
   8.2400000000000029E-002     4.8780664472585429E-011
   8.3500000000000019E-002     1.6652440966934663E-010
   8.4600000000000009E-002     2.7054402272447847E-010
   8.5700000000000026E-002     3.2726571805269143E-010
   8.6800000000000016E-002     3.0852547050636037E-010
   8.7900000000000006E-002     2.0105235976713841E-010
   8.9000000000000024E-002     1.3717369857071771E-011
   9.0100000000000013E-002    -2.2008144103176325E-010
   9.1200000000000003E-002    -4.4664349953772691E-010
   9.2300000000000021E-002    -6.0294520099203046E-010
   9.3400000000000011E-002    -6.3253472554579139E-010
   9.4500000000000028E-002    -5.0266924060299306E-010
   9.5600000000000018E-002    -2.1794101264430268E-010
   9.6700000000000008E-002     1.7421252222804460E-010
   9.7800000000000026E-002     5.8914638010477585E-010
   9.8900000000000016E-002     9.2206578878227047E-010
  0.10000000000000001          1.0734696363779002E-009
  0.10110000000000002          9.7702082172884257E-010
  0.10220000000000001          6.2228749162455885E-010
  0.10330000000000003          6.5214032401895731E-011
  0.10440000000000002         -5.7824897289821681E-010
  0.10550000000000001         -1.1556903002765270E-009
  0.10660000000000003         -1.5144498586063401E-009
  0.10770000000000002         -1.5419082934700178E-009
  0.10880000000000001         -1.1992118916168076E-009
  0.10990000000000003         -5.3857081882430179E-010
  0.11100000000000002          3.0210118227925663E-010
  0.11210000000000001          1.1277565546794238E-009
  0.11320000000000002          1.7322527504106411E-009
  0.11430000000000001          1.9509494881780385E-009
  0.11540000000000003          1.7063951136138505E-009
  0.11650000000000002          1.0345382454317731E-009
  0.11760000000000001          8.3230658394482394E-011
  0.11870000000000003         -9.1845876324872746E-010
  0.11980000000000002         -1.7140676309859619E-009
  0.12090000000000001         -2.0842733380778790E-009
  0.12200000000000003         -1.9061852736281914E-009
  0.12310000000000001         -1.1918088645474297E-009
  0.12420000000000003         -9.4458048923432758E-011
  0.12530000000000002          1.1206432910089549E-009
  0.12640000000000001          2.1364312492276236E-009
  0.12750000000000003          2.6614309738740391E-009
  0.12860000000000002          2.5058638033634651E-009
  0.12970000000000001          1.6367759981730107E-009
  0.13080000000000003          1.9654796656799087E-010
  0.13190000000000002         -1.5224308023121207E-009
  0.13300000000000001         -3.1430895641920681E-009
  0.13410000000000000         -4.2941922743215836E-009
  0.13520000000000004         -4.7032812373436663E-009
  0.13630000000000003         -4.2669224292884963E-009
  0.13740000000000002         -3.0775987828776945E-009
  0.13850000000000001         -1.3974521006660489E-009
  0.13960000000000000          4.1618738299938151E-010
  0.14070000000000005          2.0137694390252890E-009
  0.14180000000000004          3.1549583177645072E-009
  0.14290000000000003          3.7762904288399202E-009
  0.14400000000000002          4.0003757645459058E-009
  0.14510000000000001          4.0781140901866420E-009
  0.14620000000000000          4.2761534769677000E-009
  0.14730000000000004          4.7411664149963901E-009
  0.14840000000000003          5.3842654288294552E-009
  0.14950000000000002          5.8283828498387376E-009
  0.15060000000000001          5.4474971938046443E-009
  0.15170000000000000          3.5020129152663003E-009
  0.15280000000000005         -6.5419164670948369E-010
  0.15390000000000004         -7.3440172162017104E-009
  0.15500000000000003         -1.6376106425159785E-008
  0.15610000000000002         -2.6949294047559960E-008
  0.15720000000000001         -3.7687704151222590E-008
  0.15830000000000000         -4.6807950431238068E-008
  0.15940000000000004         -5.2383072525164216E-008
  0.16050000000000003         -5.2638405141098779E-008
  0.16160000000000002         -4.6200978107166957E-008
  0.16270000000000001         -3.2231173370743096E-008
  0.16380000000000000         -1.0391099035050788E-008
  0.16490000000000005          1.9356730602393331E-008
  0.16600000000000004          5.7086277898398307E-008
  0.16710000000000003          1.0331399611312858E-007
  0.16820000000000002          1.5939294955809254E-007
  0.16930000000000001          2.2782180054127168E-007
  0.17040000000000000          3.1242160364592105E-007
  0.17150000000000004          4.1837294791138548E-007
  0.17260000000000003          5.5214921001736986E-007
  0.17370000000000002          7.2141498693290846E-007
  0.17480000000000001          9.3497805931480241E-007
  0.17590000000000000          1.2028805046473387E-006
  0.17700000000000005          1.5366909464140888E-006
  0.17810000000000004          1.9500235742708969E-006
  0.17920000000000003          2.4592701197086837E-006
  0.18030000000000002          3.0844888288775469E-006
  0.18140000000000001          3.8503735182124082E-006
  0.18250000000000000          4.7872196148770559E-006
  0.18360000000000004          5.9318266473835597E-006
  0.18470000000000003          7.3283063640265244E-006
  0.18580000000000002          9.0288221142343099E-006
  0.18690000000000001          1.1094338676561465E-005
  0.18800000000000000          1.3595484115669427E-005
  0.18910000000000005          1.6613663502232515E-005
  0.19020000000000004          2.0242516053949648E-005
  0.19130000000000003          2.4589789126273920E-005
  0.19240000000000002          2.9779634790501008E-005
  0.19350000000000001          3.5955224770308598E-005
  0.19460000000000005          4.3281601351875571E-005
  0.19570000000000004          5.1948563518634111E-005
  0.19680000000000003          6.2173460797184876E-005
  0.19790000000000002          7.4203816243936002E-005
  0.19900000000000001          8.8319749793184293E-005
  0.20010000000000000          1.0483627320431567E-004
  0.20120000000000005          1.2410551230236170E-004
  0.20230000000000004          1.4651904799396222E-004
  0.20340000000000003          1.7251034289418867E-004
  0.20450000000000002          2.0255736744277897E-004
  0.20560000000000000          2.3718514858860041E-004
  0.20670000000000005          2.7696803613503794E-004
  0.20780000000000004          3.2253139360882471E-004
  0.20890000000000003          3.7455259362003925E-004
  0.21000000000000002          4.3376079286407322E-004
  0.21110000000000001          5.0093591034505649E-004
  0.21220000000000000          5.7690561996743899E-004
  0.21330000000000005          6.6254204478582719E-004
  0.21440000000000003          7.5875627541239165E-004
  0.21550000000000002          8.6649238860029144E-004
  0.21660000000000001          9.8671979714873466E-004
  0.21770000000000000          1.1204241340196995E-003
  0.21880000000000005          1.2685966054048635E-003
  0.21990000000000004          1.4322217656752598E-003
  0.22100000000000003          1.6122626907133339E-003
  0.22210000000000002          1.8096443530129136E-003
  0.22320000000000001          2.0252345209047303E-003
  0.22430000000000000          2.2598222261646797E-003
  0.22540000000000004          2.5140960564588753E-003
  0.22650000000000003          2.7886183529318986E-003
  0.22760000000000002          3.0838012940607434E-003
  0.22870000000000001          3.3998791255857148E-003
  0.22980000000000000          3.7368827164721927E-003
  0.23090000000000005          4.0946118776615465E-003
  0.23200000000000004          4.4726099178464072E-003
  0.23310000000000003          4.8701370617147081E-003
  0.23420000000000002          5.2861460215104994E-003
  0.23530000000000001          5.7192616335121514E-003
  0.23640000000000000          6.1677594277150050E-003
  0.23750000000000004          6.6295501347874621E-003
  0.23860000000000003          7.1021689720817986E-003
  0.23970000000000002          7.5827665866790520E-003
  0.24080000000000001          8.0681073077724062E-003
  0.24190000000000000          8.5545757271785414E-003
  0.24300000000000005          9.0381829234427620E-003
  0.24410000000000004          9.5145894792787698E-003
  0.24520000000000003          9.9791274515591971E-003
  0.24630000000000002          1.0426836556698030E-002
  0.24740000000000001          1.0852501972396043E-002
  0.24850000000000005          1.1250702155867610E-002
  0.24960000000000004          1.1615865682301076E-002
  0.25070000000000003          1.1942331815667159E-002
  0.25180000000000002          1.2224421509754758E-002
  0.25290000000000001          1.2456508350048641E-002
  0.25400000000000000          1.2633101575286602E-002
  0.25510000000000005          1.2748922532183517E-002
  0.25620000000000004          1.2798992541965079E-002
  0.25730000000000003          1.2778714565557105E-002
  0.25840000000000002          1.2683957261111819E-002
  0.25950000000000001          1.2511140921280701E-002
  0.26060000000000005          1.2257313009025061E-002
  0.26170000000000004          1.1920226209736982E-002
  0.26280000000000003          1.1498402050106219E-002
  0.26390000000000002          1.0991194037191340E-002
  0.26500000000000001          1.0398830127563768E-002
  0.26610000000000000          9.7224530705090160E-003
  0.26720000000000005          8.9641463148030856E-003
  0.26830000000000004          8.1269421427831463E-003
  0.26940000000000003          7.2148240164836624E-003
  0.27050000000000002          6.2327101701984749E-003
  0.27160000000000001          5.1864220409132428E-003
  0.27270000000000005          4.0826409795085596E-003
  0.27380000000000004          2.9288476892373946E-003
  0.27490000000000003          1.7332503841940823E-003
  0.27600000000000002          5.0470124531056654E-004
  0.27710000000000001         -7.4740047750243121E-004
  0.27820000000000000         -2.0132146536836091E-003
  0.27930000000000005         -3.2825770630722129E-003
  0.28040000000000004         -4.5451211747764633E-003
  0.28150000000000003         -5.7904080655289359E-003
  0.28260000000000002         -7.0080576799629703E-003
  0.28370000000000001         -8.1878775638503844E-003
  0.28480000000000005         -9.3199935456458292E-003
  0.28590000000000004         -1.0394967640549013E-002
  0.28700000000000003         -1.1403926695957363E-002
  0.28810000000000002         -1.2338666254830287E-002
  0.28920000000000001         -1.3191755467405636E-002
  0.29030000000000000         -1.3956635388109602E-002
  0.29140000000000005         -1.4627698674719955E-002
  0.29250000000000004         -1.5200356642776632E-002
  0.29360000000000003         -1.5671089832289285E-002
  0.29470000000000002         -1.6037487037654344E-002
  0.29580000000000001         -1.6298265705671968E-002
  0.29690000000000005         -1.6453265468447286E-002
  0.29800000000000004         -1.6503443592740970E-002
  0.29910000000000003         -1.6450842957883304E-002
  0.30020000000000002         -1.6298553527817460E-002
  0.30130000000000001         -1.6050646212042694E-002
  0.30240000000000000         -1.5712107840423650E-002
  0.30350000000000005         -1.5288758192994325E-002
  0.30460000000000004         -1.4787157994202847E-002
  0.30570000000000003         -1.4214509292958928E-002
  0.30680000000000002         -1.3578542209430127E-002
  0.30790000000000001         -1.2887406052050901E-002
  0.30900000000000005         -1.2149546865850852E-002
  0.31010000000000004         -1.1373589765593130E-002
  0.31120000000000003         -1.0568217459415566E-002
  0.31230000000000002         -9.7420547311890190E-003
  0.31340000000000001         -8.9035587558588015E-003
  0.31450000000000006         -8.0609161362782018E-003
  0.31560000000000005         -7.2219412665300263E-003
  0.31670000000000004         -6.3939920076302118E-003
  0.31780000000000003         -5.5838875112340803E-003
  0.31890000000000002         -4.7978444035655134E-003
  0.32000000000000001         -4.0414186207622304E-003
  0.32110000000000005         -3.3194631048186827E-003
  0.32220000000000004         -2.6360992518401453E-003
  0.32330000000000003         -1.9946992376169217E-003
  0.32440000000000002         -1.3978812987881207E-003
  0.32550000000000001         -8.4751569601151542E-004
  0.32660000000000006         -3.4474353885435301E-004
  0.32770000000000005          1.0999296449998942E-004
  0.32880000000000004          5.1690846067794886E-004
  0.32990000000000003          8.7682368814639142E-004
  0.33100000000000002          1.1911061864309702E-003
  0.33210000000000001          1.4616052562972852E-003
  0.33320000000000005          1.6905835147786197E-003
  0.33430000000000004          1.8806455463878436E-003
  0.33540000000000003          2.0346658798927331E-003
  0.33650000000000002          2.1557153754792708E-003
  0.33760000000000001          2.2469905434684637E-003
  0.33870000000000006          2.3117462296741130E-003
  0.33980000000000005          2.3532303301113866E-003
  0.34090000000000004          2.3746251042834989E-003
  0.34200000000000003          2.3789937805347265E-003
  0.34310000000000002          2.3692321177666053E-003
  0.34420000000000001          2.3480257298408025E-003
  0.34530000000000005          2.3178158440069498E-003
  0.34640000000000004          2.2807711610476110E-003
  0.34750000000000003          2.2387710579675688E-003
  0.34860000000000002          2.1933965902009938E-003
  0.34970000000000001          2.1459349730973882E-003
  0.35080000000000006          2.0973884183691925E-003
  0.35190000000000005          2.0484915127827147E-003
  0.35300000000000004          1.9997307378537702E-003
  0.35410000000000003          1.9513683101686280E-003
  0.35520000000000002          1.9034670864209679E-003
  0.35630000000000001          1.8559193374628846E-003
  0.35740000000000005          1.8084782380843028E-003
  0.35850000000000004          1.7607919591626977E-003
  0.35960000000000003          1.7124396036578844E-003
  0.36070000000000002          1.6629676513436518E-003
  0.36180000000000001          1.6119233568430997E-003
  0.36290000000000006          1.5588861141665625E-003
  0.36400000000000005          1.5034947352556567E-003
  0.36510000000000004          1.4454705125260042E-003
  0.36620000000000003          1.3846360187034171E-003
  0.36730000000000002          1.3209286076850068E-003
  0.36840000000000006          1.2544085489455757E-003
  0.36950000000000005          1.1852619163059820E-003
  0.37060000000000004          1.1137989082885913E-003
  0.37170000000000003          1.0404481800888887E-003
  0.37280000000000002          9.6574758444846432E-004
  0.37390000000000001          8.9033215539799967E-004
  0.37500000000000006          8.1491891406689583E-004
  0.37610000000000005          7.4028830544248497E-004
  0.37720000000000004          6.6726194611146298E-004
  0.37830000000000003          5.9667790997823805E-004
  0.37940000000000002          5.2936419170140588E-004
  0.38050000000000006          4.6611270464044189E-004
  0.38160000000000005          4.0765521745204415E-004
  0.38270000000000004          3.5464160945479045E-004
  0.38380000000000003          3.0762046880761397E-004
  0.38490000000000002          2.6702209937695789E-004
  0.38600000000000001          2.3314327548305436E-004
  0.38710000000000000          2.0613448221251787E-004
  0.38819999999999999          1.8599067605364232E-004
  0.38930000000000009          1.7254649566809867E-004
  0.39040000000000008          1.6547691713113589E-004
  0.39150000000000007          1.6430354154472866E-004
  0.39260000000000006          1.6840554755482066E-004
  0.39370000000000005          1.7703428406411325E-004
  0.39480000000000004          1.8933024499235074E-004
  0.39590000000000003          2.0434140259060189E-004
  0.39700000000000002          2.2104249265438036E-004
  0.39810000000000001          2.3835513367020716E-004
  0.39920000000000000          2.5516827180333186E-004
  0.40029999999999999          2.7035884407192596E-004
  0.40140000000000009          2.8281189624299301E-004
  0.40250000000000008          2.9144015573027423E-004
  0.40360000000000007          2.9520233663504259E-004
  0.40470000000000006          2.9312013992065678E-004
  0.40580000000000005          2.8429310727842429E-004
  0.40690000000000004          2.6790980820681049E-004
  0.40800000000000003          2.4325459148207083E-004
  0.40910000000000002          2.0970761369811525E-004
  0.41020000000000001          1.6673820706592155E-004
  0.41130000000000000          1.1389189505482154E-004
  0.41239999999999999          5.0772491839910943E-005
  0.41350000000000009         -2.2978315774774570E-005
  0.41460000000000008         -1.0770221125205832E-004
  0.41570000000000007         -2.0374507685116480E-004
  0.41680000000000006         -3.1147774241409797E-004
  0.41790000000000005         -4.3131691271440406E-004
  0.41900000000000004         -5.6374711561194392E-004
  0.42010000000000003         -7.0934411822248160E-004
  0.42120000000000002         -8.6879794320077739E-004
  0.42230000000000001         -1.0429346862732760E-003
  0.42340000000000000         -1.2327345229906207E-003
  0.42449999999999999         -1.4393445513821916E-003
  0.42560000000000009         -1.6640853085997346E-003
  0.42670000000000008         -1.9084483602195049E-003
  0.42780000000000007         -2.1740872948399726E-003
  0.42890000000000006         -2.4627979190673375E-003
  0.43000000000000005         -2.7764914396672812E-003
  0.43110000000000004         -3.1171560652340901E-003
  0.43220000000000003         -3.4868131225539445E-003
  0.43330000000000002         -3.8874636793147189E-003
  0.43440000000000001         -4.3210299156188452E-003
  0.43550000000000000         -4.7892952609640766E-003
  0.43659999999999999         -5.2938350287483789E-003
  0.43770000000000009         -5.8359491660951689E-003
  0.43880000000000008         -6.4165865103034091E-003
  0.43990000000000007         -7.0362728475930779E-003
  0.44100000000000006         -7.6950310686310502E-003
  0.44210000000000005         -8.3923076344905329E-003
  0.44320000000000004         -9.1269010114743247E-003
  0.44430000000000003         -9.8968966732247612E-003
  0.44540000000000002         -1.0699610645550660E-002
  0.44650000000000001         -1.1531546061886448E-002
  0.44760000000000000         -1.2388362714433748E-002
  0.44869999999999999         -1.3264854333938335E-002
  0.44980000000000009         -1.4154950390944398E-002
  0.45090000000000008         -1.5051726731936586E-002
  0.45200000000000007         -1.5947439338302494E-002
  0.45310000000000006         -1.6833565408676879E-002
  0.45420000000000005         -1.7700873625299849E-002
  0.45530000000000004         -1.8539502471472888E-002
  0.45640000000000003         -1.9339055812907676E-002
  0.45750000000000002         -2.0088722067445546E-002
  0.45860000000000001         -2.0777397219021110E-002
  0.45970000000000000         -2.1393828438561045E-002
  0.46079999999999999         -2.1926770543182202E-002
  0.46190000000000009         -2.2365147567955095E-002
  0.46300000000000008         -2.2698221943493982E-002
  0.46410000000000007         -2.2915771500009660E-002
  0.46520000000000006         -2.3008267028810717E-002
  0.46630000000000005         -2.2967039996079582E-002
  0.46740000000000004         -2.2784450864111589E-002
  0.46850000000000003         -2.2454050617726280E-002
  0.46960000000000002         -2.1970718133891010E-002
  0.47070000000000001         -2.1330792397421673E-002
  0.47180000000000000         -2.0532182883218772E-002
  0.47289999999999999         -1.9574464987081226E-002
  0.47400000000000009         -1.8458950939841023E-002
  0.47510000000000008         -1.7188728530644907E-002
  0.47620000000000007         -1.5768686074730927E-002
  0.47730000000000006         -1.4205503877327035E-002
  0.47840000000000005         -1.2507620613916323E-002