 -0.12000000000000000          0.0000000000000000     
 -0.11889999999999999          0.0000000000000000     
 -0.11780000000000000          0.0000000000000000     
 -0.11670000000000000          0.0000000000000000     
 -0.11559999999999999          0.0000000000000000     
 -0.11449999999999999          0.0000000000000000     
 -0.11340000000000000          0.0000000000000000     
 -0.11230000000000000          0.0000000000000000     
 -0.11119999999999999          0.0000000000000000     
 -0.11009999999999999          0.0000000000000000     
 -0.10900000000000000          0.0000000000000000     
 -0.10790000000000000          0.0000000000000000     
 -0.10679999999999999          0.0000000000000000     
 -0.10569999999999999          0.0000000000000000     
 -0.10460000000000000          0.0000000000000000     
 -0.10349999999999999          0.0000000000000000     
 -0.10239999999999999          0.0000000000000000     
 -0.10130000000000000          0.0000000000000000     
 -0.10020000000000000          0.0000000000000000     
  -9.9099999999999994E-002     0.0000000000000000     
  -9.7999999999999990E-002     0.0000000000000000     
  -9.6899999999999986E-002     0.0000000000000000     
  -9.5799999999999996E-002     0.0000000000000000     
  -9.4699999999999993E-002     0.0000000000000000     
  -9.3599999999999989E-002     0.0000000000000000     
  -9.2499999999999999E-002     0.0000000000000000     
  -9.1399999999999995E-002     0.0000000000000000     
  -9.0299999999999991E-002     0.0000000000000000     
  -8.9200000000000002E-002     0.0000000000000000     
  -8.8099999999999984E-002     0.0000000000000000     
  -8.6999999999999994E-002     0.0000000000000000     
  -8.5899999999999990E-002     0.0000000000000000     
  -8.4799999999999986E-002     0.0000000000000000     
  -8.3699999999999997E-002     0.0000000000000000     
  -8.2599999999999993E-002     0.0000000000000000     
  -8.1499999999999989E-002     0.0000000000000000     
  -8.0399999999999999E-002     0.0000000000000000     
  -7.9299999999999995E-002     0.0000000000000000     
  -7.8199999999999992E-002     0.0000000000000000     
  -7.7100000000000002E-002     0.0000000000000000     
  -7.5999999999999984E-002     0.0000000000000000     
  -7.4899999999999994E-002     0.0000000000000000     
  -7.3799999999999991E-002     0.0000000000000000     
  -7.2699999999999987E-002     0.0000000000000000     
  -7.1599999999999997E-002     0.0000000000000000     
  -7.0499999999999993E-002     0.0000000000000000     
  -6.9399999999999989E-002     0.0000000000000000     
  -6.8300000000000000E-002     0.0000000000000000     
  -6.7199999999999996E-002     0.0000000000000000     
  -6.6099999999999992E-002     0.0000000000000000     
  -6.5000000000000002E-002     0.0000000000000000     
  -6.3899999999999985E-002     0.0000000000000000     
  -6.2799999999999995E-002     0.0000000000000000     
  -6.1699999999999991E-002     0.0000000000000000     
  -6.0599999999999994E-002     0.0000000000000000     
  -5.9499999999999990E-002     0.0000000000000000     
  -5.8399999999999994E-002     0.0000000000000000     
  -5.7299999999999990E-002     0.0000000000000000     
  -5.6199999999999986E-002     0.0000000000000000     
  -5.5099999999999996E-002     0.0000000000000000     
  -5.3999999999999992E-002     0.0000000000000000     
  -5.2899999999999989E-002     0.0000000000000000     
  -5.1799999999999985E-002     0.0000000000000000     
  -5.0699999999999995E-002     0.0000000000000000     
  -4.9599999999999991E-002     0.0000000000000000     
  -4.8499999999999988E-002     0.0000000000000000     
  -4.7399999999999998E-002     0.0000000000000000     
  -4.6299999999999994E-002     0.0000000000000000     
  -4.5199999999999990E-002     0.0000000000000000     
  -4.4099999999999986E-002     0.0000000000000000     
  -4.2999999999999997E-002     0.0000000000000000     
  -4.1899999999999993E-002     0.0000000000000000     
  -4.0799999999999989E-002     0.0000000000000000     
  -3.9699999999999985E-002     0.0000000000000000     
  -3.8599999999999995E-002     0.0000000000000000     
  -3.7499999999999992E-002     0.0000000000000000     
  -3.6399999999999988E-002     0.0000000000000000     
  -3.5299999999999984E-002     0.0000000000000000     
  -3.4199999999999994E-002     0.0000000000000000     
  -3.3099999999999991E-002     0.0000000000000000     
  -3.1999999999999987E-002     0.0000000000000000     
  -3.0899999999999997E-002     0.0000000000000000     
  -2.9799999999999993E-002     0.0000000000000000     
  -2.8699999999999989E-002     0.0000000000000000     
  -2.7599999999999986E-002     0.0000000000000000     
  -2.6499999999999996E-002     0.0000000000000000     
  -2.5399999999999992E-002     8.9787818273436389E-048
  -2.4299999999999988E-002     2.8563713938432511E-047
  -2.3199999999999985E-002     4.2602850893665366E-047
  -2.2099999999999995E-002    -5.4925444165271965E-047
  -2.0999999999999991E-002    -1.3566809501263465E-046
  -1.9899999999999987E-002     2.1058685118090590E-038
  -1.8799999999999983E-002     6.9821456310833324E-038
  -1.7699999999999994E-002     9.8748965999090285E-038
  -1.6599999999999990E-002     2.1385443384365862E-045
  -1.5499999999999986E-002    -2.6835132290416452E-037
  -1.4399999999999996E-002    -6.0848670998478942E-037
  -1.3299999999999992E-002    -6.7903915788437757E-037
  -1.2199999999999989E-002    -2.1097990649064193E-038
  -1.1099999999999985E-002     1.6316263639867583E-036
  -9.9999999999999950E-003     3.7529989103766572E-036
  -8.8999999999999913E-003     4.4962799489702519E-036
  -7.7999999999999875E-003     1.0659704028232118E-036
  -6.6999999999999837E-003    -8.2464536775224256E-036
  -5.5999999999999939E-003    -2.0778037933096732E-035
  -4.4999999999999901E-003    -2.6732773755276196E-035
  -3.3999999999999864E-003    -1.0901645298098547E-035
  -2.2999999999999826E-003     3.7362349810274036E-035
  -1.1999999999999927E-003     1.0658235995058859E-034
  -9.9999999999988987E-005     1.4787744361055323E-034
   1.0000000000000148E-003     8.1634171627892146E-035
   2.1000000000000185E-003    -1.5426502165836759E-034
   3.2000000000000084E-003    -5.1641987674342374E-034
   4.3000000000000121E-003    -7.7489690376934221E-034
   5.4000000000000159E-003    -5.3389687816291740E-034
   6.5000000000000058E-003     5.4852352476382564E-034
   7.6000000000000234E-003     2.3415066778446986E-033
   8.7000000000000133E-003     3.8312197050644995E-033
   9.8000000000000032E-003     3.1533698373389586E-033
   1.0900000000000021E-002    -1.4688650268394294E-033
   1.2000000000000011E-002    -9.8331255174045885E-033
   1.3100000000000001E-002    -1.7778714433199987E-032
   1.4200000000000018E-002    -1.7009760644110214E-032
   1.5300000000000008E-002     1.1733958326459901E-033
   1.6400000000000026E-002     3.7783071046879524E-032
   1.7500000000000016E-002     7.7063999190806168E-032
   1.8600000000000005E-002     8.4240099428231623E-032
   1.9700000000000023E-002     1.9252366368126486E-032
   2.0800000000000013E-002    -1.3051514710873391E-031
   2.1900000000000003E-002    -3.1070998134216354E-031
   2.3000000000000020E-002    -3.8436472209970216E-031
   2.4100000000000010E-002    -1.7819907545001941E-031
   2.5200000000000000E-002     3.9241874721852176E-031
   2.6300000000000018E-002     1.1604739727457933E-030
   2.7400000000000008E-002     1.6204500069831574E-030
   2.8500000000000025E-002     1.0683965049925293E-030
   2.9600000000000015E-002    -9.4839340197625438E-031
   3.0700000000000005E-002    -3.9950249102416931E-030
   3.1800000000000023E-002    -6.3285065135895853E-030
   3.2900000000000013E-002    -5.2620526120484747E-030
   3.4000000000000002E-002     1.3132826040636312E-030
   3.5100000000000020E-002     1.2576962588064592E-029
   3.6200000000000010E-002     2.2939810249260405E-029
   3.7300000000000028E-002     2.2761866678260656E-029
   3.8400000000000017E-002     3.1782706765243992E-030
   3.9500000000000007E-002    -3.5673623479136243E-029
   4.0600000000000025E-002    -7.7252034991441053E-029
   4.1700000000000015E-002    -8.9030247188954003E-029
   4.2800000000000005E-002    -3.6763058625697765E-029
   4.3900000000000022E-002     8.8263199956622600E-029
   4.5000000000000012E-002     2.4150978364493335E-028
   4.6100000000000002E-002     3.1979298900973073E-028
   4.7200000000000020E-002     2.0020868103521263E-028
   4.8300000000000010E-002    -1.7444423712892080E-028
   4.9400000000000027E-002    -6.9836197879502811E-028
   5.0500000000000017E-002    -1.0642784211135550E-027
   5.1600000000000007E-002    -8.5959291217318899E-028
   5.2700000000000025E-002     1.8048400633142661E-028
   5.3800000000000014E-002     1.8512704693529918E-027
   5.4900000000000004E-002     3.2970768838920332E-027
   5.6000000000000022E-002     3.2169116330268888E-027
   5.7100000000000012E-002     5.7177834734653611E-028
   5.8200000000000002E-002    -4.4107646566196830E-027
   5.9300000000000019E-002    -9.5191513548081773E-027
   6.0400000000000009E-002    -1.0892887253015890E-026
   6.1500000000000027E-002    -4.8765711491657447E-027
   6.2600000000000017E-002     9.0115984639342995E-027
   6.3700000000000007E-002     2.5545881192645572E-026
   6.4800000000000024E-002     3.3947347175415677E-026
   6.5900000000000014E-002     2.2402274284473741E-026
   6.7000000000000004E-002    -1.3636370472141315E-026
   6.8100000000000022E-002    -6.3229980174793855E-026
   6.9200000000000012E-002    -9.8128626384740268E-026
   7.0300000000000029E-002    -8.2837896277560752E-026
   7.1400000000000019E-002     3.4396054927065528E-027
   7.2500000000000009E-002     1.4198867403532319E-025
   7.3600000000000027E-002     2.6368701117284683E-025
   7.4700000000000016E-002     2.6880383704036525E-025
   7.5800000000000006E-002     8.1645500113815562E-026
   7.6900000000000024E-002    -2.7919374284779867E-025
   7.8000000000000014E-002    -6.5739530656797180E-025
   7.9100000000000004E-002    -7.9027848869025470E-025
   8.0200000000000021E-002    -4.3634678421884092E-025
   8.1300000000000011E-002     4.3754745115194073E-025
   8.2400000000000029E-002     1.5108154416028517E-024
   8.3500000000000019E-002     2.1349948415952055E-024
   8.4600000000000009E-002     1.6101377006584701E-024
   8.5700000000000026E-002    -3.4516942370594784E-025
   8.6800000000000016E-002    -3.1584751615392509E-024
   8.7900000000000006E-002    -5.3332996175557485E-024
   8.9000000000000024E-002    -4.9956285495757721E-024
   9.0100000000000013E-002    -1.0062515361585553E-024
   9.1200000000000003E-002     5.8416225518367968E-024
   9.2300000000000021E-002     1.2338619067367469E-023
   9.3400000000000011E-002     1.3809698037353510E-023
   9.4500000000000028E-002     6.5896231277186109E-024
   9.5600000000000018E-002    -8.9089293330898605E-024
   9.6700000000000008E-002    -2.6365242606740903E-023
   9.7800000000000026E-002    -3.4866604300837144E-023
   9.8900000000000016E-002    -2.4062902136699934E-023
  0.10000000000000001          8.4603692744496596E-024
  0.10110000000000002          5.1556827256675266E-023
  0.10220000000000001          8.1373204407279483E-023
  0.10330000000000003          7.1289928280826374E-023
  0.10440000000000002          8.5990150221621352E-024
  0.10550000000000001         -9.0174170789256525E-023
  0.10660000000000003         -1.7636111252510832E-022
  0.10770000000000002         -1.8653388553982715E-022
  0.10880000000000001         -7.8026840060750647E-023
  0.10990000000000003          1.3283256060967213E-022
  0.11100000000000002          3.5420230389298267E-022
  0.11210000000000001          4.4497495293855239E-022
  0.11320000000000002          2.8579095507026516E-022
  0.11430000000000001         -1.3222722936579072E-022
  0.11540000000000003         -6.5201698043628881E-022
  0.11650000000000002         -9.7994608347899245E-022
  0.11760000000000001         -8.1802725401333853E-022
  0.11870000000000003         -5.6825898570130173E-023
  0.11980000000000002          1.0714183919874957E-021
  0.12090000000000001          1.9969353538384152E-021
  0.12200000000000003          2.0381271858822926E-021
  0.12310000000000001          7.9520760807584785E-022
  0.12420000000000003         -1.4739824995353436E-021
  0.12530000000000002         -3.7472153781047609E-021
  0.12640000000000001         -4.5799112241616232E-021
  0.12750000000000003         -2.8580457616103500E-021
  0.12860000000000002          1.3570419305284290E-021
  0.12970000000000001          6.3979883069516689E-021
  0.13080000000000003          9.4153081435202403E-021
  0.13190000000000002          7.7208150010182713E-021
  0.13300000000000001          5.5160830982332550E-022
  0.13410000000000000         -9.7062300363865343E-021
  0.13520000000000004         -1.7818830576526617E-020
  0.13630000000000003         -1.7918701448057030E-020
  0.13740000000000002         -6.9507511857686620E-021
  0.13850000000000001          1.2366649543151300E-020
  0.13960000000000000          3.1111823174096194E-020
  0.14070000000000005          3.7460957999123534E-020
  0.14180000000000004          2.3005692774935294E-020
  0.14290000000000003         -1.0783695453634995E-020
  0.14400000000000002         -4.9941232400531099E-020
  0.14510000000000001         -7.2235950537409601E-020
  0.14620000000000000         -5.8027999601048311E-020
  0.14730000000000004         -3.3138585400395508E-021
  0.14840000000000003          7.2380221739902178E-020
  0.14950000000000002          1.2992313811455477E-019
  0.15060000000000001          1.2793232196605594E-019
  0.15170000000000000          4.7395546874529505E-020
  0.15280000000000005         -8.9162629918104682E-020
  0.15390000000000004         -2.1757039341232805E-019
  0.15500000000000003         -2.5732298862453394E-019
  0.15610000000000002         -1.5516361295821199E-019
  0.15720000000000001          7.3747387932061910E-020
  0.15830000000000000          3.3293675467095775E-019
  0.15940000000000004          4.7685778130799966E-019
  0.16050000000000003          3.8297611946318912E-019
  0.16160000000000002          3.2546378567057146E-020
  0.16270000000000001         -4.4601045458561044E-019
  0.16380000000000000         -8.0874750692562886E-019
  0.16490000000000005         -8.0661162764990320E-019
  0.16600000000000004         -3.3204940573923457E-019
  0.16710000000000003          4.7526896605110632E-019
  0.16820000000000002          1.2388858656651167E-018
  0.16930000000000001          1.4997867015346045E-018
  0.17040000000000000          9.6396175581470782E-019
  0.17150000000000004         -2.7746159019668375E-019
  0.17260000000000003         -1.6942347210021268E-018
  0.17370000000000002         -2.5078498871494001E-018
  0.17480000000000001         -2.0820233211998751E-018
  0.17590000000000000         -3.3617214138642342E-019
  0.17700000000000005          2.0570192698525777E-018
  0.17810000000000004          3.8657694148623295E-018
  0.17920000000000003          3.8759718814017831E-018
  0.18030000000000002          1.6118990658783119E-018
  0.18140000000000001         -2.1871726083078934E-018
  0.18250000000000000         -5.6812625011482292E-018
  0.18360000000000004         -6.7240163285053442E-018
  0.18470000000000003         -4.0476582016507540E-018
  0.18580000000000002          1.7573987096668198E-018
  0.18690000000000001          8.0988103059246950E-018
  0.18800000000000000          1.1376812108461077E-017
  0.18910000000000005          8.8289122477828293E-018
  0.19020000000000004          3.6465020212023372E-019
  0.19130000000000003         -1.0682810837551612E-017
  0.19240000000000002         -1.8600871516076272E-017
  0.19350000000000001         -1.7984157154785992E-017
  0.19460000000000005         -6.9199999180534005E-018
  0.19570000000000004          1.1039472877406857E-017
  0.19680000000000003          2.7545943034396498E-017
  0.19790000000000002          3.3014809688554315E-017
  0.19900000000000001          2.1728914752033545E-017
  0.20010000000000000         -4.0567271536316775E-018
  0.20120000000000005         -3.3563637187514084E-017
  0.20230000000000004         -5.1598963889385810E-017
  0.20340000000000003         -4.6029183209980834E-017
  0.20450000000000002         -1.5131314220834339E-017
  0.20560000000000000          2.9344066197133723E-017
  0.20670000000000005          6.6013293814896281E-017
  0.20780000000000004          7.3850003305618252E-017
  0.20890000000000003          4.3926857722030718E-017
  0.21000000000000002         -1.3382391720305990E-017
  0.21110000000000001         -7.0722134687154556E-017
  0.21220000000000000         -9.6150322170086448E-017
  0.21330000000000005         -7.0514950231999944E-017
  0.21440000000000003         -8.3188949079796383E-019
  0.21550000000000002          7.8839634671309401E-017
  0.21660000000000001          1.2206550601749577E-016
  0.21770000000000000          9.4949672627186113E-017
  0.21880000000000005         -1.0313741987730526E-018
  0.21990000000000004         -1.2199642004669326E-016
  0.22100000000000003         -1.9795935314754393E-016
  0.22210000000000002         -1.6816768262840346E-016
  0.22320000000000001         -1.9318023079977743E-017
  0.22430000000000000          1.9467428320788163E-016
  0.22540000000000004          3.6680973382643169E-016
  0.22650000000000003          3.8466172063909000E-016
  0.22760000000000002          1.9224888324755652E-016
  0.22870000000000001         -1.6520279141072187E-016
  0.22980000000000000         -5.4195973710266011E-016
  0.23090000000000005         -7.4705013111383842E-016
  0.23200000000000004         -6.3522267240846779E-016
  0.23310000000000003         -1.9176156546891329E-016
  0.23420000000000002          4.3507614084794241E-016
  0.23530000000000001          9.8036090866915798E-016
  0.23640000000000000          1.1763687843247964E-015
  0.23750000000000004          8.8514933339501754E-016
  0.23860000000000003          1.8344597479014588E-016
  0.23970000000000002         -6.5081378330200326E-016
  0.24080000000000001         -1.2560132730987995E-015
  0.24190000000000000         -1.3591271589197070E-015
  0.24300000000000005         -9.1784164103141004E-016
  0.24410000000000004         -1.5326060924475861E-016
  0.24520000000000003          5.5598556990785010E-016
  0.24630000000000002          8.7425201942794498E-016
  0.24740000000000001          7.0123804467572767E-016
  0.24850000000000005          2.4422464467731088E-016
  0.24960000000000004         -8.8473912214641594E-017
  0.25070000000000003          6.4006242007779788E-017
  0.25180000000000002          7.5165591059591669E-016
  0.25290000000000001          1.5944929466962906E-015
  0.25400000000000000          1.9126315001187679E-015
  0.25510000000000005          1.0845525791474593E-015
  0.25620000000000004         -1.0262524849678762E-015
  0.25730000000000003         -3.8117186403722711E-015
  0.25840000000000002         -6.0198229823881229E-015
  0.25950000000000001         -6.2491118093778916E-015
  0.26060000000000005         -3.6603148109432974E-015
  0.26170000000000004          1.4278577811892807E-015
  0.26280000000000003          7.3985864024153651E-015
  0.26390000000000002          1.1819987466840850E-014
  0.26500000000000001          1.2427991127616008E-014
  0.26610000000000000          8.2099660918989841E-015
  0.26720000000000005          7.5608009159830606E-017
  0.26830000000000004         -9.2685420058406758E-015
  0.26940000000000003         -1.6283832501545280E-014
  0.27050000000000002         -1.8042225615260058E-014
  0.27160000000000001         -1.3517158019371659E-014
  0.27270000000000005         -4.1115207798464641E-015
  0.27380000000000004          6.8632336975684730E-015
  0.27490000000000003          1.5550454280659646E-014
  0.27600000000000002          1.9128638588838134E-014
  0.27710000000000001          1.6861180839029312E-014
  0.27820000000000000          1.0129004663143979E-014
  0.27930000000000005          1.4891117518905542E-015
  0.28040000000000004         -6.6715663874550135E-015
  0.28150000000000003         -1.3090651935520958E-014
  0.28260000000000002         -1.7626951055814641E-014
  0.28370000000000001         -2.0330772263824243E-014
  0.28480000000000005         -2.0269645624663925E-014
  0.28590000000000004         -1.5099756312995060E-014
  0.28700000000000003         -2.0849813979350737E-015
  0.28810000000000002          1.9563885721415291E-014
  0.28920000000000001          4.6140233188194503E-014
  0.29030000000000000          6.8369329772638799E-014
  0.29140000000000005          7.3222083964649899E-014
  0.29250000000000004          4.8835175704251535E-014
  0.29360000000000003         -8.9084343951220465E-015
  0.29470000000000002         -9.0941785567550449E-014
  0.29580000000000001         -1.7378595285950609E-013
  0.29690000000000005         -2.2440103867149490E-013
  0.29800000000000004         -2.1062623838905571E-013
  0.29910000000000003         -1.1412650016957292E-013
  0.30020000000000002          5.8891972845532408E-014
  0.30130000000000001          2.7377874364495140E-013
  0.30240000000000000          4.7284051445470082E-013
  0.30350000000000005          5.8927504902074494E-013
  0.30460000000000004          5.6576358646447838E-013
  0.30570000000000003          3.7220777908785234E-013
  0.30680000000000002          1.7553152770753801E-014
  0.30790000000000001         -4.4715277685788391E-013
  0.30900000000000005         -9.3453499544679635E-013
  0.31010000000000004         -1.3335468783798597E-012
  0.31120000000000003         -1.5266216068255728E-012
  0.31230000000000002         -1.4098133561518381E-012
  0.31340000000000001         -9.1546313899661268E-013
  0.31450000000000006         -3.6652741680031541E-014
  0.31560000000000005          1.1496188006842666E-012
  0.31670000000000004          2.4673461998264054E-012
  0.31780000000000003          3.6444254735935057E-012
  0.31890000000000002          4.3433139097146343E-012
  0.32000000000000001          4.2239445564045898E-012
  0.32110000000000005          3.0333105956437172E-012
  0.32220000000000004          7.0396483979833974E-013
  0.32330000000000003         -2.5659682620834076E-012
  0.32440000000000002         -6.2811726268763783E-012
  0.32550000000000001         -9.6885303614743804E-012
  0.32660000000000006         -1.1893908605994476E-011
  0.32770000000000005         -1.2041832813628698E-011
  0.32880000000000004         -9.5243812848445105E-012
  0.32990000000000003         -4.1742186910225418E-012
  0.33100000000000002          3.6036683741479519E-012
  0.33210000000000001          1.2796628355799949E-011
  0.33320000000000005          2.1863262947604124E-011
  0.33430000000000004          2.8925153935875051E-011
  0.33540000000000003          3.2052756255071931E-011
  0.33650000000000002          2.9613061943830919E-011
  0.33760000000000001          2.0635611186142397E-011
  0.33870000000000006          5.1437234466644428E-012
  0.33980000000000005         -1.5610388086228353E-011
  0.34090000000000004         -3.9071294878367839E-011
  0.34200000000000003         -6.1524382806612244E-011
  0.34310000000000002         -7.8492330584622583E-011
  0.34420000000000001         -8.5376837320597831E-011
  0.34530000000000005         -7.8283525162512361E-011
  0.34640000000000004         -5.4911571412769856E-011
  0.34750000000000003         -1.5347413902056187E-011
  0.34860000000000002          3.7411529060916482E-011
  0.34970000000000001          9.7353243662771742E-011
  0.35080000000000006          1.5585842325459706E-010
  0.35190000000000005          2.0262629027387391E-010
  0.35300000000000004          2.2703722153418126E-010
  0.35410000000000003          2.1979237762497716E-010
  0.35520000000000002          1.7461755523993685E-010
  0.35630000000000001          8.9793685115640931E-011
  0.35740000000000005         -3.0718328177500651E-011
  0.35850000000000004         -1.7676253562362159E-010
  0.35960000000000003         -3.3223709863540861E-010
  0.36070000000000002         -4.7619341679263511E-010
  0.36180000000000001         -5.8478210941039291E-010
  0.36290000000000006         -6.3393839869449247E-010
  0.36400000000000005         -6.0258758727319281E-010
  0.36510000000000004         -4.7604930727776448E-010
  0.36620000000000003         -2.4924270643203820E-010
  0.36730000000000002          7.0732415280036428E-011
  0.36840000000000006          4.6304407589685273E-010
  0.36950000000000005          8.9293955398814553E-010
  0.37060000000000004          1.3131483636146845E-009
  0.37170000000000003          1.6669814349523805E-009
  0.37280000000000002          1.8930943388079678E-009
  0.37390000000000001          1.9317383140613905E-009
  0.37500000000000006          1.7321594044859237E-009
  0.37610000000000005          1.2606208192581837E-009
  0.37720000000000004          5.0832948121927022E-010
  0.37830000000000003         -5.0163507127218424E-010
  0.37940000000000002         -1.7094055050030086E-009
  0.38050000000000006         -3.0164390907460713E-009
  0.38160000000000005         -4.2875169928950413E-009
  0.38270000000000004         -5.3571764575729117E-009
  0.38380000000000003         -6.0406883648038935E-009
  0.38490000000000002         -6.1491966737147354E-009
  0.38600000000000001         -5.5081716613974004E-009
  0.38710000000000000         -3.9779539337514690E-009
  0.38819999999999999         -1.4749251572075077E-009
  0.38930000000000009          2.0082613464179360E-009
  0.39040000000000008          6.3849219166363124E-009
  0.39150000000000007          1.1460429017421515E-008
  0.39260000000000006          1.6923225425228202E-008
  0.39370000000000005          2.2341367771743103E-008
  0.39480000000000004          2.7164521170639993E-008
  0.39590000000000003          3.0730454466403483E-008
  0.39700000000000002          3.2274005507310710E-008
  0.39810000000000001          3.0935481536917175E-008
  0.39920000000000000          2.5764558297302940E-008
  0.40029999999999999          1.5715231622928553E-008
  0.40140000000000009         -3.7256357826854474E-010
  0.40250000000000008         -2.3808654600059968E-008
  0.40360000000000007         -5.6108713964867970E-008
  0.40470000000000006         -9.9072707005246230E-008
  0.40580000000000005         -1.5488693285022845E-007
  0.40690000000000004         -2.2625050530606292E-007
  0.40800000000000003         -3.1652689208105284E-007
  0.40910000000000002         -4.2992155402123083E-007
  0.41020000000000001         -5.7168818724364807E-007
  0.41130000000000000         -7.4836600177613123E-007
  0.41239999999999999         -9.6805251312273920E-007
  0.41350000000000009         -1.2407164084392652E-006
  0.41460000000000008         -1.5785571948422042E-006
  0.41570000000000007         -1.9964186215916662E-006
  0.41680000000000006         -2.5122633226360855E-006
  0.41790000000000005         -3.1477224924694276E-006
  0.41900000000000004         -3.9287265070164264E-006
  0.42010000000000003         -4.8862288814110388E-006
  0.42120000000000002         -6.0570382302701702E-006
  0.42230000000000001         -7.4847666432885038E-006
  0.42340000000000000         -9.2209047079698166E-006
  0.42449999999999999         -1.1326030228078607E-005
  0.42560000000000009         -1.3871156549527525E-005
  0.42670000000000008         -1.6939235045615792E-005
  0.42780000000000007         -2.0626801302429454E-005
  0.42890000000000006         -2.5045783194297551E-005
  0.43000000000000005         -3.0325469030314613E-005
  0.43110000000000004         -3.6614637590919222E-005
  0.43220000000000003         -4.4083815493729651E-005
  0.43330000000000002         -5.2927698268425066E-005
  0.43440000000000001         -6.3367675114021685E-005
  0.43550000000000000         -7.5654453700565498E-005
  0.43659999999999999         -9.0070737721516982E-005
  0.43770000000000009         -1.0693393354996604E-004
  0.43880000000000008         -1.2659883870495280E-004
  0.43990000000000007         -1.4946015933278424E-004
  0.44100000000000006         -1.7595496220473310E-004
  0.44210000000000005         -2.0656477019281524E-004
  0.44320000000000004         -2.4181735215534801E-004
  0.44430000000000003         -2.8228806171313922E-004
  0.44540000000000002         -3.2860052118949420E-004
  0.44650000000000001         -3.8142685444085263E-004
  0.44760000000000000         -4.4148685739762105E-004
  0.44869999999999999         -5.0954642645733151E-004
  0.44980000000000009         -5.8641470630926829E-004
  0.45090000000000008         -6.7294016091737450E-004
  0.45200000000000007         -7.7000516020781233E-004
  0.45310000000000006         -8.7851914066884162E-004
  0.45420000000000005         -9.9941028165535448E-004
  0.45530000000000004         -1.1336150280099673E-003
  0.45640000000000003         -1.2820660992849382E-003
  0.45750000000000002         -1.4456785199036314E-003
  0.45860000000000001         -1.6253333210155506E-003
  0.45970000000000000         -1.8218601946134898E-003
  0.46079999999999999         -2.0360173536829785E-003
  0.46190000000000009         -2.2684710431057679E-003
  0.46300000000000008         -2.5197716745190024E-003
  0.46410000000000007         -2.7903287970211721E-003
  0.46520000000000006         -3.0803864171240537E-003
  0.46630000000000005         -3.3899964560595024E-003
  0.46740000000000004         -3.7189929055781818E-003
  0.46850000000000003         -4.0669636554418603E-003
  0.46960000000000002         -4.4332267446979328E-003
  0.47070000000000001         -4.8168040518168599E-003
  0.47180000000000000         -5.2163982444586171E-003
  0.47289999999999999         -5.6303748515132779E-003
  0.47400000000000009         -6.0567431709883839E-003
  0.47510000000000008         -6.4931436971542985E-003
  0.47620000000000007         -6.9368388073185435E-003
  0.47730000000000006         -7.3847104335194287E-003
  0.47840000000000005         -7.8332619251712306E-003