 -0.119999997         0.00000000    
 -0.119000003         0.00000000    
 -0.118000001         0.00000000    
 -0.116999999         0.00000000    
 -0.115999997         0.00000000    
 -0.115000002         0.00000000    
 -0.114000000         0.00000000    
 -0.112999998         0.00000000    
 -0.112000003         0.00000000    
 -0.111000001         0.00000000    
 -0.109999999         0.00000000    
 -0.108999997         0.00000000    
 -0.108000003         0.00000000    
 -0.107000001         0.00000000    
 -0.105999999         0.00000000    
 -0.104999997         0.00000000    
 -0.104000002         0.00000000    
 -0.103000000         0.00000000    
 -0.101999998         0.00000000    
 -0.101000004         0.00000000    
 -0.100000001         0.00000000    
  -9.89999995E-02     0.00000000    
  -9.79999974E-02     0.00000000    
  -9.70000029E-02     0.00000000    
  -9.60000008E-02     0.00000000    
  -9.49999988E-02     0.00000000    
  -9.39999968E-02     0.00000000    
  -9.30000022E-02     0.00000000    
  -9.20000002E-02     0.00000000    
  -9.09999982E-02     0.00000000    
  -9.00000036E-02     0.00000000    
  -8.90000015E-02     0.00000000    
  -8.79999995E-02     0.00000000    
  -8.69999975E-02     0.00000000    
  -8.60000029E-02     0.00000000    
  -8.50000009E-02     0.00000000    
  -8.39999989E-02     0.00000000    
  -8.29999968E-02     0.00000000    
  -8.20000023E-02     0.00000000    
  -8.10000002E-02     0.00000000    
  -7.99999982E-02     0.00000000    
  -7.90000036E-02     0.00000000    
  -7.80000016E-02     0.00000000    
  -7.69999996E-02     0.00000000    
  -7.59999976E-02     0.00000000    
  -7.50000030E-02     0.00000000    
  -7.40000010E-02     0.00000000    
  -7.29999989E-02     0.00000000    
  -7.19999969E-02     0.00000000    
  -7.10000023E-02     0.00000000    
  -7.00000003E-02     0.00000000    
  -6.89999983E-02     0.00000000    
  -6.80000037E-02     0.00000000    
  -6.70000017E-02     0.00000000    
  -6.59999996E-02     0.00000000    
  -6.49999976E-02     0.00000000    
  -6.40000030E-02     0.00000000    
  -6.30000010E-02     0.00000000    
  -6.19999990E-02     0.00000000    
  -6.10000007E-02     0.00000000    
  -5.99999987E-02     0.00000000    
  -5.90000004E-02     0.00000000    
  -5.79999983E-02     0.00000000    
  -5.70000000E-02     0.00000000    
  -5.60000017E-02     0.00000000    
  -5.49999997E-02     0.00000000    
  -5.40000014E-02     0.00000000    
  -5.29999994E-02     0.00000000    
  -5.20000011E-02     0.00000000    
  -5.09999990E-02     0.00000000    
  -5.00000007E-02     0.00000000    
  -4.89999987E-02     0.00000000    
  -4.80000004E-02     0.00000000    
  -4.69999984E-02     0.00000000    
  -4.60000001E-02     0.00000000    
  -4.50000018E-02     0.00000000    
  -4.39999998E-02     0.00000000    
  -4.30000015E-02     0.00000000    
  -4.19999994E-02     0.00000000    
  -4.10000011E-02     0.00000000    
  -3.99999991E-02     0.00000000    
  -3.90000008E-02     0.00000000    
  -3.79999988E-02     0.00000000    
  -3.70000005E-02     0.00000000    
  -3.59999985E-02     0.00000000    
  -3.50000001E-02     0.00000000    
  -3.40000018E-02     0.00000000    
  -3.29999998E-02     0.00000000    
  -3.20000015E-02     0.00000000    
  -3.09999995E-02     0.00000000    
  -2.99999993E-02     0.00000000    
  -2.89999992E-02     0.00000000    
  -2.80000009E-02     0.00000000    
  -2.70000007E-02     0.00000000    
  -2.60000005E-02     0.00000000    
  -2.50000004E-02     0.00000000    
  -2.40000002E-02     0.00000000    
  -2.30000000E-02     0.00000000    
  -2.19999999E-02     0.00000000    
  -2.09999997E-02     0.00000000    
  -1.99999996E-02     0.00000000    
  -1.89999994E-02     0.00000000    
  -1.79999992E-02     0.00000000    
  -1.70000009E-02     0.00000000    
  -1.60000008E-02     0.00000000    
  -1.49999997E-02     0.00000000    
  -1.40000004E-02     0.00000000    
  -1.30000003E-02     0.00000000    
  -1.20000001E-02     0.00000000    
  -1.09999999E-02     0.00000000    
  -9.99999978E-03     0.00000000    
  -8.99999961E-03     0.00000000    
  -8.00000038E-03     0.00000000    
  -7.00000022E-03     0.00000000    
  -6.00000005E-03     0.00000000    
  -4.99999989E-03     0.00000000    
  -4.00000019E-03     0.00000000    
  -3.00000003E-03     0.00000000    
  -2.00000009E-03     0.00000000    
  -1.00000005E-03     0.00000000    
   0.00000000         0.00000000    
   1.00000005E-03     0.00000000    
   2.00000009E-03     0.00000000    
   3.00000003E-03     0.00000000    
   4.00000019E-03     0.00000000    
   4.99999989E-03     0.00000000    
   6.00000005E-03     0.00000000    
   7.00000022E-03     0.00000000    
   8.00000038E-03     0.00000000    
   8.99999961E-03     0.00000000    
   9.99999978E-03     0.00000000    
   1.09999999E-02     0.00000000    
   1.20000001E-02     0.00000000    
   1.30000003E-02     0.00000000    
   1.40000004E-02     0.00000000    
   1.49999997E-02     0.00000000    
   1.60000008E-02     0.00000000    
   1.70000009E-02     0.00000000    
   1.79999992E-02     0.00000000    
   1.89999994E-02     0.00000000    
   1.99999996E-02     0.00000000    
   2.09999997E-02     0.00000000    
   2.19999999E-02     0.00000000    
   2.30000000E-02     0.00000000    
   2.40000002E-02     0.00000000    
   2.50000004E-02     0.00000000    
   2.60000005E-02     0.00000000    
   2.70000007E-02     0.00000000    
   2.80000009E-02     0.00000000    
   2.89999992E-02     0.00000000    
   2.99999993E-02     0.00000000    
   3.09999995E-02     0.00000000    
   3.20000015E-02     0.00000000    
   3.29999998E-02     0.00000000    
   3.40000018E-02     0.00000000    
   3.50000001E-02     0.00000000    
   3.59999985E-02     0.00000000    
   3.70000005E-02     0.00000000    
   3.79999988E-02     0.00000000    
   3.90000008E-02     0.00000000    
   3.99999991E-02     0.00000000    
   4.10000011E-02     0.00000000    
   4.19999994E-02     0.00000000    
   4.30000015E-02     0.00000000    
   4.39999998E-02     0.00000000    
   4.50000018E-02     0.00000000    
   4.60000001E-02     0.00000000    
   4.69999984E-02     0.00000000    
   4.80000004E-02     0.00000000    
   4.89999987E-02     0.00000000    
   5.00000007E-02     0.00000000    
   5.09999990E-02     0.00000000    
   5.20000011E-02     0.00000000    
   5.29999994E-02     0.00000000    
   5.40000014E-02     0.00000000    
   5.49999997E-02     0.00000000    
   5.60000017E-02     0.00000000    
   5.70000000E-02     0.00000000    
   5.79999983E-02     0.00000000    
   5.90000004E-02     0.00000000    
   5.99999987E-02     0.00000000    
   6.10000007E-02     0.00000000    
   6.19999990E-02     0.00000000    
   6.30000010E-02     0.00000000    
   6.40000030E-02     0.00000000    
   6.49999976E-02     0.00000000    
   6.59999996E-02     0.00000000    
   6.70000017E-02     0.00000000    
   6.80000037E-02     0.00000000    
   6.89999983E-02     0.00000000    
   7.00000003E-02     0.00000000    
   7.10000023E-02     0.00000000    
   7.19999969E-02     0.00000000    
   7.29999989E-02     0.00000000    
   7.40000010E-02     0.00000000    
   7.50000030E-02     0.00000000    
   7.59999976E-02     0.00000000    
   7.69999996E-02     0.00000000    
   7.80000016E-02     0.00000000    
   7.90000036E-02     0.00000000    
   7.99999982E-02     0.00000000    
   8.10000002E-02     0.00000000    
   8.20000023E-02     0.00000000    
   8.29999968E-02     0.00000000    
   8.39999989E-02     0.00000000    
   8.50000009E-02     0.00000000    
   8.60000029E-02     0.00000000    
   8.69999975E-02     0.00000000    
   8.79999995E-02     0.00000000    
   8.90000015E-02     0.00000000    
   9.00000036E-02     0.00000000    
   9.09999982E-02     0.00000000    
   9.20000002E-02     0.00000000    
   9.30000022E-02     0.00000000    
   9.39999968E-02     0.00000000    
   9.49999988E-02     0.00000000    
   9.60000008E-02     0.00000000    
   9.70000029E-02     0.00000000    
   9.79999974E-02     0.00000000    
   9.89999995E-02     0.00000000    
  0.100000001         0.00000000    
  0.101000004         0.00000000    
  0.101999998         0.00000000    
  0.103000000         0.00000000    
  0.104000002         0.00000000    
  0.104999997         0.00000000    
  0.105999999         0.00000000    
  0.107000001         0.00000000    
  0.108000003         0.00000000    
  0.108999997         0.00000000    
  0.109999999         0.00000000    
  0.111000001         0.00000000    
  0.112000003         0.00000000    
  0.112999998         0.00000000    
  0.114000000         0.00000000    
  0.115000002         0.00000000    
  0.115999997         0.00000000    
  0.116999999         0.00000000    
  0.118000001         0.00000000    
  0.119000003         0.00000000    
  0.119999997         0.00000000    
  0.120999999         0.00000000    
  0.122000001         0.00000000    
  0.123000003         0.00000000    
  0.123999998         0.00000000    
  0.125000000         0.00000000    
  0.126000002         0.00000000    
  0.127000004         0.00000000    
  0.128000006         0.00000000    
  0.128999993         0.00000000    
  0.129999995         0.00000000    
  0.130999997         0.00000000    
  0.131999999         0.00000000    
  0.133000001         0.00000000    
  0.134000003         0.00000000    
  0.135000005         0.00000000    
  0.136000007         0.00000000    
  0.136999995         0.00000000    
  0.137999997         0.00000000    
  0.138999999         0.00000000    
  0.140000001         0.00000000    
  0.141000003         0.00000000    
  0.142000005         0.00000000    
  0.143000007         0.00000000    
  0.143999994         0.00000000    
  0.144999996         0.00000000    
  0.145999998         0.00000000    
  0.147000000         0.00000000    
  0.148000002         0.00000000    
  0.149000004         0.00000000    
  0.150000006         0.00000000    
  0.150999993         0.00000000    
  0.151999995         0.00000000    
  0.152999997         0.00000000    
  0.153999999         0.00000000    
  0.155000001         0.00000000    
  0.156000003         0.00000000    
  0.157000005         0.00000000    
  0.158000007         0.00000000    
  0.158999994         0.00000000    
  0.159999996         0.00000000    
  0.160999998         0.00000000    
  0.162000000         0.00000000    
  0.163000003         0.00000000    
  0.164000005         0.00000000    
  0.165000007         0.00000000    
  0.165999994         0.00000000    
  0.166999996         0.00000000    
  0.167999998         0.00000000    
  0.169000000         0.00000000    
  0.170000002         0.00000000    
  0.171000004         0.00000000    
  0.172000006         0.00000000    
  0.172999993         0.00000000    
  0.173999995         0.00000000    
  0.174999997         0.00000000    
  0.175999999         0.00000000    
  0.177000001         0.00000000    
  0.178000003         0.00000000    
  0.179000005         0.00000000    
  0.180000007         0.00000000    
  0.180999994         0.00000000    
  0.181999996         0.00000000    
  0.182999998         0.00000000    
  0.184000000         0.00000000    
  0.185000002         0.00000000    
  0.186000004         0.00000000    
  0.187000006         0.00000000    
  0.187999994         0.00000000    
  0.188999996         0.00000000    
  0.189999998         0.00000000    
  0.191000000         0.00000000    
  0.192000002         0.00000000    
  0.193000004         0.00000000    
  0.194000006         0.00000000    
  0.194999993         0.00000000    
  0.195999995         0.00000000    
  0.196999997         0.00000000    
  0.197999999         0.00000000    
  0.199000001         0.00000000    
  0.200000003         0.00000000    
  0.201000005         0.00000000    
  0.202000007        -1.55349615E-38
  0.202999994        -3.40984710E-38
  0.203999996        -5.61951176E-38
  0.204999998        -6.40061234E-38
  0.206000000        -4.75940766E-38
  0.207000002        -1.78737651E-38
  0.208000004         3.96519485E-38
  0.209000006         1.05542796E-37
  0.209999993         1.36447436E-37
  0.210999995         9.38241237E-38
  0.211999997        -3.28212266E-38
  0.213000000        -2.15525152E-37
  0.214000002        -3.41640018E-37
  0.215000004        -2.92382270E-37
  0.216000006        -0.00000000    
  0.216999993         4.58256390E-37
  0.217999995         9.00468923E-37
  0.218999997         1.05492098E-36
  0.219999999         7.14877905E-37
  0.221000001        -1.51621850E-37
  0.222000003        -1.34142773E-36
  0.223000005        -2.36738600E-36
  0.224000007        -2.64413604E-36
  0.224999994        -1.73412250E-36
  0.225999996         3.81916565E-37
  0.226999998         3.14416937E-36
  0.228000000         5.44589981E-36
  0.229000002         5.98868167E-36
  0.230000004         3.83143824E-36
  0.231000006        -1.01762303E-36
  0.231999993        -7.24988365E-36
  0.232999995        -1.23774461E-35
  0.233999997        -1.35036679E-35
  0.234999999        -8.54691798E-36
  0.236000001         2.43919454E-36
  0.237000003         1.64776973E-35
  0.238000005         2.79815812E-35
  0.238999993         3.04684807E-35
  0.239999995         1.92924179E-35
  0.240999997        -5.38064387E-36
  0.241999999        -3.68463526E-35
  0.243000001        -6.26310335E-35
  0.244000003        -6.82518997E-35
  0.245000005        -4.34211772E-35
  0.246000007         1.14495216E-35
  0.246999994         8.14126552E-35
  0.247999996         1.38740143E-34
  0.248999998         1.51410927E-34
  0.250000000         9.68273293E-35
  0.250999987        -2.39176108E-35
  0.252000004        -1.77851962E-34
  0.252999991        -3.04119720E-34
  0.254000008        -3.32743306E-34
  0.254999995        -2.14536122E-34
  0.256000012         4.79860729E-35
  0.256999999         3.83121091E-34
  0.257999986         6.59021393E-34
  0.259000003         7.24483801E-34
  0.259999990         4.73420477E-34
  0.261000007        -8.90953144E-35
  0.261999995        -8.09892282E-34
  0.263000011        -1.40757294E-33
  0.263999999        -1.55958272E-33
  0.264999986        -1.03897703E-33
  0.266000003         1.46237811E-34
  0.266999990         1.67565710E-33
  0.268000007         2.95840575E-33
  0.268999994         3.31553875E-33
  0.270000011         2.26544100E-33
  0.270999998        -1.85989689E-34
  0.272000015        -3.38374167E-33
  0.273000002        -6.10865623E-33
  0.273999989        -6.95151874E-33
  0.275000006        -4.89876985E-33
  0.275999993         7.10879807E-35
  0.277000010         6.65185070E-33
  0.277999997         1.23740117E-32
  0.279000014         1.43554573E-32
  0.280000001         1.04828918E-32
  0.280999988         6.21073267E-34
  0.282000005        -1.26937315E-32
  0.282999992        -2.45554951E-32
  0.284000009        -2.91611202E-32
  0.284999996        -2.21511904E-32
  0.286000013        -3.02718264E-33
  0.287000000         2.34255365E-32
  0.287999988         4.76574944E-32
  0.289000005         5.81769023E-32
  0.289999992         4.61022125E-32
  0.291000009         9.92212153E-33
  0.291999996        -4.16100903E-32
  0.293000013        -9.03003652E-32
  0.294000000        -1.13789993E-31
  0.294999987        -9.42420387E-32
  0.296000004        -2.75679639E-32
  0.296999991         7.07501368E-32
  0.298000008         1.66810348E-31
  0.298999995         2.17909381E-31
  0.300000012         1.88793726E-31
  0.300999999         6.92523983E-32
  0.301999986        -1.14323455E-31
  0.303000003        -3.00190483E-31
  0.303999990        -4.08331520E-31
  0.305000007        -3.70255777E-31
  0.305999994        -1.61977655E-31
  0.307000011         1.73366503E-31
  0.307999998         5.25941234E-31
  0.308999985         7.48705689E-31
  0.310000002         7.10949751E-31
  0.310999990         3.59043206E-31
  0.312000006        -2.40010626E-31
  0.312999994        -8.95573035E-31
  0.314000010        -1.34280359E-30
  0.314999998        -1.33682352E-30
  0.316000015        -7.62615502E-31
  0.317000002         2.82523578E-31
  0.317999989         1.47631803E-30
  0.319000006         2.35168121E-30
  0.319999993         2.45873038E-30
  0.321000010         1.55989191E-30
  0.321999997        -2.16848333E-31
  0.323000014        -2.34203049E-30
  0.324000001        -4.01002613E-30
  0.324999988        -4.41149338E-30
  0.326000005        -3.07302341E-30
  0.326999992        -1.36431659E-31
  0.328000009         3.55454972E-30
  0.328999996         6.64213290E-30
  0.330000013         7.70208876E-30
  0.331000000         5.82334673E-30
  0.331999987         1.10673489E-30
  0.333000004        -5.14480249E-30
  0.333999991        -1.06945001E-29
  0.335000008        -1.30902404E-29
  0.335999995        -1.06344533E-29
  0.337000012        -3.25712633E-30
  0.338000000         7.09329402E-30
  0.338999987         1.68102282E-29
  0.340000004         2.17557184E-29
  0.340999991         1.88532502E-29
  0.342000008         7.58756815E-30
  0.342999995        -9.22937753E-30
  0.344000012        -2.59002489E-29
  0.344999999        -3.55668494E-29
  0.345999986        -3.27780307E-29
  0.347000003        -1.60214426E-29
  0.347999990         1.08292641E-29
  0.349000007         3.89713008E-29
  0.349999994         5.72397634E-29
  0.351000011         5.61674417E-29
  0.351999998         3.21827197E-29
  0.352999985        -9.73942171E-30
  0.354000002        -5.63646208E-29
  0.354999989        -8.98948806E-29
  0.356000006        -9.42477531E-29
  0.356999993        -6.18806828E-29
  0.358000010         1.49763218E-30
  0.358999997         7.66453733E-29
  0.360000014         1.35903331E-28
  0.361000001         1.52677025E-28
  0.361999989         1.12292669E-28
  0.363000005         2.01141836E-29
  0.363999993        -9.68587063E-29
  0.365000010        -1.96769554E-28
  0.365999997        -2.36891189E-28
  0.367000014        -1.90533537E-28
  0.368000001        -6.06269987E-29
  0.368999988         1.16070092E-28
  0.370000005         2.77529996E-28
  0.370999992         3.56665783E-28
  0.372000009         3.07211393E-28
  0.372999996         1.25947368E-28
  0.374000013        -1.38259453E-28
  0.375000000        -3.94567795E-28
  0.375999987        -5.38813424E-28
  0.377000004        -4.92596594E-28
  0.377999991        -2.39123919E-28
  0.379000008         1.58989971E-28
  0.379999995         5.70191734E-28
  0.381000012         8.33554902E-28
  0.381999999         8.16922667E-28
  0.382999986         4.73977907E-28
  0.384000003        -1.22343352E-28
  0.384999990        -7.87228054E-28
  0.386000007        -1.27620284E-27
  0.386999995        -1.36940071E-27
  0.388000011        -9.60482834E-28
  0.388999999        -1.16526333E-28
  0.389999986         9.18998592E-28
  0.391000003         1.79044713E-27
  0.391999990         2.14733870E-27
  0.393000007         1.77800504E-27
  0.393999994         7.10746053E-28
  0.395000011        -7.61264255E-28
  0.395999998        -2.15232455E-27
  0.397000015        -2.94049578E-27
  0.398000002        -2.76019137E-27
  0.398999989        -1.56238245E-27
  0.400000006         3.23886696E-28
  0.400999993         2.26660365E-27
  0.402000010         3.53321439E-27
  0.402999997         3.56046553E-27
  0.404000014         2.19686630E-27
  0.405000001        -1.80381816E-28
  0.405999988        -2.73801641E-27
  0.407000005        -4.44898253E-27
  0.407999992        -4.47090539E-27
  0.409000009        -2.51122160E-27
  0.409999996         9.65156295E-28
  0.411000013         4.79105503E-27
  0.412000000         7.43557948E-27
  0.412999988         7.54088240E-27
  0.414000005         4.48323172E-27
  0.414999992        -1.25148786E-27
  0.416000009        -8.04948737E-27
  0.416999996        -1.35711778E-26
  0.418000013        -1.54890543E-26
  0.419000000        -1.23396365E-26
  0.419999987        -4.19407607E-27
  0.421000004         7.12225919E-27
  0.421999991         1.84023500E-26
  0.423000008         2.59664167E-26
  0.423999995         2.68503354E-26
  0.425000012         1.98854886E-26
  0.425999999         6.27725935E-27
  0.426999986        -1.05724248E-26
  0.428000003        -2.60069044E-26
  0.428999990        -3.55543462E-26
  0.430000007        -3.63936356E-26
  0.430999994        -2.83245931E-26
  0.432000011        -1.38592322E-26
  0.432999998         2.65316321E-27
  0.433999985         1.65963916E-26
  0.435000002         2.47923298E-26
  0.435999990         2.66766596E-26
  0.437000006         2.44264293E-26
  0.437999994         2.18874496E-26
  0.439000010         2.26226865E-26
  0.439999998         2.78111649E-26
  0.441000015         3.49016223E-26
  0.442000002         3.77642013E-26
  0.442999989         2.86003185E-26
  0.444000006         1.20289877E-27
  0.444999993        -4.54648119E-26
  0.446000010        -1.04740156E-25
  0.446999997        -1.62026693E-25
  0.448000014        -1.97491204E-25
  0.449000001        -1.91383806E-25
  0.449999988        -1.30682833E-25
  0.451000005        -1.50767173E-26
  0.451999992         1.39810928E-25
  0.453000009         3.03459235E-25
  0.453999996         4.36095275E-25
  0.455000013         4.97884630E-25
  0.456000000         4.59401875E-25
  0.456999987         3.10531398E-25
  0.458000004         6.52180215E-26
  0.458999991        -2.39427938E-25
  0.460000008        -5.49589483E-25
  0.460999995        -8.05120758E-25
  0.462000012        -9.51171009E-25
  0.463000000        -9.48237432E-25
  0.463999987        -7.78603495E-25
  0.465000004        -4.48502233E-25
  0.465999991         1.32141197E-26
  0.467000008         5.58209809E-25
  0.467999995         1.12195397E-24
  0.469000012         1.62649984E-24
  0.469999999         1.98363749E-24
  0.470999986         2.10066204E-24
  0.472000003         1.89139361E-24
  0.472999990         1.29396913E-24
  0.474000007         2.94326617E-25
  0.474999994        -1.04913964E-24
  0.476000011        -2.58739376E-24
  0.476999998        -4.07810165E-24
  0.477999985        -5.20623348E-24
  0.479000002        -5.63121376E-24
  0.479999989        -5.05702675E-24
  0.481000006        -3.31396483E-24
  0.481999993        -4.34301899E-25
  0.483000010         3.29870116E-24
  0.483999997         7.34697005E-24
  0.485000014         1.09701853E-23
  0.486000001         1.33346460E-23
  0.486999989         1.36653554E-23
  0.488000005         1.14166443E-23
  0.488999993         6.42920888E-24
  0.490000010        -9.59909911E-25
  0.490999997        -9.88267193E-24
  0.492000014        -1.89981230E-23
  0.493000001        -2.66462478E-23
  0.493999988        -3.10850797E-23
  0.495000005        -3.07843376E-23
  0.495999992        -2.47373969E-23
  0.497000009        -1.27457448E-23
  0.497999996         4.37334428E-24
  0.499000013         2.47037756E-23
  0.500000000         4.53130318E-23
  0.500999987         6.25264911E-23
  0.501999974         7.23972741E-23
  0.503000021         7.13438482E-23
  0.504000008         5.68893226E-23
  0.504999995         2.83967270E-23
  0.505999982        -1.23380567E-23
  0.507000029        -6.07894699E-23
  0.508000016        -1.09843580E-22
  0.509000003        -1.50472921E-22
  0.509999990        -1.72959508E-22
  0.510999978        -1.68572457E-22
  0.512000024        -1.31488535E-22
  0.513000011        -6.06385009E-23
  0.513999999         3.89037579E-23
  0.514999986         1.55375697E-22
  0.515999973         2.70936159E-22
  0.517000020         3.63588844E-22
  0.518000007         4.10358299E-22
  0.518999994         3.91402640E-22
  0.519999981         2.94499169E-22
  0.521000028         1.19143669E-22
  0.522000015        -1.20590062E-22
  0.523000002        -3.95243093E-22
  0.523999989        -6.61832994E-22
  0.524999976        -8.68651523E-22
  0.526000023        -9.62795319E-22
  0.527000010        -8.99686245E-22
  0.527999997        -6.53309459E-22
  0.528999984        -2.25471088E-22
  0.529999971         3.47848532E-22
  0.531000018         9.94905921E-22
  0.532000005         1.61281640E-21
  0.532999992         2.07905688E-21
  0.533999979         2.26942474E-21
  0.535000026         2.08073345E-21
  0.536000013         1.45522426E-21
  0.537000000         4.02583538E-22
  0.537999988        -9.85127580E-22
  0.538999975        -2.53019484E-21
  0.540000021        -3.98116253E-21
  0.541000009        -5.04153093E-21
  0.541999996        -5.41408452E-21
  0.542999983        -4.85649168E-21
  0.544000030        -3.24059496E-21
  0.545000017        -6.05227516E-22
  0.546000004         2.80895854E-21
  0.546999991         6.55369545E-21
  0.547999978         1.00047269E-20
  0.549000025         1.24343955E-20
  0.550000012         1.31220071E-20
  0.550999999         1.14909596E-20
  0.551999986         7.25389980E-21
  0.552999973         5.40941991E-22
  0.554000020        -8.01720575E-21
  0.555000007        -1.72781955E-20
  0.555999994        -2.56696439E-20
  0.556999981        -3.13721237E-20
  0.558000028        -3.25958534E-20
  0.559000015        -2.79241118E-20
  0.560000002        -1.66771518E-20
  0.560999990         7.65492548E-22
  0.561999977         2.27548969E-20
  0.563000023         4.63433787E-20
  0.564000010         6.74891427E-20
  0.564999998         8.15192568E-20
  0.565999985         8.38342187E-20
  0.566999972         7.07883655E-20
  0.568000019         4.06306852E-20
  0.569000006        -5.65154836E-21
  0.569999993        -6.37683551E-20
  0.570999980        -1.26021600E-19
  0.572000027        -1.81802628E-19
  0.573000014        -2.18765672E-19
  0.574000001        -2.24645349E-19
  0.574999988        -1.89560638E-19
  0.575999975        -1.08515085E-19
  0.577000022         1.63112730E-20
  0.578000009         1.73956031E-19
  0.578999996         3.44237829E-19
  0.579999983         4.98892738E-19
  0.580999970         6.04511605E-19
  0.582000017         6.27243666E-19
  0.583000004         5.38900983E-19
  0.583999991         3.23745231E-19
  0.584999979        -1.50836142E-20
  0.586000025        -4.50760908E-19
  0.587000012        -9.30915886E-19
  0.588000000        -1.37987716E-18
  0.588999987        -1.70577329E-18
  0.589999974        -1.81257937E-18
  0.591000021        -1.61633821E-18
  0.592000008        -1.06383378E-18
  0.592999995        -1.51067039E-19
  0.593999982         1.06181598E-18
  0.595000029         2.44280869E-18
  0.596000016         3.79095634E-18
  0.597000003         4.85239450E-18
  0.597999990         5.35039983E-18
  0.598999977         5.02812158E-18
  0.600000024         3.70005953E-18
  0.601000011         1.30571576E-18
  0.601999998        -2.04338282E-18
  0.602999985        -6.03340783E-18
  0.603999972        -1.01447531E-17
  0.605000019        -1.36835683E-17
  0.606000006        -1.58527924E-17
  0.606999993        -1.58615886E-17
  0.607999980        -1.30651614E-17
  0.609000027        -7.11950135E-18
  0.610000014         1.87135820E-18
  0.611000001         1.32429689E-17
  0.611999989         2.57221787E-17
  0.612999976         3.74694090E-17
  0.614000022         4.62300888E-17
  0.615000010         4.96005222E-17
  0.615999997         4.53956588E-17
  0.616999984         3.20853698E-17
  0.617999971         9.24503540E-18
  0.619000018        -2.20514126E-17
  0.620000005        -5.89784409E-17
  0.620999992        -9.69278330E-17
  0.621999979        -1.29767658E-16
  0.623000026        -1.50430007E-16
  0.624000013        -1.51822847E-16
  0.625000000        -1.28006213E-16
  0.625999987        -7.55132718E-17
  0.626999974         5.36065315E-18
  0.628000021         1.09521492E-16
  0.629000008         2.26533350E-16
  0.629999995         3.40796374E-16
  0.630999982         4.32619457E-16
  0.632000029         4.80264822E-16
  0.633000016         4.62906470E-16
  0.634000003         3.64279807E-16
  0.634999990         1.76628273E-16
  0.635999978        -9.56056940E-17
  0.637000024        -4.33008351E-16
  0.638000011        -8.00040406E-16
  0.638999999        -1.14613595E-15
  0.639999986        -1.40950454E-15
  0.640999973        -1.52378326E-15
  0.642000020        -1.42727752E-15
  0.643000007        -1.07405154E-15
  0.643999994        -4.45639015E-16
  0.644999981         4.38284308E-16
  0.646000028         1.51221396E-15
  0.647000015         2.66212799E-15
  0.648000002         3.72958771E-15
  0.648999989         4.52385262E-15
  0.649999976         4.84234209E-15
  0.651000023         4.49858732E-15
  0.652000010         3.35544436E-15
  0.652999997         1.35992929E-15
  0.653999984        -1.42518386E-15
  0.654999971        -4.79866865E-15
  0.656000018        -8.41291080E-15
  0.657000005        -1.17859010E-14
  0.657999992        -1.43367357E-14
  0.658999979        -1.54456221E-14
  0.660000026        -1.45360188E-14
  0.661000013        -1.11726280E-14
  0.662000000        -5.16496974E-15
  0.662999988         3.33721833E-15
  0.663999975         1.37729311E-14
  0.665000021         2.51400446E-14
  0.666000009         3.60219057E-14
  0.666999996         4.46814352E-14
  0.667999983         4.92269189E-14
  0.669000030         4.78444798E-14
  0.670000017         3.90813819E-14
  0.671000004         2.21528592E-14
  0.671999991        -2.76516129E-15
  0.672999978        -3.43027405E-14
  0.674000025        -6.97705918E-14
  0.675000012        -1.05188394E-13
  0.675999999        -1.35502598E-13
  0.676999986        -1.55011908E-13
  0.677999973        -1.57994589E-13
  0.679000020        -1.39502030E-13
  0.680000007        -9.62513354E-14
  0.680999994        -2.75192585E-14
  0.681999981         6.40845951E-14
  0.683000028         1.72101428E-13
  0.684000015         2.86098619E-13
  0.685000002         3.92052384E-13
  0.685999990         4.73313446E-13
  0.686999977         5.12172715E-13
  0.688000023         4.91967361E-13
  0.689000010         3.99582223E-13