-0.1200000E+00  0.0000000E+00
-0.1189000E+00  0.0000000E+00
-0.1178000E+00  0.0000000E+00
-0.1167000E+00  0.0000000E+00
-0.1156000E+00  0.0000000E+00
-0.1145000E+00  0.0000000E+00
-0.1134000E+00  0.0000000E+00
-0.1123000E+00  0.0000000E+00
-0.1112000E+00  0.0000000E+00
-0.1101000E+00  0.0000000E+00
-0.1090000E+00  0.0000000E+00
-0.1079000E+00  0.1272177E-35
-0.1068000E+00  0.9190798E-34
-0.1057000E+00 -0.1676573E-32
-0.1046000E+00 -0.4192775E-31
-0.1035000E+00 -0.3804637E-30
-0.1024000E+00 -0.2010627E-29
-0.1013000E+00 -0.6566478E-29
-0.1002000E+00 -0.9723691E-29
-0.9910000E-01  0.2753009E-28
-0.9800000E-01  0.2430565E-27
-0.9690000E-01  0.9126193E-27
-0.9580000E-01  0.2169291E-26
-0.9470000E-01  0.2759969E-26
-0.9360000E-01 -0.2701089E-26
-0.9250000E-01 -0.2654280E-25
-0.9140000E-01 -0.8403230E-25
-0.9030000E-01 -0.1681604E-24
-0.8920000E-01 -0.1891260E-24
-0.8810000E-01  0.1060650E-24
-0.8700000E-01  0.1138185E-23
-0.8590000E-01  0.3214072E-23
-0.8480000E-01  0.5711259E-23
-0.8370000E-01  0.5756944E-23
-0.8260000E-01 -0.2736671E-23
-0.8150000E-01 -0.2750728E-22
-0.8040000E-01 -0.7079445E-22
-0.7930000E-01 -0.1151011E-21
-0.7820000E-01 -0.1066764E-21
-0.7710000E-01  0.4704613E-22
-0.7600000E-01  0.4386084E-21
-0.7490000E-01  0.1055254E-20
-0.7380000E-01  0.1616487E-20
-0.7270000E-01  0.1439806E-20
-0.7160000E-01 -0.4829418E-21
-0.7050000E-01 -0.4968793E-20
-0.6940000E-01 -0.1157348E-19
-0.6830000E-01 -0.1723508E-19
-0.6720000E-01 -0.1551399E-19
-0.6610000E-01  0.2120856E-20
-0.6500000E-01  0.4155712E-19
-0.6390000E-01  0.9778113E-19
-0.6280000E-01  0.1459163E-18
-0.6170000E-01  0.1381022E-18
-0.6060000E-01  0.1512939E-19
-0.5950000E-01 -0.2605229E-18
-0.5840000E-01 -0.6533337E-18
-0.5730000E-01 -0.1005063E-17
-0.5620000E-01 -0.1024802E-17
-0.5510000E-01 -0.3637307E-18
-0.5400000E-01  0.1199563E-17
-0.5290000E-01  0.3491375E-17
-0.5180000E-01  0.5701562E-17
-0.5070000E-01  0.6351057E-17
-0.4960000E-01  0.3662446E-17
-0.4850000E-01 -0.3577890E-17
-0.4740000E-01 -0.1482055E-16
-0.4630000E-01 -0.2669710E-16
-0.4520000E-01 -0.3285131E-16
-0.4410000E-01 -0.2539793E-16
-0.4300000E-01  0.1698289E-17
-0.4190000E-01  0.4794661E-16
-0.4080000E-01  0.1021256E-15
-0.3970000E-01  0.1411756E-15
-0.3860000E-01  0.1347279E-15
-0.3750000E-01  0.5628522E-16
-0.3640000E-01 -0.1008739E-15
-0.3530000E-01 -0.3085409E-15
-0.3420000E-01 -0.4972440E-15
-0.3310000E-01 -0.5666287E-15
-0.3200000E-01 -0.4162265E-15
-0.3090000E-01  0.7784877E-17
-0.2980000E-01  0.6639237E-15
-0.2870000E-01  0.1386324E-14
-0.2760000E-01  0.1897300E-14
-0.2650000E-01  0.1874443E-14
-0.2540000E-01  0.1066531E-14
-0.2430000E-01 -0.5706236E-15
-0.2320000E-01 -0.2766643E-14
-0.2210000E-01 -0.4911722E-14
-0.2100000E-01 -0.6154988E-14
-0.1990000E-01 -0.5632584E-14
-0.1880000E-01 -0.2785180E-14
-0.1770000E-01  0.2320703E-14
-0.1660000E-01  0.8780588E-14
-0.1550000E-01  0.1485815E-13
-0.1440000E-01  0.1827762E-13
-0.1330000E-01  0.1679816E-13
-0.1220000E-01  0.8975984E-14
-0.1110000E-01 -0.5065503E-14
-0.1000000E-01 -0.2309583E-13
-0.8900000E-02 -0.4071576E-13
-0.7800000E-02 -0.5196481E-13
-0.6700000E-02 -0.5065671E-13
-0.5600000E-02 -0.3229984E-13
-0.4500000E-02  0.3783789E-14
-0.3400000E-02  0.5275278E-13
-0.2300000E-02  0.1036873E-12
-0.1200000E-02  0.1408321E-12
-0.1000000E-03  0.1469477E-12
 0.1000000E-02  0.1084623E-12
 0.2100000E-02  0.2134814E-13
 0.3200000E-02 -0.1040416E-12
 0.4300000E-02 -0.2412434E-12
 0.5400000E-02 -0.3507863E-12
 0.6500000E-02 -0.3887342E-12
 0.7600000E-02 -0.3195524E-12
 0.8700000E-02 -0.1302910E-12
 0.9800000E-02  0.1583076E-12
 0.1090000E-01  0.4883997E-12
 0.1200000E-01  0.7726054E-12
 0.1310000E-01  0.9129900E-12
 0.1420000E-01  0.8282354E-12
 0.1530000E-01  0.4823662E-12
 0.1640000E-01 -0.9352867E-13
 0.1750000E-01 -0.7946622E-12
 0.1860000E-01 -0.1455987E-11
 0.1970000E-01 -0.1885571E-11
 0.2080000E-01 -0.1912007E-11
 0.2190000E-01 -0.1435137E-11
 0.2300000E-01 -0.4670254E-12
 0.2410000E-01  0.8490151E-12
 0.2520000E-01  0.2249563E-11
 0.2630000E-01  0.3394332E-11
 0.2740000E-01  0.3936273E-11
 0.2850000E-01  0.3606516E-11
 0.2960000E-01  0.2297032E-11
 0.3070000E-01  0.1213129E-12
 0.3180000E-01 -0.2565820E-11
 0.3290000E-01 -0.5203300E-11
 0.3400000E-01 -0.7118508E-11
 0.3510000E-01 -0.7672854E-11
 0.3620000E-01 -0.6433806E-11
 0.3730000E-01 -0.3334564E-11
 0.3840000E-01  0.1225550E-11
 0.3950000E-01  0.6383442E-11
 0.4060000E-01  0.1094282E-10
 0.4170000E-01  0.1362680E-10
 0.4280000E-01  0.1340770E-10
 0.4390000E-01  0.9834330E-11
 0.4500000E-01  0.3259919E-11
 0.4610000E-01 -0.5116596E-11
 0.4720000E-01 -0.1344207E-10
 0.4830000E-01 -0.1961620E-10
 0.4940000E-01 -0.2182705E-10
 0.5050000E-01 -0.1907517E-10
 0.5160000E-01 -0.1153101E-10
 0.5270000E-01 -0.6026280E-12
 0.5380000E-01  0.1133358E-10
 0.5490000E-01  0.2148880E-10
 0.5600000E-01  0.2736368E-10
 0.5710000E-01  0.2740425E-10
 0.5820000E-01  0.2142534E-10
 0.5930000E-01  0.1067919E-10
 0.6040000E-01 -0.2451388E-11
 0.6150000E-01 -0.1504754E-10
 0.6260000E-01 -0.2437045E-10
 0.6370000E-01 -0.2850628E-10
 0.6480000E-01 -0.2677918E-10
 0.6590000E-01 -0.1984586E-10
 0.6700000E-01 -0.9474393E-11
 0.6810000E-01  0.1914358E-11
 0.6920000E-01  0.1182181E-10
 0.7030000E-01  0.1823556E-10
 0.7140000E-01  0.2007324E-10
 0.7250000E-01  0.1742622E-10
 0.7360000E-01  0.1155167E-10
 0.7470000E-01  0.4590301E-11
 0.7580000E-01 -0.9740379E-12
 0.7690000E-01 -0.3037247E-11
 0.7800000E-01 -0.6292280E-12
 0.7910000E-01  0.5521931E-11
 0.8020000E-01  0.1286167E-10
 0.8130000E-01  0.1750178E-10
 0.8240000E-01  0.1535689E-10
 0.8350000E-01  0.3708609E-11
 0.8460000E-01 -0.1725972E-10
 0.8570000E-01 -0.4355450E-10
 0.8680000E-01 -0.6763171E-10
 0.8790000E-01 -0.8007679E-10
 0.8900000E-01 -0.7248091E-10
 0.9010000E-01 -0.4076865E-10
 0.9120000E-01  0.1213581E-10
 0.9230000E-01  0.7545047E-10
 0.9340000E-01  0.1322358E-09
 0.9450000E-01  0.1636384E-09
 0.9560000E-01  0.1547405E-09
 0.9670000E-01  0.1003111E-09
 0.9780000E-01  0.8464965E-11
 0.9890000E-01 -0.9940428E-10
 0.1000000E+00 -0.1930454E-09
 0.1011000E+00 -0.2413888E-09
 0.1022000E+00 -0.2221540E-09
 0.1033000E+00 -0.1301838E-09
 0.1044000E+00  0.1828174E-10
 0.1055000E+00  0.1872154E-09
 0.1066000E+00  0.3284910E-09
 0.1077000E+00  0.3940303E-09
 0.1088000E+00  0.3493551E-09
 0.1099000E+00  0.1848985E-09
 0.1110000E+00 -0.7812997E-10
 0.1121000E+00 -0.3891923E-09
 0.1132000E+00 -0.6772161E-09
 0.1143000E+00 -0.8649690E-09
 0.1154000E+00 -0.8859681E-09
 0.1165000E+00 -0.7003698E-09
 0.1176000E+00 -0.3065819E-09
 0.1187000E+00  0.2537775E-09
 0.1198000E+00  0.8987547E-09
 0.1209000E+00  0.1516695E-08
 0.1220000E+00  0.1983389E-08
 0.1231000E+00  0.2183417E-08
 0.1242000E+00  0.2032456E-08
 0.1253000E+00  0.1496629E-08
 0.1264000E+00  0.6047914E-09
 0.1275000E+00 -0.5497581E-09
 0.1286000E+00 -0.1820029E-08
 0.1297000E+00 -0.3027848E-08
 0.1308000E+00 -0.3994368E-08
 0.1319000E+00 -0.4572116E-08
 0.1330000E+00 -0.4670795E-08
 0.1341000E+00 -0.4269876E-08
 0.1352000E+00 -0.3414251E-08
 0.1363000E+00 -0.2194047E-08
 0.1374000E+00 -0.7149976E-09
 0.1385000E+00  0.9305419E-09
 0.1396000E+00  0.2681076E-08
 0.1407000E+00  0.4504041E-08
 0.1418000E+00  0.6372693E-08
 0.1429000E+00  0.8227548E-08
 0.1440000E+00  0.9934582E-08
 0.1451000E+00  0.1125550E-07
 0.1462000E+00  0.1184363E-07
 0.1473000E+00  0.1127293E-07
 0.1484000E+00  0.9098275E-08
 0.1495000E+00  0.4936737E-08
 0.1506000E+00 -0.1446584E-08
 0.1517000E+00 -0.1006514E-07
 0.1528000E+00 -0.2066221E-07
 0.1539000E+00 -0.3269062E-07
 0.1550000E+00 -0.4531520E-07
 0.1561000E+00 -0.5742459E-07
 0.1572000E+00 -0.6763633E-07
 0.1583000E+00 -0.7428074E-07
 0.1594000E+00 -0.7535567E-07
 0.1605000E+00 -0.6845072E-07
 0.1616000E+00 -0.5064699E-07
 0.1627000E+00 -0.1839987E-07
 0.1638000E+00  0.3258836E-07
 0.1649000E+00  0.1075045E-06
 0.1660000E+00  0.2125749E-06
 0.1671000E+00  0.3552424E-06
 0.1682000E+00  0.5443873E-06
 0.1693000E+00  0.7906134E-06
 0.1704000E+00  0.1106623E-05
 0.1715000E+00  0.1507703E-05
 0.1726000E+00  0.2012350E-05
 0.1737000E+00  0.2643046E-05
 0.1748000E+00  0.3427231E-05
 0.1759000E+00  0.4398450E-05
 0.1770000E+00  0.5597719E-05
 0.1781000E+00  0.7075099E-05
 0.1792000E+00  0.8891467E-05
 0.1803000E+00  0.1112049E-04
 0.1814000E+00  0.1385083E-04
 0.1825000E+00  0.1718855E-04
 0.1836000E+00  0.2125983E-04
 0.1847000E+00  0.2621404E-04
 0.1858000E+00  0.3222720E-04
 0.1869000E+00  0.3950601E-04
 0.1880000E+00  0.4829241E-04
 0.1891000E+00  0.5886875E-04
 0.1902000E+00  0.7156357E-04
 0.1913000E+00  0.8675791E-04
 0.1924000E+00  0.1048922E-03
 0.1935000E+00  0.1264736E-03
 0.1946000E+00  0.1520835E-03
 0.1957000E+00  0.1823862E-03
 0.1968000E+00  0.2181369E-03
 0.1979000E+00  0.2601908E-03
 0.1990000E+00  0.3095127E-03
 0.2001000E+00  0.3671858E-03
 0.2012000E+00  0.4344217E-03
 0.2023000E+00  0.5125698E-03
 0.2034000E+00  0.6031255E-03
 0.2045000E+00  0.7077391E-03
 0.2056000E+00  0.8282222E-03
 0.2067000E+00  0.9665534E-03
 0.2078000E+00  0.1124882E-02
 0.2089000E+00  0.1305529E-02
 0.2100000E+00  0.1510988E-02
 0.2111000E+00  0.1743916E-02
 0.2122000E+00  0.2007130E-02
 0.2133000E+00  0.2303593E-02
 0.2144000E+00  0.2636399E-02
 0.2155000E+00  0.3008749E-02
 0.2166000E+00  0.3423923E-02
 0.2177000E+00  0.3885251E-02
 0.2188000E+00  0.4396070E-02
 0.2199000E+00  0.4959679E-02
 0.2210000E+00  0.5579285E-02
 0.2221000E+00  0.6257945E-02
 0.2232000E+00  0.6998498E-02
 0.2243000E+00  0.7803496E-02
 0.2254000E+00  0.8675118E-02
 0.2265000E+00  0.9615094E-02
 0.2276000E+00  0.1062461E-01
 0.2287000E+00  0.1170423E-01
 0.2298000E+00  0.1285378E-01
 0.2309000E+00  0.1407227E-01
 0.2320000E+00  0.1535779E-01
 0.2331000E+00  0.1670744E-01
 0.2342000E+00  0.1811722E-01
 0.2353000E+00  0.1958198E-01
 0.2364000E+00  0.2109532E-01
 0.2375000E+00  0.2264956E-01
 0.2386000E+00  0.2423570E-01
 0.2397000E+00  0.2584338E-01
 0.2408000E+00  0.2746089E-01
 0.2419000E+00  0.2907516E-01
 0.2430000E+00  0.3067187E-01
 0.2441000E+00  0.3223542E-01
 0.2452000E+00  0.3374913E-01
 0.2463000E+00  0.3519527E-01
 0.2474000E+00  0.3655528E-01
 0.2485000E+00  0.3780990E-01
 0.2496000E+00  0.3893937E-01
 0.2507000E+00  0.3992371E-01
 0.2518000E+00  0.4074291E-01
 0.2529000E+00  0.4137726E-01
 0.2540000E+00  0.4180759E-01
 0.2551000E+00  0.4201560E-01
 0.2562000E+00  0.4198418E-01
 0.2573000E+00  0.4169770E-01
 0.2584000E+00  0.4114231E-01
 0.2595000E+00  0.4030630E-01
 0.2606000E+00  0.3918032E-01
 0.2617000E+00  0.3775767E-01
 0.2628000E+00  0.3603459E-01
 0.2639000E+00  0.3401039E-01
 0.2650000E+00  0.3168766E-01
 0.2661000E+00  0.2907239E-01
 0.2672000E+00  0.2617407E-01
 0.2683000E+00  0.2300566E-01
 0.2694000E+00  0.1958362E-01
 0.2705000E+00  0.1592781E-01
 0.2716000E+00  0.1206132E-01
 0.2727000E+00  0.8010295E-02
 0.2738000E+00  0.3803694E-02
 0.2749000E+00 -0.5270388E-03
 0.2760000E+00 -0.4948310E-02
 0.2771000E+00 -0.9424772E-02
 0.2782000E+00 -0.1391976E-01
 0.2793000E+00 -0.1839573E-01
 0.2804000E+00 -0.2281479E-01
 0.2815000E+00 -0.2713912E-01
 0.2826000E+00 -0.3133156E-01
 0.2837000E+00 -0.3535604E-01
 0.2848000E+00 -0.3917812E-01
 0.2859000E+00 -0.4276538E-01
 0.2870000E+00 -0.4608792E-01
 0.2881000E+00 -0.4911872E-01
 0.2892000E+00 -0.5183398E-01
 0.2903000E+00 -0.5421342E-01
 0.2914000E+00 -0.5624054E-01
 0.2925000E+00 -0.5790278E-01
 0.2936000E+00 -0.5919165E-01
 0.2947000E+00 -0.6010280E-01
 0.2958000E+00 -0.6063596E-01
 0.2969000E+00 -0.6079491E-01
 0.2980000E+00 -0.6058732E-01
 0.2991000E+00 -0.6002456E-01
 0.3002000E+00 -0.5912146E-01
 0.3013000E+00 -0.5789600E-01
 0.3024000E+00 -0.5636901E-01
 0.3035000E+00 -0.5456381E-01
 0.3046000E+00 -0.5250578E-01
 0.3057000E+00 -0.5022200E-01
 0.3068000E+00 -0.4774079E-01
 0.3079000E+00 -0.4509133E-01
 0.3090000E+00 -0.4230325E-01
 0.3101000E+00 -0.3940615E-01
 0.3112000E+00 -0.3642935E-01
 0.3123000E+00 -0.3340138E-01
 0.3134000E+00 -0.3034980E-01
 0.3145000E+00 -0.2730082E-01
 0.3156000E+00 -0.2427904E-01
 0.3167000E+00 -0.2130729E-01
 0.3178000E+00 -0.1840642E-01
 0.3189000E+00 -0.1559515E-01
 0.3200000E+00 -0.1289002E-01
 0.3211000E+00 -0.1030527E-01
 0.3222000E+00 -0.7852897E-02
 0.3233000E+00 -0.5542607E-02
 0.3244000E+00 -0.3381911E-02
 0.3255000E+00 -0.1376185E-02
 0.3266000E+00  0.4712188E-03
 0.3277000E+00  0.2158847E-02
 0.3288000E+00  0.3687000E-02
 0.3299000E+00  0.5057580E-02
 0.3310000E+00  0.6273919E-02
 0.3321000E+00  0.7340607E-02
 0.3332000E+00  0.8263322E-02
 0.3343000E+00  0.9048646E-02
 0.3354000E+00  0.9703908E-02
 0.3365000E+00  0.1023701E-01
 0.3376000E+00  0.1065627E-01
 0.3387000E+00  0.1097030E-01
 0.3398000E+00  0.1118783E-01
 0.3409000E+00  0.1131763E-01
 0.3420000E+00  0.1136838E-01
 0.3431000E+00  0.1134858E-01
 0.3442000E+00  0.1126648E-01
 0.3453000E+00  0.1112998E-01
 0.3464000E+00  0.1094661E-01
 0.3475000E+00  0.1072346E-01
 0.3486000E+00  0.1046718E-01
 0.3497000E+00  0.1018391E-01
 0.3508000E+00  0.9879311E-02
 0.3519000E+00  0.9558549E-02
 0.3530000E+00  0.9226289E-02
 0.3541000E+00  0.8886711E-02
 0.3552000E+00  0.8543528E-02
 0.3563000E+00  0.8199995E-02
 0.3574000E+00  0.7858940E-02
 0.3585000E+00  0.7522777E-02
 0.3596000E+00  0.7193540E-02
 0.3607000E+00  0.6872907E-02
 0.3618000E+00  0.6562229E-02
 0.3629000E+00  0.6262562E-02
 0.3640000E+00  0.5974689E-02
 0.3651000E+00  0.5699158E-02
 0.3662000E+00  0.5436296E-02
 0.3673000E+00  0.5186242E-02
 0.3684000E+00  0.4948970E-02
 0.3695000E+00  0.4724307E-02
 0.3706000E+00  0.4511961E-02
 0.3717000E+00  0.4311537E-02
 0.3728000E+00  0.4122562E-02
 0.3739000E+00  0.3944503E-02
 0.3750000E+00  0.3776785E-02
 0.3761000E+00  0.3618806E-02
 0.3772000E+00  0.3469947E-02
 0.3783000E+00  0.3329590E-02
 0.3794000E+00  0.3197119E-02
 0.3805000E+00  0.3071937E-02
 0.3816000E+00  0.2953470E-02
 0.3827000E+00  0.2841181E-02
 0.3838000E+00  0.2734569E-02
 0.3849000E+00  0.2633182E-02
 0.3860000E+00  0.2536614E-02
 0.3871000E+00  0.2444511E-02
 0.3882000E+00  0.2356565E-02
 0.3893000E+00  0.2272515E-02
 0.3904000E+00  0.2192144E-02
 0.3915000E+00  0.2115275E-02
 0.3926000E+00  0.2041771E-02
 0.3937000E+00  0.1971523E-02
 0.3948000E+00  0.1904456E-02
 0.3959000E+00  0.1840517E-02
 0.3970000E+00  0.1779673E-02
 0.3981000E+00  0.1721906E-02
 0.3992000E+00  0.1667209E-02
 0.4003000E+00  0.1615582E-02
 0.4014000E+00  0.1567024E-02
 0.4025000E+00  0.1521532E-02
 0.4036000E+00  0.1479094E-02
 0.4047000E+00  0.1439690E-02
 0.4058000E+00  0.1403287E-02
 0.4069000E+00  0.1369845E-02
 0.4080000E+00  0.1339317E-02
 0.4091000E+00  0.1311656E-02
 0.4102000E+00  0.1286812E-02
 0.4113000E+00  0.1264746E-02
 0.4124000E+00  0.1245421E-02
 0.4135000E+00  0.1228815E-02
 0.4146000E+00  0.1214915E-02
 0.4157000E+00  0.1203723E-02
 0.4168000E+00  0.1195266E-02
 0.4179000E+00  0.1189595E-02
 0.4190000E+00  0.1186793E-02
 0.4201000E+00  0.1186983E-02
 0.4212000E+00  0.1190326E-02
 0.4223000E+00  0.1197022E-02
 0.4234000E+00  0.1207309E-02
 0.4245000E+00  0.1221456E-02
 0.4256000E+00  0.1239756E-02
 0.4267000E+00  0.1262521E-02
 0.4278000E+00  0.1290074E-02
 0.4289000E+00  0.1322739E-02
 0.4300000E+00  0.1360836E-02
 0.4311000E+00  0.1404665E-02
 0.4322000E+00  0.1454494E-02
 0.4333000E+00  0.1510545E-02
 0.4344000E+00  0.1572976E-02
 0.4355000E+00  0.1641861E-02
 0.4366000E+00  0.1717176E-02
 0.4377000E+00  0.1798780E-02
 0.4388000E+00  0.1886402E-02
 0.4399000E+00  0.1979623E-02
 0.4410000E+00  0.2077866E-02
 0.4421000E+00  0.2180383E-02
 0.4432000E+00  0.2286251E-02
 0.4443000E+00  0.2394361E-02
 0.4454000E+00  0.2503418E-02
 0.4465000E+00  0.2611940E-02
 0.4476000E+00  0.2718264E-02
 0.4487000E+00  0.2820544E-02
 0.4498000E+00  0.2916771E-02
 0.4509000E+00  0.3004784E-02
 0.4520000E+00  0.3082291E-02
 0.4531000E+00  0.3146893E-02
 0.4542000E+00  0.3196120E-02
 0.4553000E+00  0.3227456E-02
 0.4564000E+00  0.3238381E-02
 0.4575000E+00  0.3226396E-02
 0.4586000E+00  0.3189072E-02
 0.4597000E+00  0.3124079E-02
 0.4608000E+00  0.3029233E-02
 0.4619000E+00  0.2902535E-02
 0.4630000E+00  0.2742219E-02
 0.4641000E+00  0.2546791E-02
 0.4652000E+00  0.2315066E-02
 0.4663000E+00  0.2046213E-02
 0.4674000E+00  0.1739773E-02
 0.4685000E+00  0.1395695E-02
 0.4696000E+00  0.1014356E-02
 0.4707000E+00  0.5965743E-03
 0.4718000E+00  0.1436239E-03
 0.4729000E+00 -0.3427592E-03
 0.4740000E+00 -0.8603791E-03
 0.4751000E+00 -0.1406588E-02
 0.4762000E+00 -0.1978304E-02
 0.4773000E+00 -0.2572032E-02
 0.4784000E+00 -0.3183896E-02
 0.4795000E+00 -0.3809675E-02
 0.4806000E+00 -0.4444844E-02
 0.4817000E+00 -0.5084623E-02
 0.4828000E+00 -0.5724027E-02
 0.4839000E+00 -0.6357928E-02
 0.4850000E+00 -0.6981108E-02
 0.4861000E+00 -0.7588328E-02
 0.4872000E+00 -0.8174388E-02
 0.4883000E+00 -0.8734190E-02
 0.4894000E+00 -0.9262809E-02
 0.4905000E+00 -0.9755549E-02
 0.4916000E+00 -0.1020800E-01
 0.4927000E+00 -0.1061611E-01
 0.4938000E+00 -0.1097621E-01
 0.4949000E+00 -0.1128508E-01
 0.4960000E+00 -0.1153997E-01
 0.4971000E+00 -0.1173865E-01
 0.4982000E+00 -0.1187943E-01
 0.4993000E+00 -0.1196117E-01
 0.5004000E+00 -0.1198330E-01
 0.5015000E+00 -0.1194584E-01
 0.5026000E+00 -0.1184936E-01
 0.5037000E+00 -0.1169498E-01
 0.5048000E+00 -0.1148437E-01
 0.5059000E+00 -0.1121969E-01
 0.5070000E+00 -0.1090357E-01
 0.5081000E+00 -0.1053910E-01
 0.5092000E+00 -0.1012974E-01
 0.5103000E+00 -0.9679294E-02
 0.5114000E+00 -0.9191871E-02
 0.5125000E+00 -0.8671812E-02
 0.5136000E+00 -0.8123643E-02
 0.5147000E+00 -0.7552021E-02
 0.5158000E+00 -0.6961668E-02
 0.5169000E+00 -0.6357329E-02
 0.5180000E+00 -0.5743708E-02
 0.5191000E+00 -0.5125430E-02
 0.5202000E+00 -0.4506984E-02
 0.5213000E+00 -0.3892686E-02
 0.5224000E+00 -0.3286635E-02
 0.5235000E+00 -0.2692677E-02
 0.5246000E+00 -0.2114376E-02
 0.5257000E+00 -0.1554983E-02
 0.5268000E+00 -0.1017424E-02
 0.5279000E+00 -0.5042762E-03
 0.5290000E+00 -0.1776258E-04
 0.5301000E+00  0.4402534E-03
 0.5312000E+00  0.8682689E-03
 0.5323000E+00  0.1265137E-02
 0.5334000E+00  0.1630057E-02
 0.5345000E+00  0.1962567E-02
 0.5356000E+00  0.2262523E-02
 0.5367000E+00  0.2530085E-02
 0.5378000E+00  0.2765698E-02
 0.5389000E+00  0.2970067E-02
 0.5400000E+00  0.3144131E-02
 0.5411000E+00  0.3289042E-02
 0.5422000E+00  0.3406132E-02
 0.5433000E+00  0.3496887E-02
 0.5444000E+00  0.3562921E-02
 0.5455000E+00  0.3605948E-02
 0.5466000E+00  0.3627757E-02
 0.5477000E+00  0.3630186E-02
 0.5488000E+00  0.3615098E-02
 0.5499000E+00  0.3584355E-02
 0.5510000E+00  0.3539799E-02
 0.5521000E+00  0.3483229E-02
 0.5532000E+00  0.3416383E-02
 0.5543000E+00  0.3340928E-02
 0.5554000E+00  0.3258443E-02
 0.5565000E+00  0.3170413E-02
 0.5576000E+00  0.3078219E-02
 0.5587000E+00  0.2983126E-02
 0.5598000E+00  0.2886286E-02
 0.5609000E+00  0.2788722E-02
 0.5620000E+00  0.2691334E-02
 0.5631000E+00  0.2594893E-02
 0.5642000E+00  0.2500052E-02
 0.5653000E+00  0.2407343E-02
 0.5664000E+00  0.2317193E-02
 0.5675000E+00  0.2229929E-02
 0.5686000E+00  0.2145787E-02
 0.5697000E+00  0.2064923E-02
 0.5708000E+00  0.1987419E-02
 0.5719000E+00  0.1913289E-02
 0.5730000E+00  0.1842489E-02
 0.5741000E+00  0.1774927E-02
 0.5752000E+00  0.1710468E-02
 0.5763000E+00  0.1648947E-02
 0.5774000E+00  0.1590182E-02
 0.5785000E+00  0.1533979E-02
 0.5796000E+00  0.1480140E-02
 0.5807000E+00  0.1428474E-02
 0.5818000E+00  0.1378793E-02
 0.5829000E+00  0.1330919E-02
 0.5840000E+00  0.1284686E-02
 0.5851000E+00  0.1239934E-02
 0.5862000E+00  0.1196520E-02
 0.5873000E+00  0.1154310E-02
 0.5884000E+00  0.1113187E-02
 0.5895000E+00  0.1073044E-02
 0.5906000E+00  0.1033785E-02
 0.5917000E+00  0.9953204E-03
 0.5928000E+00  0.9575615E-03
 0.5939000E+00  0.9204159E-03
 0.5950000E+00  0.8837836E-03
 0.5961000E+00  0.8475540E-03
 0.5972000E+00  0.8116043E-03
 0.5983000E+00  0.7757989E-03
 0.5994000E+00  0.7399883E-03
 0.6005000E+00  0.7040097E-03
 0.6016000E+00  0.6676854E-03
 0.6027000E+00  0.6308227E-03
 0.6038000E+00  0.5932130E-03
 0.6049000E+00  0.5546320E-03
 0.6060000E+00  0.5148411E-03
 0.6071000E+00  0.4735911E-03
 0.6082000E+00  0.4306276E-03
 0.6093000E+00  0.3856978E-03
 0.6104000E+00  0.3385581E-03
 0.6115000E+00  0.2889822E-03
 0.6126000E+00  0.2367679E-03
 0.6137000E+00  0.1817439E-03
 0.6148000E+00  0.1237761E-03
 0.6159000E+00  0.6277253E-04
 0.6170000E+00 -0.1310114E-05
 0.6181000E+00 -0.6846050E-04
 0.6192000E+00 -0.1386060E-03
 0.6203000E+00 -0.2116062E-03
 0.6214000E+00 -0.2872463E-03
 0.6225000E+00 -0.3652318E-03
 0.6236000E+00 -0.4451838E-03
 0.6247000E+00 -0.5266361E-03
 0.6258000E+00 -0.6090329E-03
 0.6269000E+00 -0.6917299E-03
 0.6280000E+00 -0.7739950E-03
 0.6291000E+00 -0.8550123E-03
 0.6302000E+00 -0.9338865E-03
 0.6313000E+00 -0.1009649E-02
 0.6324000E+00 -0.1081266E-02
 0.6335000E+00 -0.1147644E-02
 0.6346000E+00 -0.1207645E-02
 0.6357000E+00 -0.1260096E-02
 0.6368000E+00 -0.1303802E-02
 0.6379000E+00 -0.1337565E-02
 0.6390000E+00 -0.1360200E-02
 0.6401000E+00 -0.1370550E-02
 0.6412000E+00 -0.1367509E-02
 0.6423000E+00 -0.1350036E-02
 0.6434000E+00 -0.1317180E-02
 0.6445000E+00 -0.1268092E-02
 0.6456000E+00 -0.1202049E-02
 0.6467000E+00 -0.1118472E-02
 0.6478000E+00 -0.1016944E-02
 0.6489000E+00 -0.8972231E-03
 0.6500000E+00 -0.7592605E-03
 0.6511000E+00 -0.6032088E-03
 0.6522000E+00 -0.4294327E-03
 0.6533000E+00 -0.2385147E-03
 0.6544000E+00 -0.3125970E-04
 0.6555000E+00  0.1913056E-03
 0.6566000E+00  0.4279368E-03
 0.6577000E+00  0.6771799E-03
 0.6588000E+00  0.9373847E-03
 0.6599000E+00  0.1206721E-02
 0.6610000E+00  0.1483197E-02
 0.6621000E+00  0.1764679E-02
 0.6632000E+00  0.2048917E-02
 0.6643000E+00  0.2333568E-02
 0.6654000E+00  0.2616224E-02
 0.6665000E+00  0.2894443E-02
 0.6676000E+00  0.3165783E-02
 0.6687000E+00  0.3427837E-02
 0.6698000E+00  0.3678264E-02
 0.6709000E+00  0.3914824E-02
 0.6720000E+00  0.4135408E-02
 0.6731000E+00  0.4338066E-02
 0.6742000E+00  0.4521028E-02
 0.6753000E+00  0.4682731E-02
 0.6764000E+00  0.4821839E-02
 0.6775000E+00  0.4937259E-02
 0.6786000E+00  0.5028152E-02
 0.6797000E+00  0.5093950E-02
 0.6808000E+00  0.5134354E-02
 0.6819000E+00  0.5149337E-02
 0.6830000E+00  0.5139140E-02
 0.6841000E+00  0.5104264E-02
 0.6852000E+00  0.5045457E-02
 0.6863000E+00  0.4963699E-02
 0.6874000E+00  0.4860182E-02
 0.6885000E+00  0.4736293E-02
 0.6896000E+00  0.4593590E-02
 0.6907000E+00  0.4433778E-02
 0.6918000E+00  0.4258683E-02
 0.6929000E+00  0.4070232E-02
 0.6940000E+00  0.3870415E-02
 0.6951000E+00  0.3661267E-02
 0.6962000E+00  0.3444833E-02
 0.6973000E+00  0.3223142E-02
 0.6984000E+00  0.2998180E-02
 0.6995000E+00  0.2771866E-02
 0.7006000E+00  0.2546036E-02
 0.7017000E+00  0.2322424E-02
 0.7028000E+00  0.2102645E-02
 0.7039000E+00  0.1888188E-02
 0.7050000E+00  0.1680401E-02
 0.7061000E+00  0.1480481E-02
 0.7072000E+00  0.1289467E-02
 0.7083000E+00  0.1108231E-02
 0.7094000E+00  0.9374781E-03
 0.7105000E+00  0.7777481E-03
 0.7116000E+00  0.6294185E-03
 0.7127000E+00  0.4927120E-03
 0.7138000E+00  0.3677055E-03
 0.7149000E+00  0.2543393E-03
 0.7160000E+00  0.1524278E-03
 0.7171000E+00  0.6166976E-04
 0.7182000E+00 -0.1833900E-04
 0.7193000E+00 -0.8809291E-04
 0.7204000E+00 -0.1481625E-03
 0.7215000E+00 -0.1991799E-03
 0.7226000E+00 -0.2418239E-03
 0.7237000E+00 -0.2768064E-03
 0.7248000E+00 -0.3048588E-03
 0.7259000E+00 -0.3267199E-03
 0.7270000E+00 -0.3431247E-03
 0.7281000E+00 -0.3547942E-03
 0.7292000E+00 -0.3624257E-03
 0.7303000E+00 -0.3666846E-03
 0.7314000E+00 -0.3681970E-03
 0.7325000E+00 -0.3675439E-03
 0.7336000E+00 -0.3652567E-03
 0.7347000E+00 -0.3618138E-03
 0.7358000E+00 -0.3576393E-03
 0.7369000E+00 -0.3531016E-03
 0.7380000E+00 -0.3485150E-03
 0.7391000E+00 -0.3441410E-03
 0.7402000E+00 -0.3401920E-03
 0.7413000E+00 -0.3368359E-03
 0.7424000E+00 -0.3342009E-03
 0.7435000E+00 -0.3323805E-03
 0.7446000E+00 -0.3314383E-03
 0.7457000E+00 -0.3314115E-03
 0.7468000E+00 -0.3323143E-03
 0.7479000E+00 -0.3341412E-03
 0.7490000E+00 -0.3368702E-03
 0.7501000E+00 -0.3404672E-03
 0.7512000E+00 -0.3448893E-03
 0.7523000E+00 -0.3500893E-03
 0.7534000E+00 -0.3560185E-03
 0.7545000E+00 -0.3626287E-03
 0.7556000E+00 -0.3698740E-03
 0.7567000E+00 -0.3777113E-03
 0.7578000E+00 -0.3861013E-03
 0.7589000E+00 -0.3950098E-03
 0.7600000E+00 -0.4044081E-03
 0.7611000E+00 -0.4142736E-03
 0.7622000E+00 -0.4245884E-03
 0.7633000E+00 -0.4353384E-03
 0.7644000E+00 -0.4465106E-03
 0.7655000E+00 -0.4580929E-03
 0.7666000E+00 -0.4700732E-03
 0.7677000E+00 -0.4824413E-03
 0.7688000E+00 -0.4951903E-03
 0.7699000E+00 -0.5083186E-03
 0.7710000E+00 -0.5218295E-03
 0.7721000E+00 -0.5357303E-03
 0.7732000E+00 -0.5500300E-03
 0.7743000E+00 -0.5647365E-03
 0.7754000E+00 -0.5798555E-03
 0.7765000E+00 -0.5953899E-03
 0.7776000E+00 -0.6113412E-03
 0.7787000E+00 -0.6277105E-03
 0.7798000E+00 -0.6444980E-03
 0.7809000E+00 -0.6617017E-03
 0.7820000E+00 -0.6793140E-03
 0.7831000E+00 -0.6973170E-03
 0.7842000E+00 -0.7156801E-03
 0.7853000E+00 -0.7343569E-03
 0.7864000E+00 -0.7532851E-03
 0.7875000E+00 -0.7723877E-03
 0.7886000E+00 -0.7915727E-03
 0.7897000E+00 -0.8107340E-03
 0.7908000E+00 -0.8297500E-03
 0.7919000E+00 -0.8484814E-03
 0.7930000E+00 -0.8667694E-03
 0.7941000E+00 -0.8844347E-03
 0.7952000E+00 -0.9012781E-03
 0.7963000E+00 -0.9170829E-03
 0.7974000E+00 -0.9316198E-03
 0.7985000E+00 -0.9446507E-03
 0.7996000E+00 -0.9559349E-03
 0.8007000E+00 -0.9652326E-03
 0.8018000E+00 -0.9723092E-03
 0.8029000E+00 -0.9769390E-03
 0.8040000E+00 -0.9789078E-03
 0.8051000E+00 -0.9780166E-03
 0.8062000E+00 -0.9740855E-03
 0.8073000E+00 -0.9669571E-03
 0.8084000E+00 -0.9565013E-03
 0.8095000E+00 -0.9426195E-03
 0.8106000E+00 -0.9252480E-03
 0.8117000E+00 -0.9043614E-03
 0.8128000E+00 -0.8799738E-03
 0.8139000E+00 -0.8521393E-03
 0.8150000E+00 -0.8209504E-03
 0.8161000E+00 -0.7865347E-03
 0.8172000E+00 -0.7490520E-03
 0.8183000E+00 -0.7086904E-03
 0.8194000E+00 -0.6656641E-03
 0.8205000E+00 -0.6202108E-03
 0.8216000E+00 -0.5725902E-03
 0.8227000E+00 -0.5230818E-03
 0.8238000E+00 -0.4719807E-03
 0.8249000E+00 -0.4195920E-03
 0.8260000E+00 -0.3662237E-03
 0.8271000E+00 -0.3121795E-03
 0.8282000E+00 -0.2577518E-03
 0.8293000E+00 -0.2032183E-03
 0.8304000E+00 -0.1488408E-03
 0.8315000E+00 -0.9486626E-04
 0.8326000E+00 -0.4152774E-04
 0.8337000E+00  0.1095471E-04
 0.8348000E+00  0.6237591E-04
 0.8359000E+00  0.1125490E-03
 0.8370000E+00  0.1613096E-03
 0.8381000E+00  0.2085190E-03
 0.8392000E+00  0.2540653E-03
 0.8403000E+00  0.2978609E-03
 0.8414000E+00  0.3398394E-03
 0.8425000E+00  0.3799508E-03
 0.8436000E+00  0.4181587E-03
 0.8447000E+00  0.4544400E-03
 0.8458000E+00  0.4887861E-03
 0.8469000E+00  0.5212064E-03
 0.8480000E+00  0.5517305E-03
 0.8491000E+00  0.5804102E-03
 0.8502000E+00  0.6073196E-03
 0.8513000E+00  0.6325535E-03
 0.8524000E+00  0.6562254E-03
 0.8535000E+00  0.6784667E-03
 0.8546000E+00  0.6994265E-03
 0.8557000E+00  0.7192729E-03
 0.8568000E+00  0.7381951E-03
 0.8579000E+00  0.7564053E-03
 0.8590000E+00  0.7741395E-03
 0.8601000E+00  0.7916570E-03
 0.8612000E+00  0.8092371E-03
 0.8623000E+00  0.8271757E-03
 0.8634000E+00  0.8457797E-03
 0.8645000E+00  0.8653608E-03
 0.8656000E+00  0.8862306E-03
 0.8667000E+00  0.9086948E-03
 0.8678000E+00  0.9330482E-03
 0.8689000E+00  0.9595695E-03
 0.8700000E+00  0.9885163E-03
 0.8711000E+00  0.1020118E-02
 0.8722000E+00  0.1054569E-02
 0.8733000E+00  0.1092021E-02
 0.8744000E+00  0.1132576E-02
 0.8755000E+00  0.1176276E-02
 0.8766000E+00  0.1223101E-02
 0.8777000E+00  0.1272960E-02
 0.8788000E+00  0.1325691E-02
 0.8799000E+00  0.1381057E-02
 0.8810000E+00  0.1438745E-02
 0.8821000E+00  0.1498366E-02
 0.8832000E+00  0.1559456E-02
 0.8843000E+00  0.1621481E-02
 0.8854000E+00  0.1683835E-02
 0.8865000E+00  0.1745853E-02
 0.8876000E+00  0.1806813E-02
 0.8887000E+00  0.1865943E-02
 0.8898000E+00  0.1922433E-02
 0.8909000E+00  0.1975445E-02
 0.8920000E+00  0.2024118E-02
 0.8931000E+00  0.2067587E-02
 0.8942000E+00  0.2104987E-02
 0.8953000E+00  0.2135470E-02
 0.8964000E+00  0.2158211E-02
 0.8975000E+00  0.2172422E-02
 0.8986000E+00  0.2177367E-02
 0.8997000E+00  0.2172367E-02
 0.9008000E+00  0.2156821E-02
 0.9019000E+00  0.2130209E-02
 0.9030000E+00  0.2092106E-02
 0.9041000E+00  0.2042185E-02
 0.9052000E+00  0.1980225E-02
 0.9063000E+00  0.1906111E-02
 0.9074000E+00  0.1819846E-02
 0.9085000E+00  0.1721545E-02
 0.9096000E+00  0.1611449E-02
 0.9107000E+00  0.1489926E-02
 0.9118000E+00  0.1357469E-02
 0.9129000E+00  0.1214699E-02
 0.9140000E+00  0.1062353E-02
 0.9151000E+00  0.9012838E-03
 0.9162000E+00  0.7324426E-03
 0.9173000E+00  0.5568779E-03
 0.9184000E+00  0.3757247E-03
 0.9195000E+00  0.1901985E-03
 0.9206000E+00  0.1587238E-05
 0.9217000E+00 -0.1887595E-03
 0.9228000E+00 -0.3794439E-03
 0.9239000E+00 -0.5690361E-03
 0.9250000E+00 -0.7560931E-03
 0.9261000E+00 -0.9391773E-03
 0.9272000E+00 -0.1116875E-02
 0.9283000E+00 -0.1287811E-02
 0.9294000E+00 -0.1450668E-02
 0.9305000E+00 -0.1604198E-02
 0.9316000E+00 -0.1747236E-02
 0.9327000E+00 -0.1878717E-02
 0.9338000E+00 -0.1997685E-02
 0.9349000E+00 -0.2103315E-02
 0.9360000E+00 -0.2194919E-02
 0.9371000E+00 -0.2271960E-02
 0.9382000E+00 -0.2334062E-02
 0.9393000E+00 -0.2381015E-02
 0.9404000E+00 -0.2412773E-02
 0.9415000E+00 -0.2429462E-02
 0.9426000E+00 -0.2431363E-02
 0.9437000E+00 -0.2418916E-02
 0.9448000E+00 -0.2392706E-02
 0.9459000E+00 -0.2353460E-02
 0.9470000E+00 -0.2302027E-02
 0.9481000E+00 -0.2239374E-02
 0.9492000E+00 -0.2166566E-02
 0.9503000E+00 -0.2084750E-02
 0.9514000E+00 -0.1995133E-02
 0.9525000E+00 -0.1898964E-02
 0.9536000E+00 -0.1797511E-02
 0.9547000E+00 -0.1692046E-02
 0.9558000E+00 -0.1583818E-02
 0.9569000E+00 -0.1474045E-02
 0.9580000E+00 -0.1363895E-02
 0.9591000E+00 -0.1254471E-02
 0.9602000E+00 -0.1146801E-02
 0.9613000E+00 -0.1041831E-02
 0.9624000E+00 -0.9404074E-03
 0.9635000E+00 -0.8432808E-03
 0.9646000E+00 -0.7510956E-03
 0.9657000E+00 -0.6643910E-03
 0.9668000E+00 -0.5836014E-03
 0.9679000E+00 -0.5090607E-03
 0.9690000E+00 -0.4410090E-03
 0.9701000E+00 -0.3796009E-03
 0.9712000E+00 -0.3249161E-03
 0.9723000E+00 -0.2769697E-03
 0.9734000E+00 -0.2357214E-03
 0.9745000E+00 -0.2010848E-03
 0.9756000E+00 -0.1729355E-03
 0.9767000E+00 -0.1511193E-03
 0.9778000E+00 -0.1354602E-03
 0.9789000E+00 -0.1257684E-03