 -0.12000000000000000          0.0000000000000000     
 -0.11889999999999999          0.0000000000000000     
 -0.11780000000000000          0.0000000000000000     
 -0.11670000000000000          0.0000000000000000     
 -0.11559999999999999          0.0000000000000000     
 -0.11449999999999999          0.0000000000000000     
 -0.11340000000000000          0.0000000000000000     
 -0.11230000000000000          0.0000000000000000     
 -0.11119999999999999          0.0000000000000000     
 -0.11009999999999999          0.0000000000000000     
 -0.10900000000000000          0.0000000000000000     
 -0.10790000000000000          0.0000000000000000     
 -0.10679999999999999          0.0000000000000000     
 -0.10569999999999999          0.0000000000000000     
 -0.10460000000000000          0.0000000000000000     
 -0.10349999999999999          0.0000000000000000     
 -0.10239999999999999          0.0000000000000000     
 -0.10130000000000000          0.0000000000000000     
 -0.10020000000000000          0.0000000000000000     
  -9.9099999999999994E-002     0.0000000000000000     
  -9.7999999999999990E-002     0.0000000000000000     
  -9.6899999999999986E-002     0.0000000000000000     
  -9.5799999999999996E-002     0.0000000000000000     
  -9.4699999999999993E-002     0.0000000000000000     
  -9.3599999999999989E-002     0.0000000000000000     
  -9.2499999999999999E-002     0.0000000000000000     
  -9.1399999999999995E-002     0.0000000000000000     
  -9.0299999999999991E-002     0.0000000000000000     
  -8.9200000000000002E-002     0.0000000000000000     
  -8.8099999999999984E-002     0.0000000000000000     
  -8.6999999999999994E-002     0.0000000000000000     
  -8.5899999999999990E-002     0.0000000000000000     
  -8.4799999999999986E-002     0.0000000000000000     
  -8.3699999999999997E-002     0.0000000000000000     
  -8.2599999999999993E-002     0.0000000000000000     
  -8.1499999999999989E-002     0.0000000000000000     
  -8.0399999999999999E-002    -5.6913289741608549E-044
  -7.9299999999999995E-002    -3.9196660697656863E-043
  -7.8199999999999992E-002     5.1483379957682285E-040
  -7.7100000000000002E-002     2.9920299559966397E-039
  -7.5999999999999984E-002     6.4598964070027438E-039
  -7.4899999999999994E-002     5.5584520407156737E-040
  -7.3799999999999991E-002    -1.9857593546295081E-038
  -7.2699999999999987E-002    -7.0123697044388992E-038
  -7.1599999999999997E-002    -1.8941271308031758E-037
  -7.0499999999999993E-002    -2.7723999135439996E-037
  -6.9399999999999989E-002     7.4723441859820656E-038
  -6.8300000000000000E-002     1.5362503056921890E-036
  -6.7199999999999996E-002     4.2975613785425768E-036
  -6.6099999999999992E-002     6.3112666022142593E-036
  -6.5000000000000002E-002     1.0474319465722987E-036
  -6.3899999999999985E-002    -2.1822102989987076E-035
  -6.2799999999999995E-002    -6.6461612066391766E-035
  -6.1699999999999991E-002    -1.0676109786860737E-034
  -6.0599999999999994E-002    -5.7135659655256697E-035
  -5.9499999999999990E-002     2.2218683670286934E-034
  -5.8399999999999994E-002     8.1402825574963292E-034
  -5.7299999999999990E-002     1.4730936997402480E-033
  -5.6199999999999986E-002     1.2826733759072523E-033
  -5.5099999999999996E-002    -1.3727429925742610E-033
  -5.3999999999999992E-002    -7.8172099693991451E-033
  -5.2899999999999989E-002    -1.6491281791927678E-032
  -5.1799999999999985E-002    -1.9375032135360681E-032
  -5.0699999999999995E-002    -6.2917676114797508E-034
  -4.9599999999999991E-002     5.6466666502152002E-032
  -4.8499999999999988E-002     1.4845283068002697E-031
  -4.7399999999999998E-002     2.1916532253362479E-031
  -4.6299999999999994E-002     1.3800072897157120E-031
  -4.5199999999999990E-002    -2.6475647280666538E-031
  -4.4099999999999986E-002    -1.0538315934205360E-030
  -4.2999999999999997E-002    -1.9338063758400849E-030
  -4.1899999999999993E-002    -2.0107205735931748E-030
  -4.0799999999999989E-002     1.2232161428834656E-031
  -3.9699999999999985E-002     5.5747398519077748E-030
  -3.8599999999999995E-002     1.3447949097859316E-029
  -3.7499999999999992E-002     1.8798931476181627E-029
  -3.6399999999999988E-002     1.2035940407576843E-029
  -3.5299999999999984E-002    -1.7564096570844308E-029
  -3.4199999999999994E-002    -7.2186617469256828E-029
  -3.3099999999999991E-002    -1.3130500882156427E-028
  -3.1999999999999987E-002    -1.4147534044790784E-028
  -3.0899999999999997E-002    -2.5636856945085638E-029
  -2.9799999999999993E-002     2.7205251772299778E-028
  -2.8699999999999989E-002     7.0451650720324926E-028
  -2.7599999999999986E-002     1.0359130603081459E-027
  -2.6499999999999996E-002     8.2813398778034632E-028
  -2.5399999999999992E-002    -4.0042065893046484E-028
  -2.4299999999999988E-002    -2.7862139234199846E-027
  -2.3199999999999985E-002    -5.5882951006743678E-027
  -2.2099999999999995E-002    -6.8262396073434496E-027
  -2.0999999999999991E-002    -3.6011997048979145E-027
  -1.9899999999999987E-002     6.4240875066602304E-027
  -1.8799999999999983E-002     2.2402331124414426E-026
  -1.7699999999999994E-002     3.7548583340939200E-026
  -1.6599999999999990E-002     3.8439841415196328E-026
  -1.5499999999999986E-002     9.0806617593814507E-027
  -1.4399999999999996E-002    -5.8740895018652411E-026
  -1.3299999999999992E-002    -1.5089963716722532E-025
  -1.2199999999999989E-002    -2.1971673271410014E-025
  -1.1099999999999985E-002    -1.8823507415605990E-025
  -9.9999999999999950E-003     1.8513425750224206E-026
  -8.8999999999999913E-003     4.1402920932209065E-025
  -7.7999999999999875E-003     8.8207346017213190E-025
  -6.6999999999999837E-003     1.1433763968411735E-024
  -5.5999999999999939E-003     8.1386152092696157E-025
  -4.4999999999999901E-003    -4.0759580590401934E-025
  -3.3999999999999864E-003    -2.4465869405909392E-024
  -2.2999999999999826E-003    -4.5782768850870992E-024
  -1.1999999999999927E-003    -5.3831310251327175E-024
  -9.9999999999988987E-005    -3.1576595601245654E-024
   1.0000000000000148E-003     3.1347258827777079E-024
   2.1000000000000185E-003     1.2598517536692945E-023
   3.2000000000000084E-003     2.1450237200272107E-023
   4.3000000000000121E-003     2.3270431412214762E-023
   5.4000000000000159E-003     1.1230626971330897E-023
   6.5000000000000058E-003    -1.7689734110832118E-023
   7.6000000000000234E-003    -5.7802469096180491E-023
   8.7000000000000133E-003    -9.1849508919262135E-023
   9.8000000000000032E-003    -9.3544965396061397E-023
   1.0900000000000021E-002    -3.7775338038516983E-023
   1.2000000000000011E-002     8.2637472240549924E-023
   1.3100000000000001E-002     2.3966686347583625E-022
   1.4200000000000018E-002     3.6283976180710786E-022
   1.5300000000000008E-002     3.5337787032626134E-022
   1.6400000000000026E-002     1.2532268825543957E-022
   1.7500000000000016E-002    -3.3374409795330293E-022
   1.8600000000000005E-002    -9.0656529366313001E-022
   1.9700000000000023E-002    -1.3314878210151364E-021
   2.0800000000000013E-002    -1.2642187271208343E-021
   2.1900000000000003E-002    -4.2717916946273261E-022
   2.3000000000000020E-002     1.1875261534022486E-021
   2.4100000000000010E-002     3.1474970329351682E-021
   2.5200000000000000E-002     4.5599639354506425E-021
   2.6300000000000018E-002     4.3025636120778855E-021
   2.7400000000000008E-002     1.5192238693649911E-021
   2.8500000000000025E-002    -3.7473940536236990E-021
   2.9600000000000015E-002    -1.0064684548436799E-020
   3.0700000000000005E-002    -1.4612253047411147E-020
   3.1800000000000023E-002    -1.3946906191026616E-020
   3.2900000000000013E-002    -5.5234615729862531E-021
   3.4000000000000002E-002     1.0453629223116357E-020
   3.5100000000000020E-002     2.9674395188638903E-020
   3.6200000000000010E-002     4.3847006291062352E-020
   3.7300000000000028E-002     4.2990059463416911E-020
   3.8400000000000017E-002     1.9772314758244191E-020
   3.9500000000000007E-002    -2.5362892270690043E-020
   4.0600000000000025E-002    -8.0575627000262641E-020
   4.1700000000000015E-002    -1.2310714720156131E-019
   4.2800000000000005E-002    -1.2555655718928602E-019
   4.3900000000000022E-002    -6.7463573744507554E-020
   4.5000000000000012E-002     5.1230469030236619E-020
   4.6100000000000002E-002     2.0076932868782108E-019
   4.7200000000000020E-002     3.2273630563240226E-019
   4.8300000000000010E-002     3.4586108525407494E-019
   4.9400000000000027E-002     2.1503800700422053E-019
   5.0500000000000017E-002    -7.5030100738418567E-020
   5.1600000000000007E-002    -4.5601825779020941E-019
   5.2700000000000025E-002    -7.8762637424512269E-019
   5.3800000000000014E-002    -8.9432188251503877E-019
   5.4900000000000004E-002    -6.3374778175949588E-019
   5.6000000000000022E-002     2.3180663915938190E-020
   5.7100000000000012E-002     9.3383303223845610E-019
   5.8200000000000002E-002     1.7829539311335336E-018
   5.9300000000000019E-002     2.1616224141778480E-018
   6.0400000000000009E-002     1.7192794907427109E-018
   6.1500000000000027E-002     3.4542481392238865E-019
   6.2600000000000017E-002    -1.6919515233654292E-018
   6.3700000000000007E-002    -3.7302341739279699E-018
   6.4800000000000024E-002    -4.8690545072688529E-018
   6.5900000000000014E-002    -4.2893670110590476E-018
   6.7000000000000004E-002    -1.6463456089913203E-018
   6.8100000000000022E-002     2.6156467306762991E-018
   6.9200000000000012E-002     7.1933119670253172E-018
   7.0300000000000029E-002     1.0212100703244903E-017
   7.1400000000000019E-002     9.8600901028457659E-018
   7.2500000000000009E-002     5.1988941390091591E-018
   7.3600000000000027E-002    -3.1497787434183709E-018
   7.4700000000000016E-002    -1.2782663174921715E-017
   7.5800000000000006E-002    -1.9999748314624912E-017
   7.6900000000000024E-002    -2.1000075994898217E-017
   7.8000000000000014E-002    -1.3483552636880174E-017
   7.9100000000000004E-002     1.9143676945686651E-018
   8.0200000000000021E-002     2.1024767119737399E-017
   8.1300000000000011E-002     3.6886824017384600E-017
   8.2400000000000029E-002     4.1898138984315567E-017
   8.3500000000000019E-002     3.0856157295729250E-017
   8.4600000000000009E-002     3.8438569075771451E-018
   8.5700000000000026E-002    -3.2314267431008940E-017
   8.6800000000000016E-002    -6.5043701167721442E-017
   8.7900000000000006E-002    -7.9715303897833987E-017
   8.9000000000000024E-002    -6.5223609129814419E-017
   9.0100000000000013E-002    -1.9608080774363084E-017
   9.1200000000000003E-002     4.6635214933468072E-017
   9.2300000000000021E-002     1.1155925158697524E-016
   9.3400000000000011E-002     1.4781800474199628E-016
   9.4500000000000028E-002     1.3257608356824094E-016
   9.5600000000000018E-002     5.8171684374414576E-017
   9.6700000000000008E-002    -6.0686217182252987E-017
   9.7800000000000026E-002    -1.8705340397471830E-016
   9.8900000000000016E-002    -2.7104816787257400E-016
  0.10000000000000001         -2.6684270335726818E-016
  0.10110000000000002         -1.5236783285449067E-016
  0.10220000000000001          5.5588056774471251E-017
  0.10330000000000003          2.9813749627350377E-016
  0.10440000000000002          4.8714361717630227E-016
  0.10550000000000001          5.3295613431587871E-016
  0.10660000000000003          3.7959403148261663E-016
  0.10770000000000002          3.5221138326601146E-017
  0.10880000000000001         -4.1521208083080515E-016
  0.10990000000000003         -8.2429131994000179E-016
  0.11100000000000002         -1.0240821351563310E-015
  0.11210000000000001         -8.8574709289013410E-016
  0.11320000000000002         -3.7785345587355300E-016
  0.11430000000000001          3.9923306839603350E-016
  0.11540000000000003          1.2211544542719490E-015
  0.11650000000000002          1.7956315694699301E-015
  0.11760000000000001          1.8558527075776167E-015
  0.11870000000000003          1.2639773539055590E-015
  0.11980000000000002          8.8379191507689812E-017
  0.12090000000000001         -1.3790220934456181E-015
  0.12200000000000003         -2.6831917559937796E-015
  0.12310000000000001         -3.3366930283062963E-015
  0.12420000000000003         -2.9861184131833267E-015
  0.12530000000000002         -1.5605974386163776E-015
  0.12640000000000001          6.5390526629739770E-016
  0.12750000000000003          3.0533012218065734E-015
  0.12860000000000002          4.8715070174128241E-015
  0.12970000000000001          5.4170326356432773E-015
  0.13080000000000003          4.3188414167349129E-015
  0.13190000000000002          1.6967112199657722E-015
  0.13300000000000001         -1.8136816369514538E-015
  0.13410000000000000         -5.2086391653363966E-015
  0.13520000000000004         -7.4073735323361024E-015
  0.13630000000000003         -7.6019148375562789E-015
  0.13740000000000002         -5.5511655836525655E-015
  0.13850000000000001         -1.7111211588404659E-015
  0.13960000000000000          2.8603196899879615E-015
  0.14070000000000005          6.8117952309569562E-015
  0.14180000000000004          8.9306531368744214E-015
  0.14290000000000003          8.5563495576290450E-015
  0.14400000000000002          5.8260333524553484E-015
  0.14510000000000001          1.6508267597764201E-015
  0.14620000000000000         -2.5888457960211582E-015
  0.14730000000000004         -5.5370177879835774E-015
  0.14840000000000003         -6.3732501753766495E-015
  0.14950000000000002         -5.1455465427262173E-015
  0.15060000000000001         -2.7776619162638048E-015
  0.15170000000000000         -7.1345757514519853E-016
  0.15280000000000005         -2.9909165169276455E-016
  0.15390000000000004         -2.1211288236560153E-015
  0.15500000000000003         -5.5679333509112416E-015
  0.15610000000000002         -8.8350561059910297E-015
  0.15720000000000001         -9.4568890109570286E-015
  0.15830000000000000         -5.2552428671087657E-015
  0.15940000000000004          4.5859835402499164E-015
  0.16050000000000003          1.8714038872072142E-014
  0.16160000000000002          3.3438337400176500E-014
  0.16270000000000001          4.3407295752597218E-014
  0.16380000000000000          4.3076175793346651E-014
  0.16490000000000005          2.8623872475565212E-014
  0.16600000000000004         -2.4122693651126022E-016
  0.16710000000000003         -3.9211605882790913E-014
  0.16820000000000002         -7.9544420210181872E-014
  0.16930000000000001         -1.0965060031712030E-013
  0.17040000000000000         -1.1789293538429294E-013
  0.17150000000000004         -9.5979438906779958E-014
  0.17260000000000003         -4.2071326288311361E-014
  0.17370000000000002          3.7320224936860358E-014
  0.17480000000000001          1.2736607429278145E-013
  0.17590000000000000          2.0717214067193451E-013
  0.17700000000000005          2.5400111065855491E-013
  0.17810000000000004          2.4868073561763458E-013
  0.17920000000000003          1.8103284880343585E-013
  0.18030000000000002          5.4019309384070662E-014
  0.18140000000000001         -1.1454904341619610E-013
  0.18250000000000000         -2.9347856462817800E-013
  0.18360000000000004         -4.4296439592392756E-013
  0.18470000000000003         -5.2210918606014393E-013
  0.18580000000000002         -4.9798232243645408E-013
  0.18690000000000001         -3.5452672291352630E-013
  0.18800000000000000         -9.9389242089143924E-014
  0.18910000000000005          2.3314548003998722E-013
  0.19020000000000004          5.8446947522960960E-013
  0.19130000000000003          8.7973907388155197E-013
  0.19240000000000002          1.0411550303865195E-012
  0.19350000000000001          1.0046191517014907E-012
  0.19460000000000005          7.3682080542517082E-013
  0.19570000000000004          2.4904634310060803E-013
  0.19680000000000003         -3.9608758738353748E-013
  0.19790000000000002         -1.0880249402941950E-012
  0.19900000000000001         -1.6831759125801422E-012
  0.20010000000000000         -2.0303602950601477E-012
  0.20120000000000005         -2.0031411180891024E-012
  0.20230000000000004         -1.5330175850842038E-012
  0.20340000000000003         -6.3602653961572857E-013
  0.20450000000000002          5.7462752551079971E-013
  0.20560000000000000          1.8954304280185832E-012
  0.20670000000000005          3.0608974542394131E-012
  0.20780000000000004          3.7907846485569353E-012
  0.20890000000000003          3.8487814733748229E-012
  0.21000000000000002          3.1014926275464649E-012
  0.21110000000000001          1.5646973149718884E-012
  0.21220000000000000         -5.7524724204257585E-013
  0.21330000000000005         -2.9732737407447759E-012
  0.21440000000000003         -5.1730940536004079E-012
  0.21550000000000002         -6.6853251334326364E-012
  0.21660000000000001         -7.0841234275048671E-012
  0.21770000000000000         -6.1047745633069549E-012
  0.21880000000000005         -3.7222978369292987E-012
  0.21990000000000004         -1.9250599940431249E-013
  0.22100000000000003          3.9577431603417653E-012
  0.22210000000000002          7.9959310649319106E-012
  0.22320000000000001          1.1099390946684238E-011
  0.22430000000000000          1.2505010408975673E-011
  0.22540000000000004          1.1668569604099462E-011
  0.22650000000000003          8.4041192557408672E-012
  0.22760000000000002          2.9736688043949757E-012
  0.22870000000000001         -3.8971531816432034E-012
  0.22980000000000000         -1.1091141789485800E-011
  0.23090000000000005         -1.7258168606952944E-011
  0.23200000000000004         -2.1042635982405344E-011
  0.23310000000000003         -2.1346034627129060E-011
  0.23420000000000002         -1.7578991330469619E-011
  0.23530000000000001         -9.8522252413087119E-012
  0.23640000000000000          9.4009222109437097E-013
  0.23750000000000004          1.3177200294749784E-011
  0.23860000000000003          2.4718875636916809E-011
  0.23970000000000002          3.3244701321760598E-011
  0.24080000000000001          3.6678413705332932E-011
  0.24190000000000000          3.3626293577473110E-011
  0.24300000000000005          2.3745226168782810E-011
  0.24410000000000004          7.9578770035058304E-012
  0.24520000000000003         -1.1549023410383920E-011
  0.24630000000000002         -3.1573073039591582E-011
  0.24740000000000001         -4.8376245448019912E-011
  0.24850000000000005         -5.8333689704159130E-011
  0.24960000000000004         -5.8646720661371890E-011
  0.25070000000000003         -4.7989230123464256E-011
  0.25180000000000002         -2.6953047410368789E-011
  0.25290000000000001          1.8198398616006422E-012
  0.25400000000000000          3.3883375861272151E-011
  0.25510000000000005          6.3611351801299202E-011
  0.25620000000000004          8.5125447419765917E-011
  0.25730000000000003          9.3385663470359360E-011
  0.25840000000000002          8.5252788176893669E-011
  0.25950000000000001          6.0314643998574098E-011
  0.26060000000000005          2.1288266519892901E-011
  0.26170000000000004         -2.6130597512492350E-011
  0.26280000000000003         -7.4007672178177352E-011
  0.26390000000000002         -1.1342685364788732E-010
  0.26500000000000001         -1.3608046568588802E-010
  0.26610000000000000         -1.3592303091208156E-010
  0.26720000000000005         -1.1057346773550039E-010
  0.26830000000000004         -6.2163518222849808E-011
  0.26940000000000003          2.5954548655291861E-012
  0.27050000000000002          7.3225718045266204E-011
  0.27160000000000001          1.3710999420553100E-010
  0.27270000000000005          1.8169571692053509E-010
  0.27380000000000004          1.9689963935055368E-010
  0.27490000000000003          1.7725783744051165E-010
  0.27600000000000002          1.2337339929622376E-010
  0.27710000000000001          4.2314738346911150E-011
  0.27820000000000000         -5.3200946135300134E-011
  0.27930000000000005         -1.4677354531517980E-010
  0.28040000000000004         -2.2113385903267296E-010
  0.28150000000000003         -2.6131372354450416E-010
  0.28260000000000002         -2.5757906687050892E-010
  0.28370000000000001         -2.0754774272112409E-010
  0.28480000000000005         -1.1704665959154665E-010
  0.28590000000000004          5.0798428383453498E-013
  0.28700000000000003          1.2614425627039515E-010
  0.28810000000000002          2.3844693705958763E-010
  0.28920000000000001          3.1720499686498707E-010
  0.29030000000000000          3.4694793288435740E-010
  0.29140000000000005          3.1974714163158060E-010
  0.29250000000000004          2.3679790626660359E-010
  0.29360000000000003          1.0852051074666846E-010
  0.29470000000000002         -4.6822684770944375E-011
  0.29580000000000001         -2.0575561527452031E-010
  0.29690000000000005         -3.4304021247115528E-010
  0.29800000000000004         -4.3543034646253344E-010
  0.29910000000000003         -4.6519526394015231E-010
  0.30020000000000002         -4.2294354813479290E-010
  0.30130000000000001         -3.0939046000201495E-010
  0.30240000000000000         -1.3584814421222380E-010
  0.30350000000000005          7.6642186006597090E-011
  0.30460000000000004          2.9948396766157715E-010
  0.30570000000000003          4.9982796628953131E-010
  0.30680000000000002          6.4470667901839390E-010
  0.30790000000000001          7.0558881175070379E-010
  0.30900000000000005          6.6284212586152217E-010
  0.31010000000000004          5.0952442804883355E-010
  0.31120000000000003          2.5391569078448989E-010
  0.31230000000000002         -7.9722537289928557E-011
  0.31340000000000001         -4.5250334317896105E-010
  0.31450000000000006         -8.1447136982673315E-010
  0.31560000000000005         -1.1101313509967644E-009
  0.31670000000000004         -1.2854012525240568E-009
  0.31780000000000003         -1.2951794277536922E-009
  0.31890000000000002         -1.1105599218092684E-009
  0.32000000000000001         -7.2472156904718815E-010
  0.32110000000000005         -1.5664525644436347E-010
  0.32220000000000004          5.4793462844014606E-010
  0.32330000000000003          1.3186217899312661E-009
  0.32440000000000002          2.0654448955652330E-009
  0.32550000000000001          2.6865991475263813E-009
  0.32660000000000006          3.0782767347991129E-009
  0.32770000000000005          3.1458631451376821E-009
  0.32880000000000004          2.8156620177818371E-009
  0.32990000000000003          2.0462393954174467E-009
  0.33100000000000002          8.3840540765831272E-010
  0.33210000000000001         -7.5719097790927698E-010
  0.33320000000000005         -2.6358913909573436E-009
  0.33430000000000004         -4.6392530931219542E-009
  0.33540000000000003         -6.5604770719537816E-009
  0.33650000000000002         -8.1555283517204808E-009
  0.33760000000000001         -9.1600030706384036E-009
  0.33870000000000006         -9.3112302571306852E-009
  0.33980000000000005         -8.3744819208926310E-009
  0.34090000000000004         -6.1715948290462930E-009
  0.34200000000000003         -2.6098120591124685E-009
  0.34310000000000002          2.2915726119245201E-009
  0.34420000000000001          8.3791733442102816E-009
  0.34530000000000005          1.5350109666429052E-008
  0.34640000000000004          2.2744532244431265E-008
  0.34750000000000003          2.9946363163598050E-008
  0.34860000000000002          3.6191224921024956E-008
  0.34970000000000001          4.0579127954350903E-008
  0.35080000000000006          4.2088118997901298E-008
  0.35190000000000005          3.9584041929445649E-008
  0.35300000000000004          3.1820801166533735E-008
  0.35410000000000003          1.7425447363780837E-008
  0.35520000000000002         -5.1373494432043619E-009
  0.35630000000000001         -3.7625979053912005E-008
  0.35740000000000005         -8.2110802766697573E-008
  0.35850000000000004         -1.4109326912664556E-007
  0.35960000000000003         -2.1765560411112187E-007
  0.36070000000000002         -3.1564083886474378E-007
  0.36180000000000001         -4.3986216008928529E-007
  0.36290000000000006         -5.9634208386896040E-007
  0.36400000000000005         -7.9258258423435408E-007
  0.36510000000000004         -1.0378703606815946E-006
  0.36620000000000003         -1.3436250031175842E-006
  0.36730000000000002         -1.7238010540484013E-006
  0.36840000000000006         -2.1953571167745659E-006
  0.36950000000000005         -2.7788089616559607E-006
  0.37060000000000004         -3.4988855906603275E-006
  0.37170000000000003         -4.3853032241878423E-006
  0.37280000000000002         -5.4736712944848993E-006
  0.37390000000000001         -6.8065510267055100E-006
  0.37500000000000006         -8.4346633022174638E-006
  0.37610000000000005         -1.0418267149858944E-005
  0.37720000000000004         -1.2828704143959618E-005
  0.37830000000000003         -1.5750115440945130E-005
  0.37940000000000002         -1.9281348240839049E-005
  0.38050000000000006         -2.3538060569766705E-005
  0.38160000000000005         -2.8655007339450583E-005
  0.38270000000000004         -3.4788577792302291E-005
  0.38380000000000003         -4.2119528087583544E-005
  0.38490000000000002         -5.0855932163652149E-005
  0.38600000000000001         -6.1236397549127428E-005
  0.38710000000000000         -7.3533443992407580E-005
  0.38819999999999999         -8.8057084678975922E-005
  0.38930000000000009         -1.0515859306569661E-004
  0.39040000000000008         -1.2523433822218043E-004
  0.39150000000000007         -1.4872973932807075E-004
  0.39260000000000006         -1.7614314754222513E-004
  0.39370000000000005         -2.0802961140850202E-004
  0.39480000000000004         -2.4500449261952585E-004
  0.39590000000000003         -2.8774665894739130E-004
  0.39700000000000002         -3.3700118784727324E-004
  0.39810000000000001         -3.9358160418659913E-004
  0.39920000000000000         -4.5837101272472574E-004
  0.40029999999999999         -5.3232253966500160E-004
  0.40140000000000009         -6.1645859300014233E-004
  0.40250000000000008         -7.1186852961455170E-004
  0.40360000000000007         -8.1970513593595737E-004
  0.40470000000000006         -9.4117911213308569E-004
  0.40580000000000005         -1.0775518988583701E-003
  0.40690000000000004         -1.2301260130517144E-003
  0.40800000000000003         -1.4002335196746406E-003
  0.40910000000000002         -1.5892215260328573E-003
  0.41020000000000001         -1.7984356212453630E-003
  0.41130000000000000         -2.0292001772796320E-003
  0.41239999999999999         -2.2827954808214064E-003
  0.41350000000000009         -2.5604333286000122E-003
  0.41460000000000008         -2.8632279243687680E-003
  0.41570000000000007         -3.1921660064568817E-003
  0.41680000000000006         -3.5480740575152296E-003
  0.41790000000000005         -3.9315819836691808E-003
  0.41900000000000004         -4.3430880066536665E-003
  0.42010000000000003         -4.7827186901446272E-003
  0.42120000000000002         -5.2502914313790972E-003
  0.42230000000000001         -5.7452753048305195E-003
  0.42340000000000000         -6.2667545395406390E-003
  0.42449999999999999         -6.8133883030119862E-003
  0.42560000000000009         -7.3833805835980572E-003
  0.42670000000000008         -7.9744465552911859E-003
  0.42780000000000007         -8.5837889360993458E-003
  0.42890000000000006         -9.2080741753986697E-003
  0.43000000000000005         -9.8434203369180042E-003
  0.43110000000000004         -1.0485388121296409E-002
  0.43220000000000003         -1.1128983520698943E-002
  0.43330000000000002         -1.1768667148141190E-002
  0.43440000000000001         -1.2398374415955865E-002
  0.43550000000000000         -1.3011546401424200E-002
  0.43659999999999999         -1.3601173479559792E-002
  0.43770000000000009         -1.4159849609716011E-002
  0.43880000000000008         -1.4679835327590818E-002
  0.43990000000000007         -1.5153139210367431E-002
  0.44100000000000006         -1.5571602006933132E-002
  0.44210000000000005         -1.5926994268672098E-002
  0.44320000000000004         -1.6211127517300007E-002
  0.44430000000000003         -1.6415964736901111E-002
  0.44540000000000002         -1.6533741985946808E-002
  0.44650000000000001         -1.6557100845926452E-002
  0.44760000000000000         -1.6479210418603632E-002
  0.44869999999999999         -1.6293899968714116E-002
  0.44980000000000009         -1.5995786514981639E-002
  0.45090000000000008         -1.5580398152575874E-002
  0.45200000000000007         -1.5044290148678929E-002
  0.45310000000000006         -1.4385151087879336E-002
  0.45420000000000005         -1.3601902749726764E-002
  0.45530000000000004         -1.2694779687376137E-002
  0.45640000000000003         -1.1665391365993111E-002
  0.45750000000000002         -1.0516772987412448E-002
  0.45860000000000001         -9.2534052873319596E-003
  0.45970000000000000         -7.8812216602952324E-003
  0.46079999999999999         -6.4075875766383241E-003
  0.46190000000000009         -4.8412582405540777E-003
  0.46300000000000008         -3.1923117810384980E-003
  0.46410000000000007         -1.4720610321248971E-003
  0.46520000000000006          3.0705923933274063E-004
  0.46630000000000005          2.1316240354279773E-003
  0.46740000000000004          3.9873697483007123E-003
  0.46850000000000003          5.8593627193972517E-003
  0.46960000000000002          7.7321825343250605E-003
  0.47070000000000001          9.5901169379992660E-003
  0.47180000000000000          1.1417365917849824E-002
  0.47289999999999999          1.3198245655167992E-002
  0.47400000000000009          1.4917399969067463E-002
  0.47510000000000008          1.6560002989691680E-002
  0.47620000000000007          1.8111954045874127E-002
  0.47730000000000006          1.9560078119175449E-002
  0.47840000000000005          2.0892289996441840E-002