-0.1200000E+00  0.0000000E+00
-0.1189000E+00  0.0000000E+00
-0.1178000E+00  0.0000000E+00
-0.1167000E+00  0.0000000E+00
-0.1156000E+00  0.0000000E+00
-0.1145000E+00  0.0000000E+00
-0.1134000E+00  0.0000000E+00
-0.1123000E+00  0.0000000E+00
-0.1112000E+00  0.0000000E+00
-0.1101000E+00  0.0000000E+00
-0.1090000E+00  0.0000000E+00
-0.1079000E+00  0.0000000E+00
-0.1068000E+00  0.0000000E+00
-0.1057000E+00  0.0000000E+00
-0.1046000E+00  0.0000000E+00
-0.1035000E+00  0.0000000E+00
-0.1024000E+00  0.0000000E+00
-0.1013000E+00  0.0000000E+00
-0.1002000E+00  0.0000000E+00
-0.9910000E-01  0.0000000E+00
-0.9800000E-01  0.0000000E+00
-0.9690000E-01  0.0000000E+00
-0.9580000E-01  0.0000000E+00
-0.9470000E-01  0.0000000E+00
-0.9360000E-01  0.0000000E+00
-0.9250000E-01  0.0000000E+00
-0.9140000E-01  0.0000000E+00
-0.9030000E-01  0.0000000E+00
-0.8920000E-01  0.0000000E+00
-0.8810000E-01  0.0000000E+00
-0.8700000E-01  0.0000000E+00
-0.8590000E-01  0.0000000E+00
-0.8480000E-01  0.0000000E+00
-0.8370000E-01  0.0000000E+00
-0.8260000E-01 -0.0000000E+00
-0.8150000E-01 -0.0000000E+00
-0.8040000E-01  0.0000000E+00
-0.7930000E-01  0.0000000E+00
-0.7820000E-01 -0.0000000E+00
-0.7710000E-01 -0.0000000E+00
-0.7600000E-01 -0.0000000E+00
-0.7490000E-01 -0.0000000E+00
-0.7380000E-01  0.2554975E-37
-0.7270000E-01  0.9446495E-37
-0.7160000E-01  0.1949647E-36
-0.7050000E-01  0.1532413E-36
-0.6940000E-01 -0.4350676E-36
-0.6830000E-01 -0.1999437E-35
-0.6720000E-01 -0.4040166E-35
-0.6610000E-01 -0.3540490E-35
-0.6500000E-01  0.5838455E-35
-0.6390000E-01  0.3008189E-34
-0.6280000E-01  0.6229983E-34
-0.6170000E-01  0.6290300E-34
-0.6060000E-01 -0.4924847E-34
-0.5950000E-01 -0.3537253E-33
-0.5840000E-01 -0.7896808E-33
-0.5730000E-01 -0.9410156E-33
-0.5620000E-01  0.7148057E-34
-0.5510000E-01  0.3201988E-32
-0.5400000E-01  0.8188349E-32
-0.5290000E-01  0.1150110E-31
-0.5180000E-01  0.5042829E-32
-0.5070000E-01 -0.2118043E-31
-0.4960000E-01 -0.6889778E-31
-0.4850000E-01 -0.1143337E-30
-0.4740000E-01 -0.9430502E-31
-0.4630000E-01  0.8090320E-31
-0.4520000E-01  0.4600541E-30
-0.4410000E-01  0.9241521E-30
-0.4300000E-01  0.1059910E-29
-0.4190000E-01  0.1832484E-30
-0.4080000E-01 -0.2289103E-29
-0.3970000E-01 -0.6030395E-29
-0.3860000E-01 -0.8829421E-29
-0.3750000E-01 -0.6284580E-29
-0.3640000E-01  0.6582230E-29
-0.3530000E-01  0.3090102E-28
-0.3420000E-01  0.5758879E-28
-0.3310000E-01  0.6302435E-28
-0.3200000E-01  0.1370757E-28
-0.3090000E-01 -0.1134747E-27
-0.2980000E-01 -0.2959662E-27
-0.2870000E-01 -0.4309913E-27
-0.2760000E-01 -0.3352209E-27
-0.2650000E-01  0.1813596E-27
-0.2540000E-01  0.1150616E-26
-0.2430000E-01  0.2237723E-26
-0.2320000E-01  0.2626738E-26
-0.2210000E-01  0.1202445E-26
-0.2100000E-01 -0.2815115E-26
-0.1990000E-01 -0.8854625E-26
-0.1880000E-01 -0.1406335E-25
-0.1770000E-01 -0.1332469E-25
-0.1660000E-01 -0.1146908E-26
-0.1550000E-01  0.2429137E-25
-0.1440000E-01  0.5612380E-25
-0.1330000E-01  0.7587250E-25
-0.1220000E-01  0.5684783E-25
-0.1110000E-01 -0.2300572E-25
-0.1000000E-01 -0.1601947E-24
-0.8900000E-02 -0.3054192E-24
-0.7800000E-02 -0.3597067E-24
-0.6700000E-02 -0.2037800E-24
-0.5600000E-02  0.2329588E-24
-0.4500000E-02  0.8810828E-24
-0.3400000E-02  0.1464730E-23
-0.2300000E-02  0.1527165E-23
-0.1200000E-02  0.6027407E-24
-0.1000000E-03 -0.1470787E-23
 0.1000000E-02 -0.4207376E-23
 0.2100000E-02 -0.6305571E-23
 0.3200000E-02 -0.5903013E-23
 0.4300000E-02 -0.1389103E-23
 0.5400000E-02  0.7362193E-23
 0.6500000E-02  0.1785073E-22
 0.7600000E-02  0.2470322E-22
 0.8700000E-02  0.2108951E-22
 0.9800000E-02  0.2016279E-23
 0.1090000E-01 -0.3133931E-22
 0.1200000E-01 -0.6828877E-22
 0.1310000E-01 -0.8898797E-22
 0.1420000E-01 -0.7059595E-22
 0.1530000E-01  0.9188028E-24
 0.1640000E-01  0.1170072E-21
 0.1750000E-01  0.2378600E-21
 0.1860000E-01  0.2969670E-21
 0.1970000E-01  0.2239055E-21
 0.2080000E-01 -0.1753001E-22
 0.2190000E-01 -0.3893011E-21
 0.2300000E-01 -0.7591025E-21
 0.2410000E-01 -0.9225716E-21
 0.2520000E-01 -0.6777157E-21
 0.2630000E-01  0.6273221E-22
 0.2740000E-01  0.1163868E-20
 0.2850000E-01  0.2227751E-20
 0.2960000E-01  0.2674572E-20
 0.3070000E-01  0.1961510E-20
 0.3180000E-01 -0.1124138E-21
 0.3290000E-01 -0.3137739E-20
 0.3400000E-01 -0.6021487E-20
 0.3510000E-01 -0.7237056E-20
 0.3620000E-01 -0.5410915E-20
 0.3730000E-01 -0.8954047E-22
 0.3840000E-01  0.7630833E-20
 0.3950000E-01  0.1499188E-19
 0.4060000E-01  0.1825025E-19
 0.4170000E-01  0.1412418E-19
 0.4280000E-01  0.1592156E-20
 0.4390000E-01 -0.1671370E-19
 0.4500000E-01 -0.3436545E-19
 0.4610000E-01 -0.4279106E-19
 0.4720000E-01 -0.3457825E-19
 0.4830000E-01 -0.7427008E-20
 0.4940000E-01  0.3292611E-19
 0.5050000E-01  0.7257612E-19
 0.5160000E-01  0.9313316E-19
 0.5270000E-01  0.7876121E-19
 0.5380000E-01  0.2435990E-19
 0.5490000E-01 -0.5858049E-19
 0.5600000E-01 -0.1419315E-18
 0.5710000E-01 -0.1885316E-18
 0.5820000E-01 -0.1662885E-18
 0.5930000E-01 -0.6425702E-19
 0.6040000E-01  0.9608503E-19
 0.6150000E-01  0.2609219E-18
 0.6260000E-01  0.3588006E-18
 0.6370000E-01  0.3274766E-18
 0.6480000E-01  0.1442510E-18
 0.6590000E-01 -0.1528280E-18
 0.6700000E-01 -0.4648719E-18
 0.6810000E-01 -0.6589628E-18
 0.6920000E-01 -0.6172857E-18
 0.7030000E-01 -0.2929489E-18
 0.7140000E-01  0.2501521E-18
 0.7250000E-01  0.8349828E-18
 0.7360000E-01  0.1217376E-17
 0.7470000E-01  0.1173216E-17
 0.7580000E-01  0.6002316E-18
 0.7690000E-01 -0.4050316E-18
 0.7800000E-01 -0.1533868E-17
 0.7910000E-01 -0.2337570E-17
 0.8020000E-01 -0.2376997E-17
 0.8130000E-01 -0.1407764E-17
 0.8240000E-01  0.4654029E-18
 0.8350000E-01  0.2735220E-17
 0.8460000E-01  0.4586120E-17
 0.8570000E-01  0.5136053E-17
 0.8680000E-01  0.3767988E-17
 0.8790000E-01  0.4449859E-18
 0.8900000E-01 -0.4116203E-17
 0.9010000E-01 -0.8514050E-17
 0.9120000E-01 -0.1100783E-16
 0.9230000E-01 -0.1007965E-16
 0.9340000E-01 -0.5059425E-17
 0.9450000E-01  0.3399820E-17
 0.9560000E-01  0.1320441E-16
 0.9670000E-01  0.2119036E-16
 0.9780000E-01  0.2396947E-16
 0.9890000E-01  0.1906972E-16
 0.1000000E+00  0.6043475E-17
 0.1011000E+00 -0.1284911E-16
 0.1022000E+00 -0.3272044E-16
 0.1033000E+00 -0.4705767E-16
 0.1044000E+00 -0.4952805E-16
 0.1055000E+00 -0.3616738E-16
 0.1066000E+00 -0.7302249E-17
 0.1077000E+00  0.3150669E-16
 0.1088000E+00  0.7005078E-16
 0.1099000E+00  0.9575069E-16
 0.1110000E+00  0.9725290E-16
 0.1121000E+00  0.6844006E-16
 0.1132000E+00  0.1160225E-16
 0.1143000E+00 -0.6148250E-16
 0.1154000E+00 -0.1313773E-15
 0.1165000E+00 -0.1757296E-15
 0.1176000E+00 -0.1759338E-15
 0.1187000E+00 -0.1238483E-15
 0.1198000E+00 -0.2629710E-16
 0.1209000E+00  0.9459909E-16
 0.1220000E+00  0.2061405E-15
 0.1231000E+00  0.2740744E-15
 0.1242000E+00  0.2735152E-15
 0.1253000E+00  0.1982203E-15
 0.1264000E+00  0.6464962E-16
 0.1275000E+00 -0.9145402E-16
 0.1286000E+00 -0.2258016E-15
 0.1297000E+00 -0.3006080E-15
 0.1308000E+00 -0.2987276E-15
 0.1319000E+00 -0.2310602E-15
 0.1330000E+00 -0.1330718E-15
 0.1341000E+00 -0.5000839E-16
 0.1352000E+00 -0.1515523E-16
 0.1363000E+00 -0.2955142E-16
 0.1374000E+00 -0.5305707E-16
 0.1385000E+00 -0.1427225E-16
 0.1396000E+00  0.1594979E-15
 0.1407000E+00  0.4996741E-15
 0.1418000E+00  0.9566817E-15
 0.1429000E+00  0.1382396E-14
 0.1440000E+00  0.1550998E-14
 0.1451000E+00  0.1223717E-14
 0.1462000E+00  0.2465383E-15
 0.1473000E+00 -0.1347133E-14
 0.1484000E+00 -0.3268179E-14
 0.1495000E+00 -0.4976650E-14
 0.1506000E+00 -0.5783184E-14
 0.1517000E+00 -0.5041530E-14
 0.1528000E+00 -0.2391825E-14
 0.1539000E+00  0.2015949E-14
 0.1550000E+00  0.7402082E-14
 0.1561000E+00  0.1241203E-13
 0.1572000E+00  0.1537700E-13
 0.1583000E+00  0.1475040E-13
 0.1594000E+00  0.9625065E-14
 0.1605000E+00  0.1872191E-15
 0.1616000E+00 -0.1205027E-13
 0.1627000E+00 -0.2435854E-13
 0.1638000E+00 -0.3329100E-13
 0.1649000E+00 -0.3550403E-13
 0.1660000E+00 -0.2872613E-13
 0.1671000E+00 -0.1262530E-13
 0.1682000E+00  0.1069044E-13
 0.1693000E+00  0.3674473E-13
 0.1704000E+00  0.5941495E-13
 0.1715000E+00  0.7221610E-13
 0.1726000E+00  0.6989416E-13
 0.1737000E+00  0.4996176E-13
 0.1748000E+00  0.1377924E-13
 0.1759000E+00 -0.3314571E-13
 0.1770000E+00 -0.8180779E-13
 0.1781000E+00 -0.1212585E-12
 0.1792000E+00 -0.1408062E-12
 0.1803000E+00 -0.1324356E-12
 0.1814000E+00 -0.9294476E-13
 0.1825000E+00 -0.2532364E-13
 0.1836000E+00  0.6097424E-13
 0.1847000E+00  0.1510228E-12
 0.1858000E+00  0.2266090E-12
 0.1869000E+00  0.2693322E-12
 0.1880000E+00  0.2641684E-12
 0.1891000E+00  0.2029353E-12
 0.1902000E+00  0.8705498E-13
 0.1913000E+00 -0.7096550E-13
 0.1924000E+00 -0.2478091E-12
 0.1935000E+00 -0.4116705E-12
 0.1946000E+00 -0.5266410E-12
 0.1957000E+00 -0.5588219E-12
 0.1968000E+00 -0.4834306E-12
 0.1979000E+00 -0.2917753E-12
 0.1990000E+00  0.3306558E-14
 0.2001000E+00  0.3650293E-12
 0.2012000E+00  0.7345197E-12
 0.2023000E+00  0.1037654E-11
 0.2034000E+00  0.1196696E-11
 0.2045000E+00  0.1145478E-11
 0.2056000E+00  0.8458042E-12
 0.2067000E+00  0.3019178E-12
 0.2078000E+00 -0.4304781E-12
 0.2089000E+00 -0.1243810E-11
 0.2100000E+00 -0.1988917E-11
 0.2111000E+00 -0.2496346E-11
 0.2122000E+00 -0.2606725E-11
 0.2133000E+00 -0.2206004E-11
 0.2144000E+00 -0.1259356E-11
 0.2155000E+00  0.1635551E-12
 0.2166000E+00  0.1879096E-11
 0.2177000E+00  0.3601536E-11
 0.2188000E+00  0.4978685E-11
 0.2199000E+00  0.5649392E-11
 0.2210000E+00  0.5316049E-11
 0.2221000E+00  0.3820494E-11
 0.2232000E+00  0.1208325E-11
 0.2243000E+00 -0.2234510E-11
 0.2254000E+00 -0.5986944E-11
 0.2265000E+00 -0.9348360E-11
 0.2276000E+00 -0.1154433E-10
 0.2287000E+00 -0.1187153E-10
 0.2298000E+00 -0.9859758E-11
 0.2309000E+00 -0.5420429E-11
 0.2320000E+00  0.1053346E-11
 0.2331000E+00  0.8667025E-11
 0.2342000E+00  0.1610670E-10
 0.2353000E+00  0.2182676E-10
 0.2364000E+00  0.2432460E-10
 0.2375000E+00  0.2246107E-10
 0.2386000E+00  0.1576686E-10
 0.2397000E+00  0.4666631E-11
 0.2408000E+00 -0.9442573E-11
 0.2419000E+00 -0.2430185E-10
 0.2430000E+00 -0.3710012E-10
 0.2441000E+00 -0.4495171E-10
 0.2452000E+00 -0.4546912E-10
 0.2463000E+00 -0.3732610E-10
 0.2474000E+00 -0.2069187E-10
 0.2485000E+00  0.2573330E-11
 0.2496000E+00  0.2903626E-10
 0.2507000E+00  0.5414174E-10
 0.2518000E+00  0.7294881E-10
 0.2529000E+00  0.8103917E-10
 0.2540000E+00  0.7543566E-10
 0.2551000E+00  0.5534862E-10
 0.2562000E+00  0.2258362E-10
 0.2573000E+00 -0.1850435E-10
 0.2584000E+00 -0.6154483E-10
 0.2595000E+00 -0.9911534E-10
 0.2606000E+00 -0.1239871E-09
 0.2617000E+00 -0.1304412E-09
 0.2628000E+00 -0.1154165E-09
 0.2639000E+00 -0.7926960E-10
 0.2650000E+00 -0.2598811E-10
 0.2661000E+00  0.3720924E-10
 0.2672000E+00  0.1008439E-09
 0.2683000E+00  0.1545800E-09
 0.2694000E+00  0.1888428E-09
 0.2705000E+00  0.1963988E-09
 0.2716000E+00  0.1736504E-09
 0.2727000E+00  0.1214398E-09
 0.2738000E+00  0.4522925E-10
 0.2749000E+00 -0.4538815E-10
 0.2760000E+00 -0.1378054E-09
 0.2771000E+00 -0.2180238E-09
 0.2782000E+00 -0.2725952E-09
 0.2793000E+00 -0.2906500E-09
 0.2804000E+00 -0.2657536E-09
 0.2815000E+00 -0.1973239E-09
 0.2826000E+00 -0.9136614E-10
 0.2837000E+00  0.3966947E-10
 0.2848000E+00  0.1780159E-09
 0.2859000E+00  0.3026861E-09
 0.2870000E+00  0.3923699E-09
 0.2881000E+00  0.4288013E-09
 0.2892000E+00  0.4001203E-09
 0.2903000E+00  0.3036629E-09
 0.2914000E+00  0.1476105E-09
 0.2925000E+00 -0.4897012E-10
 0.2936000E+00 -0.2579476E-09
 0.2947000E+00 -0.4457587E-09
 0.2958000E+00 -0.5784620E-09
 0.2969000E+00 -0.6275001E-09
 0.2980000E+00 -0.5752339E-09
 0.2991000E+00 -0.4192353E-09
 0.3002000E+00 -0.1744338E-09
 0.3013000E+00  0.1274971E-09
 0.3024000E+00  0.4416925E-09
 0.3035000E+00  0.7162665E-09
 0.3046000E+00  0.9002863E-09
 0.3057000E+00  0.9523640E-09
 0.3068000E+00  0.8484753E-09
 0.3079000E+00  0.5876442E-09
 0.3090000E+00  0.1943824E-09
 0.3101000E+00 -0.2827732E-09
 0.3112000E+00 -0.7767060E-09
 0.3123000E+00 -0.1210587E-08
 0.3134000E+00 -0.1509026E-08
 0.3145000E+00 -0.1609914E-08
 0.3156000E+00 -0.1475133E-08
 0.3167000E+00 -0.1098355E-08
 0.3178000E+00 -0.5084631E-09
 0.3189000E+00  0.2322335E-09
 0.3200000E+00  0.1035062E-08
 0.3211000E+00  0.1796479E-08
 0.3222000E+00  0.2412349E-08
 0.3233000E+00  0.2792734E-08
 0.3244000E+00  0.2874737E-08
 0.3255000E+00  0.2631112E-08
 0.3266000E+00  0.2073091E-08
 0.3277000E+00  0.1246947E-08
 0.3288000E+00  0.2250805E-09
 0.3299000E+00 -0.9063707E-09
 0.3310000E+00 -0.2060538E-08
 0.3321000E+00 -0.3160335E-08
 0.3332000E+00 -0.4143825E-08
 0.3343000E+00 -0.4962956E-08
 0.3354000E+00 -0.5575821E-08
 0.3365000E+00 -0.5934367E-08
 0.3376000E+00 -0.5970978E-08
 0.3387000E+00 -0.5588172E-08
 0.3398000E+00 -0.4655618E-08
 0.3409000E+00 -0.3017669E-08
 0.3420000E+00 -0.5129310E-09
 0.3431000E+00  0.2994730E-08
 0.3442000E+00  0.7576367E-08
 0.3453000E+00  0.1319354E-07
 0.3464000E+00  0.1965430E-07
 0.3475000E+00  0.2657450E-07
 0.3486000E+00  0.3334817E-07
 0.3497000E+00  0.3912902E-07
 0.3508000E+00  0.4282302E-07
 0.3519000E+00  0.4308960E-07
 0.3530000E+00  0.3834738E-07
 0.3541000E+00  0.2677860E-07
 0.3552000E+00  0.6325735E-08
 0.3563000E+00 -0.2532712E-07
 0.3574000E+00 -0.7079597E-07
 0.3585000E+00 -0.1330697E-06
 0.3596000E+00 -0.2156225E-06
 0.3607000E+00 -0.3225745E-06
 0.3618000E+00 -0.4589070E-06
 0.3629000E+00 -0.6307394E-06
 0.3640000E+00 -0.8456693E-06
 0.3651000E+00 -0.1113179E-05
 0.3662000E+00 -0.1445106E-05
 0.3673000E+00 -0.1856171E-05
 0.3684000E+00 -0.2364578E-05
 0.3695000E+00 -0.2992666E-05
 0.3706000E+00 -0.3767650E-05
 0.3717000E+00 -0.4722436E-05
 0.3728000E+00 -0.5896557E-05
 0.3739000E+00 -0.7337231E-05
 0.3750000E+00 -0.9100600E-05
 0.3761000E+00 -0.1125314E-04
 0.3772000E+00 -0.1387329E-04
 0.3783000E+00 -0.1705338E-04
 0.3794000E+00 -0.2090168E-04
 0.3805000E+00 -0.2554485E-04
 0.3816000E+00 -0.3113059E-04
 0.3827000E+00 -0.3783054E-04
 0.3838000E+00 -0.4584345E-04
 0.3849000E+00 -0.5539857E-04
 0.3860000E+00 -0.6675930E-04
 0.3871000E+00 -0.8022708E-04
 0.3882000E+00 -0.9614536E-04
 0.3893000E+00 -0.1149040E-03
 0.3904000E+00 -0.1369433E-03
 0.3915000E+00 -0.1627590E-03
 0.3926000E+00 -0.1929063E-03
 0.3937000E+00 -0.2280043E-03
 0.3948000E+00 -0.2687404E-03
 0.3959000E+00 -0.3158740E-03
 0.3970000E+00 -0.3702398E-03
 0.3981000E+00 -0.4327509E-03
 0.3992000E+00 -0.5044004E-03
 0.4003000E+00 -0.5862627E-03
 0.4014000E+00 -0.6794931E-03
 0.4025000E+00 -0.7853259E-03
 0.4036000E+00 -0.9050712E-03
 0.4047000E+00 -0.1040109E-02
 0.4058000E+00 -0.1191884E-02
 0.4069000E+00 -0.1361892E-02
 0.4080000E+00 -0.1551671E-02
 0.4091000E+00 -0.1762785E-02
 0.4102000E+00 -0.1996804E-02
 0.4113000E+00 -0.2255286E-02
 0.4124000E+00 -0.2539754E-02
 0.4135000E+00 -0.2851662E-02
 0.4146000E+00 -0.3192373E-02
 0.4157000E+00 -0.3563120E-02
 0.4168000E+00 -0.3964972E-02
 0.4179000E+00 -0.4398796E-02
 0.4190000E+00 -0.4865214E-02
 0.4201000E+00 -0.5364562E-02
 0.4212000E+00 -0.5896849E-02
 0.4223000E+00 -0.6461706E-02
 0.4234000E+00 -0.7058350E-02
 0.4245000E+00 -0.7685539E-02
 0.4256000E+00 -0.8341532E-02
 0.4267000E+00 -0.9024054E-02
 0.4278000E+00 -0.9730264E-02
 0.4289000E+00 -0.1045673E-01
 0.4300000E+00 -0.1119940E-01
 0.4311000E+00 -0.1195362E-01
 0.4322000E+00 -0.1271409E-01
 0.4333000E+00 -0.1347490E-01
 0.4344000E+00 -0.1422955E-01
 0.4355000E+00 -0.1497095E-01
 0.4366000E+00 -0.1569149E-01
 0.4377000E+00 -0.1638308E-01
 0.4388000E+00 -0.1703725E-01
 0.4399000E+00 -0.1764516E-01
 0.4410000E+00 -0.1819777E-01
 0.4421000E+00 -0.1868589E-01
 0.4432000E+00 -0.1910030E-01
 0.4443000E+00 -0.1943191E-01
 0.4454000E+00 -0.1967186E-01
 0.4465000E+00 -0.1981164E-01
 0.4476000E+00 -0.1984328E-01
 0.4487000E+00 -0.1975944E-01
 0.4498000E+00 -0.1955361E-01
 0.4509000E+00 -0.1922017E-01
 0.4520000E+00 -0.1875460E-01
 0.4531000E+00 -0.1815354E-01
 0.4542000E+00 -0.1741495E-01
 0.4553000E+00 -0.1653816E-01
 0.4564000E+00 -0.1552398E-01
 0.4575000E+00 -0.1437475E-01
 0.4586000E+00 -0.1309437E-01
 0.4597000E+00 -0.1168832E-01
 0.4608000E+00 -0.1016365E-01
 0.4619000E+00 -0.8528947E-02
 0.4630000E+00 -0.6794258E-02
 0.4641000E+00 -0.4971039E-02
 0.4652000E+00 -0.3072018E-02
 0.4663000E+00 -0.1111076E-02
 0.4674000E+00  0.8969141E-03
 0.4685000E+00  0.2936253E-02
 0.4696000E+00  0.4990610E-02
 0.4707000E+00  0.7043219E-02
 0.4718000E+00  0.9077092E-02
 0.4729000E+00  0.1107524E-01
 0.4740000E+00  0.1302089E-01
 0.4751000E+00  0.1489771E-01
 0.4762000E+00  0.1669001E-01
 0.4773000E+00  0.1838298E-01
 0.4784000E+00  0.1996282E-01
 0.4795000E+00  0.2141700E-01
 0.4806000E+00  0.2273433E-01
 0.4817000E+00  0.2390515E-01
 0.4828000E+00  0.2492143E-01
 0.4839000E+00  0.2577685E-01
 0.4850000E+00  0.2646685E-01
 0.4861000E+00  0.2698869E-01
 0.4872000E+00  0.2734140E-01
 0.4883000E+00  0.2752581E-01
 0.4894000E+00  0.2754448E-01
 0.4905000E+00  0.2740159E-01
 0.4916000E+00  0.2710291E-01
 0.4927000E+00  0.2665561E-01
 0.4938000E+00  0.2606818E-01
 0.4949000E+00  0.2535025E-01
 0.4960000E+00  0.2451243E-01
 0.4971000E+00  0.2356615E-01
 0.4982000E+00  0.2252347E-01
 0.4993000E+00  0.2139691E-01
 0.5004000E+00  0.2019927E-01
 0.5015000E+00  0.1894347E-01
 0.5026000E+00  0.1764237E-01
 0.5037000E+00  0.1630863E-01
 0.5048000E+00  0.1495454E-01
 0.5059000E+00  0.1359190E-01
 0.5070000E+00  0.1223193E-01
 0.5081000E+00  0.1088513E-01
 0.5092000E+00  0.9561216E-02
 0.5103000E+00  0.8269053E-02
 0.5114000E+00  0.7016605E-02
 0.5125000E+00  0.5810894E-02
 0.5136000E+00  0.4657988E-02
 0.5147000E+00  0.3562993E-02
 0.5158000E+00  0.2530068E-02
 0.5169000E+00  0.1562445E-02
 0.5180000E+00  0.6624647E-03
 0.5191000E+00 -0.1683771E-03
 0.5202000E+00 -0.9293798E-03
 0.5213000E+00 -0.1620579E-02
 0.5224000E+00 -0.2242683E-02
 0.5235000E+00 -0.2797011E-02
 0.5246000E+00 -0.3285418E-02
 0.5257000E+00 -0.3710231E-02
 0.5268000E+00 -0.4074177E-02
 0.5279000E+00 -0.4380314E-02
 0.5290000E+00 -0.4631966E-02
 0.5301000E+00 -0.4832658E-02
 0.5312000E+00 -0.4986060E-02
 0.5323000E+00 -0.5095931E-02
 0.5334000E+00 -0.5166066E-02
 0.5345000E+00 -0.5200253E-02
 0.5356000E+00 -0.5202225E-02
 0.5367000E+00 -0.5175632E-02
 0.5378000E+00 -0.5124002E-02
 0.5389000E+00 -0.5050721E-02
 0.5400000E+00 -0.4959007E-02
 0.5411000E+00 -0.4851895E-02
 0.5422000E+00 -0.4732225E-02
 0.5433000E+00 -0.4602625E-02
 0.5444000E+00 -0.4465508E-02
 0.5455000E+00 -0.4323066E-02
 0.5466000E+00 -0.4177267E-02
 0.5477000E+00 -0.4029860E-02
 0.5488000E+00 -0.3882377E-02
 0.5499000E+00 -0.3736142E-02
 0.5510000E+00 -0.3592275E-02
 0.5521000E+00 -0.3451705E-02
 0.5532000E+00 -0.3315180E-02
 0.5543000E+00 -0.3183276E-02
 0.5554000E+00 -0.3056411E-02
 0.5565000E+00 -0.2934861E-02
 0.5576000E+00 -0.2818771E-02
 0.5587000E+00 -0.2708176E-02
 0.5598000E+00 -0.2603006E-02
 0.5609000E+00 -0.2503109E-02
 0.5620000E+00 -0.2408261E-02
 0.5631000E+00 -0.2318182E-02
 0.5642000E+00 -0.2232549E-02
 0.5653000E+00 -0.2151009E-02
 0.5664000E+00 -0.2073197E-02
 0.5675000E+00 -0.1998742E-02
 0.5686000E+00 -0.1927281E-02
 0.5697000E+00 -0.1858467E-02
 0.5708000E+00 -0.1791975E-02
 0.5719000E+00 -0.1727510E-02
 0.5730000E+00 -0.1664814E-02
 0.5741000E+00 -0.1603664E-02
 0.5752000E+00 -0.1543885E-02
 0.5763000E+00 -0.1485344E-02
 0.5774000E+00 -0.1427956E-02
 0.5785000E+00 -0.1371683E-02
 0.5796000E+00 -0.1316528E-02
 0.5807000E+00 -0.1262537E-02
 0.5818000E+00 -0.1209794E-02
 0.5829000E+00 -0.1158410E-02
 0.5840000E+00 -0.1108526E-02
 0.5851000E+00 -0.1060295E-02
 0.5862000E+00 -0.1013885E-02
 0.5873000E+00 -0.9694654E-03
 0.5884000E+00 -0.9272016E-03
 0.5895000E+00 -0.8872483E-03
 0.5906000E+00 -0.8497423E-03
 0.5917000E+00 -0.8147983E-03
 0.5928000E+00 -0.7825035E-03
 0.5939000E+00 -0.7529138E-03
 0.5950000E+00 -0.7260510E-03
 0.5961000E+00 -0.7019009E-03
 0.5972000E+00 -0.6804115E-03
 0.5983000E+00 -0.6614925E-03
 0.5994000E+00 -0.6450160E-03
 0.6005000E+00 -0.6308165E-03
 0.6016000E+00 -0.6186947E-03
 0.6027000E+00 -0.6084208E-03
 0.6038000E+00 -0.5997401E-03
 0.6049000E+00 -0.5923796E-03
 0.6060000E+00 -0.5860546E-03
 0.6071000E+00 -0.5804763E-03
 0.6082000E+00 -0.5753587E-03
 0.6093000E+00 -0.5704261E-03
 0.6104000E+00 -0.5654187E-03
 0.6115000E+00 -0.5601002E-03
 0.6126000E+00 -0.5542624E-03
 0.6137000E+00 -0.5477302E-03
 0.6148000E+00 -0.5403656E-03
 0.6159000E+00 -0.5320690E-03
 0.6170000E+00 -0.5227802E-03
 0.6181000E+00 -0.5124786E-03
 0.6192000E+00 -0.5011818E-03
 0.6203000E+00 -0.4889439E-03
 0.6214000E+00 -0.4758536E-03
 0.6225000E+00 -0.4620303E-03
 0.6236000E+00 -0.4476194E-03
 0.6247000E+00 -0.4327867E-03
 0.6258000E+00 -0.4177108E-03
 0.6269000E+00 -0.4025766E-03
 0.6280000E+00 -0.3875682E-03
 0.6291000E+00 -0.3728632E-03
 0.6302000E+00 -0.3586276E-03
 0.6313000E+00 -0.3450114E-03
 0.6324000E+00 -0.3321446E-03
 0.6335000E+00 -0.3201340E-03
 0.6346000E+00 -0.3090599E-03
 0.6357000E+00 -0.2989752E-03
 0.6368000E+00 -0.2899040E-03
 0.6379000E+00 -0.2818434E-03
 0.6390000E+00 -0.2747648E-03
 0.6401000E+00 -0.2686169E-03
 0.6412000E+00 -0.2633287E-03
 0.6423000E+00 -0.2588124E-03
 0.6434000E+00 -0.2549666E-03
 0.6445000E+00 -0.2516806E-03
 0.6456000E+00 -0.2488380E-03
 0.6467000E+00 -0.2463214E-03
 0.6478000E+00 -0.2440158E-03
 0.6489000E+00 -0.2418121E-03
 0.6500000E+00 -0.2396088E-03
 0.6511000E+00 -0.2373121E-03
 0.6522000E+00 -0.2348369E-03
 0.6533000E+00 -0.2321055E-03
 0.6544000E+00 -0.2290478E-03
 0.6555000E+00 -0.2256003E-03
 0.6566000E+00 -0.2217049E-03
 0.6577000E+00 -0.2173069E-03
 0.6588000E+00 -0.2123527E-03
 0.6599000E+00 -0.2067865E-03
 0.6610000E+00 -0.2005482E-03
 0.6621000E+00 -0.1935715E-03
 0.6632000E+00 -0.1857829E-03
 0.6643000E+00 -0.1771017E-03
 0.6654000E+00 -0.1674406E-03
 0.6665000E+00 -0.1567060E-03
 0.6676000E+00 -0.1447992E-03
 0.6687000E+00 -0.1316179E-03
 0.6698000E+00 -0.1170585E-03
 0.6709000E+00 -0.1010188E-03
 0.6720000E+00 -0.8340063E-04
 0.6731000E+00 -0.6411220E-04
 0.6742000E+00 -0.4306846E-04
 0.6753000E+00 -0.2019024E-04
 0.6764000E+00  0.4598115E-05
 0.6775000E+00  0.3137216E-04
 0.6786000E+00  0.6021110E-04
 0.6797000E+00  0.9120189E-04
 0.6808000E+00  0.1244439E-03
 0.6819000E+00  0.1600543E-03
 0.6830000E+00  0.1981749E-03
 0.6841000E+00  0.2389800E-03
 0.6852000E+00  0.2826848E-03
 0.6863000E+00  0.3295533E-03
 0.6874000E+00  0.3799056E-03
 0.6885000E+00  0.4341237E-03
 0.6896000E+00  0.4926557E-03
 0.6907000E+00  0.5560184E-03
 0.6918000E+00  0.6247975E-03
 0.6929000E+00  0.6996455E-03
 0.6940000E+00  0.7812749E-03
 0.6951000E+00  0.8704473E-03
 0.6962000E+00  0.9679574E-03
 0.6973000E+00  0.1074612E-02
 0.6984000E+00  0.1191207E-02
 0.6995000E+00  0.1318495E-02
 0.7006000E+00  0.1457162E-02
 0.7017000E+00  0.1607791E-02
 0.7028000E+00  0.1770828E-02
 0.7039000E+00  0.1946551E-02
 0.7050000E+00  0.2135031E-02
 0.7061000E+00  0.2336097E-02
 0.7072000E+00  0.2549302E-02
 0.7083000E+00  0.2773894E-02
 0.7094000E+00  0.3008792E-02
 0.7105000E+00  0.3252562E-02
 0.7116000E+00  0.3503408E-02
 0.7127000E+00  0.3759158E-02
 0.7138000E+00  0.4017269E-02
 0.7149000E+00  0.4274833E-02
 0.7160000E+00  0.4528591E-02
 0.7171000E+00  0.4774968E-02
 0.7182000E+00  0.5010102E-02
 0.7193000E+00  0.5229895E-02
 0.7204000E+00  0.5430064E-02
 0.7215000E+00  0.5606199E-02
 0.7226000E+00  0.5753826E-02
 0.7237000E+00  0.5868481E-02
 0.7248000E+00  0.5945777E-02
 0.7259000E+00  0.5981484E-02
 0.7270000E+00  0.5971608E-02
 0.7281000E+00  0.5912461E-02
 0.7292000E+00  0.5800743E-02
 0.7303000E+00  0.5633605E-02
 0.7314000E+00  0.5408720E-02
 0.7325000E+00  0.5124332E-02
 0.7336000E+00  0.4779309E-02
 0.7347000E+00  0.4373186E-02
 0.7358000E+00  0.3906190E-02
 0.7369000E+00  0.3379266E-02
 0.7380000E+00  0.2794080E-02
 0.7391000E+00  0.2153020E-02
 0.7402000E+00  0.1459178E-02
 0.7413000E+00  0.7163245E-03
 0.7424000E+00 -0.7112308E-04
 0.7435000E+00 -0.8981448E-03
 0.7446000E+00 -0.1759168E-02
 0.7457000E+00 -0.2648127E-02
 0.7468000E+00 -0.3558524E-02
 0.7479000E+00 -0.4483500E-02
 0.7490000E+00 -0.5415908E-02
 0.7501000E+00 -0.6348384E-02
 0.7512000E+00 -0.7273420E-02
 0.7523000E+00 -0.8183436E-02
 0.7534000E+00 -0.9070849E-02
 0.7545000E+00 -0.9928131E-02
 0.7556000E+00 -0.1074789E-01
 0.7567000E+00 -0.1152290E-01
 0.7578000E+00 -0.1224619E-01
 0.7589000E+00 -0.1291107E-01
 0.7600000E+00 -0.1351118E-01
 0.7611000E+00 -0.1404051E-01
 0.7622000E+00 -0.1449348E-01
 0.7633000E+00 -0.1486493E-01
 0.7644000E+00 -0.1515013E-01
 0.7655000E+00 -0.1534488E-01
 0.7666000E+00 -0.1544543E-01
 0.7677000E+00 -0.1544858E-01
 0.7688000E+00 -0.1535167E-01
 0.7699000E+00 -0.1515257E-01
 0.7710000E+00 -0.1484972E-01
 0.7721000E+00 -0.1444217E-01
 0.7732000E+00 -0.1392955E-01
 0.7743000E+00 -0.1331213E-01
 0.7754000E+00 -0.1259082E-01
 0.7765000E+00 -0.1176721E-01
 0.7776000E+00 -0.1084355E-01
 0.7787000E+00 -0.9822825E-02
 0.7798000E+00 -0.8708721E-02
 0.7809000E+00 -0.7505662E-02
 0.7820000E+00 -0.6218815E-02
 0.7831000E+00 -0.4854092E-02
 0.7842000E+00 -0.3418146E-02
 0.7853000E+00 -0.1918365E-02
 0.7864000E+00 -0.3628450E-03
 0.7875000E+00  0.1239627E-02
 0.7886000E+00  0.2879616E-02
 0.7897000E+00  0.4547080E-02
 0.7908000E+00  0.6231433E-02
 0.7919000E+00  0.7921613E-02
 0.7930000E+00  0.9606160E-02
 0.7941000E+00  0.1127331E-01
 0.7952000E+00  0.1291110E-01
 0.7963000E+00  0.1450747E-01
 0.7974000E+00  0.1605039E-01
 0.7985000E+00  0.1752796E-01
 0.7996000E+00  0.1892857E-01
 0.8007000E+00  0.2024099E-01
 0.8018000E+00  0.2145454E-01
 0.8029000E+00  0.2255919E-01
 0.8040000E+00  0.2354568E-01
 0.8051000E+00  0.2440566E-01
 0.8062000E+00  0.2513177E-01
 0.8073000E+00  0.2571777E-01
 0.8084000E+00  0.2615861E-01
 0.8095000E+00  0.2645051E-01
 0.8106000E+00  0.2659100E-01
 0.8117000E+00  0.2657902E-01
 0.8128000E+00  0.2641489E-01
 0.8139000E+00  0.2610033E-01
 0.8150000E+00  0.2563846E-01
 0.8161000E+00  0.2503377E-01
 0.8172000E+00  0.2429207E-01
 0.8183000E+00  0.2342042E-01
 0.8194000E+00  0.2242707E-01
 0.8205000E+00  0.2132133E-01
 0.8216000E+00  0.2011351E-01
 0.8227000E+00  0.1881476E-01
 0.8238000E+00  0.1743692E-01
 0.8249000E+00  0.1599245E-01
 0.8260000E+00  0.1449420E-01
 0.8271000E+00  0.1295531E-01
 0.8282000E+00  0.1138902E-01
 0.8293000E+00  0.9808556E-02
 0.8304000E+00  0.8226932E-02
 0.8315000E+00  0.6656826E-02
 0.8326000E+00  0.5110431E-02
 0.8337000E+00  0.3599323E-02
 0.8348000E+00  0.2134339E-02
 0.8359000E+00  0.7254662E-03
 0.8370000E+00 -0.6182526E-03
 0.8381000E+00 -0.1888804E-02
 0.8392000E+00 -0.3079270E-02
 0.8403000E+00 -0.4183882E-02
 0.8414000E+00 -0.5198048E-02
 0.8425000E+00 -0.6118370E-02
 0.8436000E+00 -0.6942643E-02
 0.8447000E+00 -0.7669830E-02
 0.8458000E+00 -0.8300029E-02
 0.8469000E+00 -0.8834420E-02
 0.8480000E+00 -0.9275205E-02
 0.8491000E+00 -0.9625529E-02
 0.8502000E+00 -0.9889392E-02
 0.8513000E+00 -0.1007155E-01
 0.8524000E+00 -0.1017741E-01
 0.8535000E+00 -0.1021293E-01
 0.8546000E+00 -0.1018447E-01
 0.8557000E+00 -0.1009872E-01
 0.8568000E+00 -0.9962575E-02
 0.8579000E+00 -0.9782995E-02
 0.8590000E+00 -0.9566937E-02
 0.8601000E+00 -0.9321223E-02
 0.8612000E+00 -0.9052466E-02
 0.8623000E+00 -0.8766966E-02
 0.8634000E+00 -0.8470653E-02
 0.8645000E+00 -0.8169008E-02
 0.8656000E+00 -0.7867029E-02
 0.8667000E+00 -0.7569178E-02
 0.8678000E+00 -0.7279363E-02
 0.8689000E+00 -0.7000916E-02
 0.8700000E+00 -0.6736591E-02
 0.8711000E+00 -0.6488567E-02
 0.8722000E+00 -0.6258466E-02
 0.8733000E+00 -0.6047377E-02
 0.8744000E+00 -0.5855889E-02
 0.8755000E+00 -0.5684128E-02
 0.8766000E+00 -0.5531804E-02
 0.8777000E+00 -0.5398253E-02
 0.8788000E+00 -0.5282497E-02
 0.8799000E+00 -0.5183289E-02
 0.8810000E+00 -0.5099175E-02
 0.8821000E+00 -0.5028540E-02
 0.8832000E+00 -0.4969665E-02
 0.8843000E+00 -0.4920770E-02
 0.8854000E+00 -0.4880059E-02
 0.8865000E+00 -0.4845755E-02
 0.8876000E+00 -0.4816135E-02
 0.8887000E+00 -0.4789558E-02
 0.8898000E+00 -0.4764488E-02
 0.8909000E+00 -0.4739515E-02
 0.8920000E+00 -0.4713367E-02
 0.8931000E+00 -0.4684923E-02
 0.8942000E+00 -0.4653216E-02
 0.8953000E+00 -0.4617435E-02
 0.8964000E+00 -0.4576921E-02
 0.8975000E+00 -0.4531164E-02
 0.8986000E+00 -0.4479790E-02
 0.8997000E+00 -0.4422554E-02
 0.9008000E+00 -0.4359328E-02
 0.9019000E+00 -0.4290083E-02
 0.9030000E+00 -0.4214881E-02
 0.9041000E+00 -0.4133855E-02
 0.9052000E+00 -0.4047203E-02
 0.9063000E+00 -0.3955170E-02
 0.9074000E+00 -0.3858043E-02
 0.9085000E+00 -0.3756137E-02
 0.9096000E+00 -0.3649789E-02
 0.9107000E+00 -0.3539347E-02
 0.9118000E+00 -0.3425163E-02
 0.9129000E+00 -0.3307591E-02
 0.9140000E+00 -0.3186976E-02
 0.9151000E+00 -0.3063654E-02
 0.9162000E+00 -0.2937947E-02
 0.9173000E+00 -0.2810167E-02
 0.9184000E+00 -0.2680610E-02
 0.9195000E+00 -0.2549561E-02
 0.9206000E+00 -0.2417295E-02
 0.9217000E+00 -0.2284081E-02
 0.9228000E+00 -0.2150184E-02
 0.9239000E+00 -0.2015867E-02
 0.9250000E+00 -0.1881392E-02
 0.9261000E+00 -0.1747024E-02
 0.9272000E+00 -0.1613028E-02
 0.9283000E+00 -0.1479674E-02
 0.9294000E+00 -0.1347239E-02
 0.9305000E+00 -0.1216010E-02
 0.9316000E+00 -0.1086284E-02
 0.9327000E+00 -0.9583696E-03
 0.9338000E+00 -0.8325863E-03
 0.9349000E+00 -0.7092645E-03
 0.9360000E+00 -0.5887427E-03
 0.9371000E+00 -0.4713658E-03
 0.9382000E+00 -0.3574829E-03
 0.9393000E+00 -0.2474436E-03
 0.9404000E+00 -0.1415939E-03
 0.9415000E+00 -0.4027148E-04
 0.9426000E+00  0.5620012E-04
 0.9437000E+00  0.1475172E-03
 0.9448000E+00  0.2334013E-03
 0.9459000E+00  0.3136034E-03
 0.9470000E+00  0.3879094E-03
 0.9481000E+00  0.4561439E-03
 0.9492000E+00  0.5181758E-03
 0.9503000E+00  0.5739233E-03
 0.9514000E+00  0.6233584E-03
 0.9525000E+00  0.6665104E-03
 0.9536000E+00  0.7034673E-03
 0.9547000E+00  0.7343756E-03
 0.9558000E+00  0.7594381E-03
 0.9569000E+00  0.7789104E-03
 0.9580000E+00  0.7930971E-03
 0.9591000E+00  0.8023464E-03
 0.9602000E+00  0.8070450E-03
 0.9613000E+00  0.8076105E-03
 0.9624000E+00  0.8044842E-03
 0.9635000E+00  0.7981223E-03
 0.9646000E+00  0.7889871E-03
 0.9657000E+00  0.7775390E-03
 0.9668000E+00  0.7642281E-03
 0.9679000E+00  0.7494867E-03
 0.9690000E+00  0.7337216E-03
 0.9701000E+00  0.7173063E-03
 0.9712000E+00  0.7005736E-03
 0.9723000E+00  0.6838084E-03
 0.9734000E+00  0.6672429E-03
 0.9745000E+00  0.6510540E-03
 0.9756000E+00  0.6353626E-03
 0.9767000E+00  0.6202355E-03
 0.9778000E+00  0.6056881E-03
 0.9789000E+00  0.5916883E-03