 -0.12000000000000000          0.0000000000000000     
 -0.11889999999999999          0.0000000000000000     
 -0.11780000000000000          0.0000000000000000     
 -0.11670000000000000          0.0000000000000000     
 -0.11559999999999999          0.0000000000000000     
 -0.11449999999999999          0.0000000000000000     
 -0.11340000000000000          0.0000000000000000     
 -0.11230000000000000          0.0000000000000000     
 -0.11119999999999999          0.0000000000000000     
 -0.11009999999999999          0.0000000000000000     
 -0.10900000000000000          0.0000000000000000     
 -0.10790000000000000          0.0000000000000000     
 -0.10679999999999999          0.0000000000000000     
 -0.10569999999999999          0.0000000000000000     
 -0.10460000000000000          0.0000000000000000     
 -0.10349999999999999          0.0000000000000000     
 -0.10239999999999999          0.0000000000000000     
 -0.10130000000000000          0.0000000000000000     
 -0.10020000000000000          0.0000000000000000     
  -9.9099999999999994E-002     0.0000000000000000     
  -9.7999999999999990E-002     0.0000000000000000     
  -9.6899999999999986E-002     0.0000000000000000     
  -9.5799999999999996E-002     0.0000000000000000     
  -9.4699999999999993E-002     0.0000000000000000     
  -9.3599999999999989E-002     0.0000000000000000     
  -9.2499999999999999E-002     0.0000000000000000     
  -9.1399999999999995E-002     0.0000000000000000     
  -9.0299999999999991E-002     0.0000000000000000     
  -8.9200000000000002E-002     0.0000000000000000     
  -8.8099999999999984E-002     0.0000000000000000     
  -8.6999999999999994E-002     0.0000000000000000     
  -8.5899999999999990E-002     0.0000000000000000     
  -8.4799999999999986E-002     0.0000000000000000     
  -8.3699999999999997E-002     0.0000000000000000     
  -8.2599999999999993E-002     0.0000000000000000     
  -8.1499999999999989E-002     0.0000000000000000     
  -8.0399999999999999E-002     0.0000000000000000     
  -7.9299999999999995E-002     0.0000000000000000     
  -7.8199999999999992E-002     0.0000000000000000     
  -7.7100000000000002E-002     0.0000000000000000     
  -7.5999999999999984E-002     0.0000000000000000     
  -7.4899999999999994E-002     0.0000000000000000     
  -7.3799999999999991E-002     0.0000000000000000     
  -7.2699999999999987E-002     0.0000000000000000     
  -7.1599999999999997E-002     0.0000000000000000     
  -7.0499999999999993E-002     0.0000000000000000     
  -6.9399999999999989E-002     0.0000000000000000     
  -6.8300000000000000E-002     0.0000000000000000     
  -6.7199999999999996E-002     0.0000000000000000     
  -6.6099999999999992E-002     0.0000000000000000     
  -6.5000000000000002E-002     0.0000000000000000     
  -6.3899999999999985E-002     0.0000000000000000     
  -6.2799999999999995E-002     0.0000000000000000     
  -6.1699999999999991E-002     0.0000000000000000     
  -6.0599999999999994E-002     0.0000000000000000     
  -5.9499999999999990E-002     0.0000000000000000     
  -5.8399999999999994E-002     0.0000000000000000     
  -5.7299999999999990E-002     0.0000000000000000     
  -5.6199999999999986E-002     0.0000000000000000     
  -5.5099999999999996E-002     0.0000000000000000     
  -5.3999999999999992E-002     0.0000000000000000     
  -5.2899999999999989E-002     0.0000000000000000     
  -5.1799999999999985E-002     0.0000000000000000     
  -5.0699999999999995E-002     0.0000000000000000     
  -4.9599999999999991E-002     0.0000000000000000     
  -4.8499999999999988E-002     0.0000000000000000     
  -4.7399999999999998E-002     0.0000000000000000     
  -4.6299999999999994E-002     0.0000000000000000     
  -4.5199999999999990E-002     0.0000000000000000     
  -4.4099999999999986E-002     0.0000000000000000     
  -4.2999999999999997E-002     0.0000000000000000     
  -4.1899999999999993E-002     0.0000000000000000     
  -4.0799999999999989E-002     0.0000000000000000     
  -3.9699999999999985E-002     0.0000000000000000     
  -3.8599999999999995E-002     0.0000000000000000     
  -3.7499999999999992E-002     0.0000000000000000     
  -3.6399999999999988E-002     0.0000000000000000     
  -3.5299999999999984E-002     0.0000000000000000     
  -3.4199999999999994E-002     0.0000000000000000     
  -3.3099999999999991E-002     0.0000000000000000     
  -3.1999999999999987E-002     0.0000000000000000     
  -3.0899999999999997E-002     0.0000000000000000     
  -2.9799999999999993E-002     0.0000000000000000     
  -2.8699999999999989E-002     0.0000000000000000     
  -2.7599999999999986E-002     0.0000000000000000     
  -2.6499999999999996E-002     0.0000000000000000     
  -2.5399999999999992E-002     0.0000000000000000     
  -2.4299999999999988E-002     0.0000000000000000     
  -2.3199999999999985E-002     0.0000000000000000     
  -2.2099999999999995E-002     0.0000000000000000     
  -2.0999999999999991E-002     0.0000000000000000     
  -1.9899999999999987E-002     0.0000000000000000     
  -1.8799999999999983E-002     0.0000000000000000     
  -1.7699999999999994E-002     0.0000000000000000     
  -1.6599999999999990E-002     0.0000000000000000     
  -1.5499999999999986E-002     0.0000000000000000     
  -1.4399999999999996E-002     0.0000000000000000     
  -1.3299999999999992E-002     0.0000000000000000     
  -1.2199999999999989E-002     0.0000000000000000     
  -1.1099999999999985E-002     0.0000000000000000     
  -9.9999999999999950E-003     0.0000000000000000     
  -8.8999999999999913E-003     0.0000000000000000     
  -7.7999999999999875E-003     0.0000000000000000     
  -6.6999999999999837E-003     0.0000000000000000     
  -5.5999999999999939E-003     0.0000000000000000     
  -4.4999999999999901E-003     0.0000000000000000     
  -3.3999999999999864E-003     0.0000000000000000     
  -2.2999999999999826E-003     0.0000000000000000     
  -1.1999999999999927E-003     0.0000000000000000     
  -9.9999999999988987E-005     0.0000000000000000     
   1.0000000000000148E-003     0.0000000000000000     
   2.1000000000000185E-003     0.0000000000000000     
   3.2000000000000084E-003     0.0000000000000000     
   4.3000000000000121E-003     0.0000000000000000     
   5.4000000000000159E-003     0.0000000000000000     
   6.5000000000000058E-003     0.0000000000000000     
   7.6000000000000234E-003     0.0000000000000000     
   8.7000000000000133E-003     0.0000000000000000     
   9.8000000000000032E-003     0.0000000000000000     
   1.0900000000000021E-002     0.0000000000000000     
   1.2000000000000011E-002     0.0000000000000000     
   1.3100000000000001E-002     0.0000000000000000     
   1.4200000000000018E-002     0.0000000000000000     
   1.5300000000000008E-002     0.0000000000000000     
   1.6400000000000026E-002     0.0000000000000000     
   1.7500000000000016E-002     0.0000000000000000     
   1.8600000000000005E-002     0.0000000000000000     
   1.9700000000000023E-002     0.0000000000000000     
   2.0800000000000013E-002     0.0000000000000000     
   2.1900000000000003E-002     0.0000000000000000     
   2.3000000000000020E-002     0.0000000000000000     
   2.4100000000000010E-002     0.0000000000000000     
   2.5200000000000000E-002     0.0000000000000000     
   2.6300000000000018E-002     0.0000000000000000     
   2.7400000000000008E-002     0.0000000000000000     
   2.8500000000000025E-002     0.0000000000000000     
   2.9600000000000015E-002     0.0000000000000000     
   3.0700000000000005E-002     0.0000000000000000     
   3.1800000000000023E-002     0.0000000000000000     
   3.2900000000000013E-002     0.0000000000000000     
   3.4000000000000002E-002     0.0000000000000000     
   3.5100000000000020E-002     0.0000000000000000     
   3.6200000000000010E-002     0.0000000000000000     
   3.7300000000000028E-002     0.0000000000000000     
   3.8400000000000017E-002     0.0000000000000000     
   3.9500000000000007E-002     0.0000000000000000     
   4.0600000000000025E-002     0.0000000000000000     
   4.1700000000000015E-002     0.0000000000000000     
   4.2800000000000005E-002     0.0000000000000000     
   4.3900000000000022E-002     0.0000000000000000     
   4.5000000000000012E-002     0.0000000000000000     
   4.6100000000000002E-002     0.0000000000000000     
   4.7200000000000020E-002     0.0000000000000000     
   4.8300000000000010E-002     0.0000000000000000     
   4.9400000000000027E-002     0.0000000000000000     
   5.0500000000000017E-002     0.0000000000000000     
   5.1600000000000007E-002     0.0000000000000000     
   5.2700000000000025E-002     0.0000000000000000     
   5.3800000000000014E-002     0.0000000000000000     
   5.4900000000000004E-002     0.0000000000000000     
   5.6000000000000022E-002     0.0000000000000000     
   5.7100000000000012E-002     0.0000000000000000     
   5.8200000000000002E-002     0.0000000000000000     
   5.9300000000000019E-002     0.0000000000000000     
   6.0400000000000009E-002     0.0000000000000000     
   6.1500000000000027E-002     0.0000000000000000     
   6.2600000000000017E-002     0.0000000000000000     
   6.3700000000000007E-002     0.0000000000000000     
   6.4800000000000024E-002     0.0000000000000000     
   6.5900000000000014E-002     0.0000000000000000     
   6.7000000000000004E-002     0.0000000000000000     
   6.8100000000000022E-002     0.0000000000000000     
   6.9200000000000012E-002     0.0000000000000000     
   7.0300000000000029E-002     0.0000000000000000     
   7.1400000000000019E-002     0.0000000000000000     
   7.2500000000000009E-002     0.0000000000000000     
   7.3600000000000027E-002     0.0000000000000000     
   7.4700000000000016E-002     0.0000000000000000     
   7.5800000000000006E-002     0.0000000000000000     
   7.6900000000000024E-002     0.0000000000000000     
   7.8000000000000014E-002     0.0000000000000000     
   7.9100000000000004E-002     0.0000000000000000     
   8.0200000000000021E-002     0.0000000000000000     
   8.1300000000000011E-002     0.0000000000000000     
   8.2400000000000029E-002     0.0000000000000000     
   8.3500000000000019E-002     0.0000000000000000     
   8.4600000000000009E-002     0.0000000000000000     
   8.5700000000000026E-002     0.0000000000000000     
   8.6800000000000016E-002     0.0000000000000000     
   8.7900000000000006E-002     0.0000000000000000     
   8.9000000000000024E-002     0.0000000000000000     
   9.0100000000000013E-002     0.0000000000000000     
   9.1200000000000003E-002     0.0000000000000000     
   9.2300000000000021E-002     0.0000000000000000     
   9.3400000000000011E-002     0.0000000000000000     
   9.4500000000000028E-002     0.0000000000000000     
   9.5600000000000018E-002     0.0000000000000000     
   9.6700000000000008E-002     0.0000000000000000     
   9.7800000000000026E-002     0.0000000000000000     
   9.8900000000000016E-002     0.0000000000000000     
  0.10000000000000001          0.0000000000000000     
  0.10110000000000002          0.0000000000000000     
  0.10220000000000001          0.0000000000000000     
  0.10330000000000003          0.0000000000000000     
  0.10440000000000002          0.0000000000000000     
  0.10550000000000001          0.0000000000000000     
  0.10660000000000003          0.0000000000000000     
  0.10770000000000002          0.0000000000000000     
  0.10880000000000001          0.0000000000000000     
  0.10990000000000003          0.0000000000000000     
  0.11100000000000002          0.0000000000000000     
  0.11210000000000001          0.0000000000000000     
  0.11320000000000002          0.0000000000000000     
  0.11430000000000001          0.0000000000000000     
  0.11540000000000003          0.0000000000000000     
  0.11650000000000002          0.0000000000000000     
  0.11760000000000001          0.0000000000000000     
  0.11870000000000003          0.0000000000000000     
  0.11980000000000002          0.0000000000000000     
  0.12090000000000001          0.0000000000000000     
  0.12200000000000003          0.0000000000000000     
  0.12310000000000001          0.0000000000000000     
  0.12420000000000003          0.0000000000000000     
  0.12530000000000002          0.0000000000000000     
  0.12640000000000001          0.0000000000000000     
  0.12750000000000003          0.0000000000000000     
  0.12860000000000002          0.0000000000000000     
  0.12970000000000001          0.0000000000000000     
  0.13080000000000003          0.0000000000000000     
  0.13190000000000002          0.0000000000000000     
  0.13300000000000001          0.0000000000000000     
  0.13410000000000000          0.0000000000000000     
  0.13520000000000004          0.0000000000000000     
  0.13630000000000003          0.0000000000000000     
  0.13740000000000002          0.0000000000000000     
  0.13850000000000001          0.0000000000000000     
  0.13960000000000000          0.0000000000000000     
  0.14070000000000005          0.0000000000000000     
  0.14180000000000004          0.0000000000000000     
  0.14290000000000003          0.0000000000000000     
  0.14400000000000002          0.0000000000000000     
  0.14510000000000001          0.0000000000000000     
  0.14620000000000000          0.0000000000000000     
  0.14730000000000004          0.0000000000000000     
  0.14840000000000003          0.0000000000000000     
  0.14950000000000002          0.0000000000000000     
  0.15060000000000001          0.0000000000000000     
  0.15170000000000000          0.0000000000000000     
  0.15280000000000005          0.0000000000000000     
  0.15390000000000004          0.0000000000000000     
  0.15500000000000003          0.0000000000000000     
  0.15610000000000002          0.0000000000000000     
  0.15720000000000001          0.0000000000000000     
  0.15830000000000000          0.0000000000000000     
  0.15940000000000004          0.0000000000000000     
  0.16050000000000003          0.0000000000000000     
  0.16160000000000002          0.0000000000000000     
  0.16270000000000001          0.0000000000000000     
  0.16380000000000000          0.0000000000000000     
  0.16490000000000005          0.0000000000000000     
  0.16600000000000004          0.0000000000000000     
  0.16710000000000003          0.0000000000000000     
  0.16820000000000002          0.0000000000000000     
  0.16930000000000001          0.0000000000000000     
  0.17040000000000000          0.0000000000000000     
  0.17150000000000004          0.0000000000000000     
  0.17260000000000003          0.0000000000000000     
  0.17370000000000002          0.0000000000000000     
  0.17480000000000001          0.0000000000000000     
  0.17590000000000000          0.0000000000000000     
  0.17700000000000005          0.0000000000000000     
  0.17810000000000004          0.0000000000000000     
  0.17920000000000003          0.0000000000000000     
  0.18030000000000002          0.0000000000000000     
  0.18140000000000001          0.0000000000000000     
  0.18250000000000000          0.0000000000000000     
  0.18360000000000004          0.0000000000000000     
  0.18470000000000003          0.0000000000000000     
  0.18580000000000002          0.0000000000000000     
  0.18690000000000001          0.0000000000000000     
  0.18800000000000000          0.0000000000000000     
  0.18910000000000005          0.0000000000000000     
  0.19020000000000004          0.0000000000000000     
  0.19130000000000003          0.0000000000000000     
  0.19240000000000002          0.0000000000000000     
  0.19350000000000001          0.0000000000000000     
  0.19460000000000005          0.0000000000000000     
  0.19570000000000004          0.0000000000000000     
  0.19680000000000003          0.0000000000000000     
  0.19790000000000002          0.0000000000000000     
  0.19900000000000001          0.0000000000000000     
  0.20010000000000000          0.0000000000000000     
  0.20120000000000005         -1.2618700959717946E-046
  0.20230000000000004         -5.0345210837081209E-046
  0.20340000000000003          2.4693618992381458E-038
  0.20450000000000002          6.2210005551126655E-038
  0.20560000000000000          9.6162806577887610E-038
  0.20670000000000005          4.1285986874321848E-038
  0.20780000000000004         -8.3828816782492531E-038
  0.20890000000000003         -2.0815526237654816E-037
  0.21000000000000002         -1.9157651324046890E-037
  0.21110000000000001          3.7264514192133158E-038
  0.21220000000000000          4.1841659624612299E-037
  0.21330000000000005          6.7875269613967621E-037
  0.21440000000000003          5.1434523525245899E-037
  0.21550000000000002         -1.8223571820160658E-037
  0.21660000000000001         -1.1836131702616896E-036
  0.21770000000000000         -1.8758232250392952E-036
  0.21880000000000005         -1.6156521989778947E-036
  0.21990000000000004         -1.3783070238574607E-037
  0.22100000000000003          2.1155895428949113E-036
  0.22210000000000002          4.0389035678893831E-036
  0.22320000000000001          4.2779725491478185E-036
  0.22430000000000000          1.9844770290506129E-036
  0.22540000000000004         -2.4882611817205236E-036
  0.22650000000000003         -7.3472004989918580E-036
  0.22760000000000002         -9.8520273139678251E-036
  0.22870000000000001         -7.5470891623620557E-036
  0.22980000000000000          2.0899092993830686E-037
  0.23090000000000005          1.1118775881315309E-035
  0.23200000000000004          2.0081085181532207E-035
  0.23310000000000003          2.1002387604833658E-035
  0.23420000000000002          9.9219401545714995E-036
  0.23530000000000001         -1.1770041465657118E-035
  0.23640000000000000         -3.5832760838752463E-035
  0.23750000000000004         -4.9129355554532600E-035
  0.23860000000000003         -3.9190103514970790E-035
  0.23970000000000002         -1.9129339771494468E-036
  0.24080000000000001          5.2425485786917148E-035
  0.24190000000000000          9.9090889542692361E-035
  0.24300000000000005          1.0730252171219299E-034
  0.24410000000000004          5.5886130180566816E-035
  0.24520000000000003         -5.0117785202090074E-035
  0.24630000000000002         -1.7134670049708367E-034
  0.24740000000000001         -2.4293734893864428E-034
  0.24850000000000005         -2.0211759778207356E-034
  0.24960000000000004         -2.6076416194778303E-035
  0.25070000000000003          2.3808397771524375E-034
  0.25180000000000002          4.7222105390405717E-034
  0.25290000000000001          5.2736055744653648E-034
  0.25400000000000000          2.9835339366272126E-034
  0.25510000000000005         -1.9690831318263512E-034
  0.25620000000000004         -7.7834594904258157E-034
  0.25730000000000003         -1.1435449530199692E-033
  0.25840000000000002         -9.9474969206307750E-034
  0.25950000000000001         -2.1344379359691277E-034
  0.26060000000000005          1.0003262007304304E-033
  0.26170000000000004          2.1185701130879982E-033
  0.26280000000000003          2.4619002450873341E-033
  0.26390000000000002          1.5318337084829673E-033
  0.26500000000000001         -6.3303421263871137E-034
  0.26610000000000000         -3.2730320885163970E-033
  0.26720000000000005         -5.0668669535399979E-033
  0.26830000000000004         -4.6729444977221404E-033
  0.26940000000000003         -1.4861642147683784E-033
  0.27050000000000002          3.7417420639488785E-033
  0.27160000000000001          8.8228563976472433E-033
  0.27270000000000005          1.0839703498977749E-032
  0.27380000000000004          7.5251048525834575E-033
  0.27490000000000003         -1.2212202509670024E-033
  0.27600000000000002         -1.2487608356245952E-032
  0.27710000000000001         -2.0896039895718083E-032
  0.27820000000000000         -2.0729113901763428E-032
  0.27930000000000005         -9.0055166199037410E-033
  0.28040000000000004          1.1885791910153842E-032
  0.28150000000000003          3.3622344129367406E-032
  0.28260000000000002          4.4493330586384729E-032
  0.28370000000000001          3.4712233366654483E-032
  0.28480000000000005          2.4950376987956896E-033
  0.28590000000000004         -4.2207960667445672E-032
  0.28700000000000003         -7.9191278476799275E-032
  0.28810000000000002         -8.5625629121007238E-032
  0.28920000000000001         -4.7694898554681336E-032
  0.29030000000000000          2.8833030073211624E-032
  0.29140000000000005          1.1526035808017116E-031
  0.29250000000000004          1.6804514416847415E-031
  0.29360000000000003          1.4762323451736758E-031
  0.29470000000000002          4.1168930639516365E-032
  0.29580000000000001         -1.2183810649757539E-031
  0.29690000000000005         -2.7199930379829572E-031
  0.29800000000000004         -3.2473357937543725E-031
  0.29910000000000003         -2.2100643168564541E-031
  0.30020000000000002          3.2957656256138808E-032
  0.30130000000000001          3.4870907763735576E-031
  0.30240000000000000          5.7749149835173051E-031
  0.30350000000000005          5.7116630610082815E-031
  0.30460000000000004          2.6133047358867877E-031
  0.30570000000000003         -2.8021123398809119E-031
  0.30680000000000002         -8.3748573594747030E-031
  0.30790000000000001         -1.1218019902640207E-030
  0.30900000000000005         -9.0285338339283192E-031
  0.31010000000000004         -1.4735358161595785E-031
  0.31120000000000003          9.0604310146725038E-031
  0.31230000000000002          1.7935241218835637E-030
  0.31340000000000001          2.0047551940525946E-030
  0.31450000000000006          1.2367569754933907E-030
  0.31560000000000005         -3.8921105456294678E-031
  0.31670000000000004         -2.2718968972876097E-030
  0.31780000000000003         -3.5093768480232314E-030
  0.31890000000000002         -3.2845106219831815E-030
  0.32000000000000001         -1.3118209504968925E-030
  0.32110000000000005          1.8702601866007066E-030
  0.32220000000000004          4.9553247764595499E-030
  0.32330000000000003          6.3371497984595728E-030
  0.32440000000000002          4.8569120497223960E-030
  0.32550000000000001          5.1652842340315090E-031
  0.32660000000000006         -5.2189661301882346E-030
  0.32770000000000005         -9.7923786579333376E-030
  0.32880000000000004         -1.0581049251371638E-029
  0.32990000000000003         -6.2193453739317875E-030
  0.33100000000000002          2.3862959511402684E-030
  0.33210000000000001          1.1946938245774017E-029
  0.33320000000000005          1.7867807355122363E-029
  0.33430000000000004          1.6256938556310537E-029
  0.33540000000000003          6.0716243357326381E-030
  0.33650000000000002         -9.6560069277275037E-030
  0.33760000000000001         -2.4360706890527471E-029
  0.33870000000000006         -3.0404685840767882E-029
  0.33980000000000005         -2.2670404128428343E-029
  0.34090000000000004         -1.7379126853358221E-030
  0.34200000000000003          2.5055818542124110E-029
  0.34310000000000002          4.5706855030311973E-029
  0.34420000000000001          4.8465737748944531E-029
  0.34530000000000005          2.7772896764252298E-029
  0.34640000000000004         -1.1536372647463819E-029
  0.34750000000000003         -5.4258266622126907E-029
  0.34860000000000002         -8.0023682329035610E-029
  0.34970000000000001         -7.2245670106281633E-029
  0.35080000000000006         -2.7188654045209681E-029
  0.35190000000000005          4.1325102295567623E-029
  0.35300000000000004          1.0486866563345417E-028
  0.35410000000000003          1.3123021696945258E-028
  0.35520000000000002          9.9446457339597852E-029
  0.35630000000000001          1.2523350932312747E-029
  0.35740000000000005         -9.8928134426893096E-029
  0.35850000000000004         -1.8585660688592809E-028
  0.35960000000000003         -2.0091308216814436E-028
  0.36070000000000002         -1.2195806874038298E-028
  0.36180000000000001          3.1915017132895067E-029
  0.36290000000000006          2.0124224659745784E-028
  0.36400000000000005          3.0696968515679992E-028
  0.36510000000000004          2.8503014221071423E-028
  0.36620000000000003          1.2059613574329672E-028
  0.36730000000000002         -1.3479359514505105E-028
  0.36840000000000006         -3.7502588494641275E-028
  0.36950000000000005         -4.8014497065671213E-028
  0.37060000000000004         -3.7193703217739256E-028
  0.37170000000000003         -6.0271051602076301E-029
  0.37280000000000002          3.4413948139532905E-028
  0.37390000000000001          6.6333870210111905E-028
  0.37500000000000006          7.2489541989388823E-028
  0.37610000000000005          4.4629323888335018E-028
  0.37720000000000004         -1.0750752515127672E-028
  0.37830000000000003         -7.2620895077733845E-028
  0.37940000000000002         -1.1264240273551263E-027
  0.38050000000000006         -1.0727595323074969E-027
  0.38160000000000005         -4.9909848310694056E-028
  0.38270000000000004          4.2767676339438085E-028
  0.38380000000000003          1.3424656975950531E-027
  0.38490000000000002          1.8167878627780482E-027
  0.38600000000000001          1.5480301221597054E-027
  0.38710000000000000          5.2353102588051167E-028
  0.38819999999999999         -9.2220688812795608E-028
  0.38930000000000009         -2.2027066615837461E-027
  0.39040000000000008         -2.7086499987386680E-027
  0.39150000000000007         -2.0862797779698158E-027
  0.39260000000000006         -4.4289364579684268E-028
  0.39370000000000005          1.6289330318982193E-027
  0.39480000000000004          3.2495460620870607E-027
  0.39590000000000003          3.6162254097570895E-027
  0.39700000000000002          2.3891470923256354E-027
  0.39810000000000001         -7.8405648713306000E-029
  0.39920000000000000         -2.7990157652424882E-027
  0.40029999999999999         -4.5183544677266127E-027
  0.40140000000000009         -4.2676943129742977E-027
  0.40250000000000008         -1.8713473474220620E-027
  0.40360000000000007          1.8379973405580215E-027
  0.40470000000000006          5.2464152907056893E-027
  0.40580000000000005          6.5957083184310335E-027
  0.40690000000000004          4.7997771286716992E-027
  0.40800000000000003          8.7562978264978103E-029
  0.40910000000000002         -5.8582901821797864E-027
  0.41020000000000001         -1.0418511298682520E-026
  0.41130000000000000         -1.1082929392216431E-026
  0.41239999999999999         -6.6331314676822424E-027
  0.41350000000000009          2.0562508711079265E-027
  0.41460000000000008          1.2025088174360465E-026
  0.41570000000000007          1.9171849771024561E-026
  0.41680000000000006          1.9858995398954106E-026
  0.41790000000000005          1.2566452493743329E-026
  0.41900000000000004         -1.1302415518413242E-027
  0.42010000000000003         -1.6780964877231774E-026
  0.42120000000000002         -2.8543495709501753E-026
  0.42230000000000001         -3.1439394914576516E-026
  0.42340000000000000         -2.3493214563653245E-026
  0.42449999999999999         -6.8119104072381201E-027
  0.42560000000000009          1.2974535215184002E-026
  0.42670000000000008          2.8822533568211447E-026
  0.42780000000000007          3.5140816535279687E-026
  0.42890000000000006          3.0195136550660543E-026
  0.43000000000000005          1.6919712504688765E-026
  0.43110000000000004          1.6223411755909211E-027
  0.43220000000000003         -8.9971106048239723E-027
  0.43330000000000002         -1.1243466238726728E-026
  0.43440000000000001         -6.6057888348377937E-027
  0.43550000000000000         -1.4545335501627756E-027
  0.43659999999999999         -4.0183951784320158E-027
  0.43770000000000009         -1.9704381263670223E-026
  0.43880000000000008         -4.6830164409157525E-026
  0.43990000000000007         -7.5029676355862428E-026
  0.44100000000000006         -8.7750335175461716E-026
  0.44210000000000005         -6.8604168981785331E-026
  0.44320000000000004         -9.4898491548353807E-027
  0.44430000000000003          8.2826981802223429E-026
  0.44540000000000002          1.8495396190375035E-025
  0.44650000000000001          2.6173495194499445E-025
  0.44760000000000000          2.7704617469381036E-025
  0.44869999999999999          2.0726085172748383E-025
  0.44980000000000009          5.2540070904023727E-026
  0.45090000000000008         -1.5868568250615818E-025
  0.45200000000000007         -3.7457894111088600E-025
  0.45310000000000006         -5.3332193906406806E-025
  0.45420000000000005         -5.8105906836575423E-025
  0.45530000000000004         -4.8842569648452152E-025
  0.45640000000000003         -2.6009547878495861E-025
  0.45750000000000002          6.5671732573102752E-026
  0.45860000000000001          4.2675452194646353E-025
  0.45970000000000000          7.5209096755906094E-025
  0.46079999999999999          9.7623115301812960E-025
  0.46190000000000009          1.0490382830336710E-024
  0.46300000000000008          9.3921957580162762E-025
  0.46410000000000007          6.3407870893134857E-025
  0.46520000000000006          1.4016243915480811E-025
  0.46630000000000005         -5.1114035867546513E-025
  0.46740000000000004         -1.2526922952633716E-024
  0.46850000000000003         -1.9703897665367507E-024
  0.46960000000000002         -2.5010411155065332E-024
  0.47070000000000001         -2.6494518808250821E-024
  0.47180000000000000         -2.2302387638041104E-024
  0.47289999999999999         -1.1305577768910031E-024
  0.47400000000000009          6.2124927778433671E-025
  0.47510000000000008          2.8047170740841770E-024
  0.47620000000000007          4.9993772251819228E-024
  0.47730000000000006          6.6376839481927754E-024
  0.47840000000000005          7.1203689974363447E-024