 -0.12000000000000000          0.0000000000000000     
 -0.11889999999999999          0.0000000000000000     
 -0.11780000000000000          0.0000000000000000     
 -0.11670000000000000          0.0000000000000000     
 -0.11559999999999999          0.0000000000000000     
 -0.11449999999999999          0.0000000000000000     
 -0.11340000000000000          0.0000000000000000     
 -0.11230000000000000          0.0000000000000000     
 -0.11119999999999999          0.0000000000000000     
 -0.11009999999999999          0.0000000000000000     
 -0.10900000000000000          0.0000000000000000     
 -0.10790000000000000          0.0000000000000000     
 -0.10679999999999999          0.0000000000000000     
 -0.10569999999999999          0.0000000000000000     
 -0.10460000000000000          0.0000000000000000     
 -0.10349999999999999          0.0000000000000000     
 -0.10239999999999999          0.0000000000000000     
 -0.10130000000000000          0.0000000000000000     
 -0.10020000000000000          0.0000000000000000     
  -9.9099999999999994E-002     0.0000000000000000     
  -9.7999999999999990E-002     0.0000000000000000     
  -9.6899999999999986E-002     0.0000000000000000     
  -9.5799999999999996E-002     0.0000000000000000     
  -9.4699999999999993E-002     0.0000000000000000     
  -9.3599999999999989E-002     0.0000000000000000     
  -9.2499999999999999E-002     0.0000000000000000     
  -9.1399999999999995E-002     0.0000000000000000     
  -9.0299999999999991E-002     0.0000000000000000     
  -8.9200000000000002E-002     0.0000000000000000     
  -8.8099999999999984E-002     0.0000000000000000     
  -8.6999999999999994E-002     0.0000000000000000     
  -8.5899999999999990E-002     0.0000000000000000     
  -8.4799999999999986E-002     0.0000000000000000     
  -8.3699999999999997E-002     0.0000000000000000     
  -8.2599999999999993E-002     0.0000000000000000     
  -8.1499999999999989E-002     0.0000000000000000     
  -8.0399999999999999E-002     0.0000000000000000     
  -7.9299999999999995E-002     0.0000000000000000     
  -7.8199999999999992E-002     0.0000000000000000     
  -7.7100000000000002E-002     0.0000000000000000     
  -7.5999999999999984E-002     0.0000000000000000     
  -7.4899999999999994E-002     0.0000000000000000     
  -7.3799999999999991E-002     0.0000000000000000     
  -7.2699999999999987E-002     0.0000000000000000     
  -7.1599999999999997E-002     0.0000000000000000     
  -7.0499999999999993E-002     0.0000000000000000     
  -6.9399999999999989E-002     0.0000000000000000     
  -6.8300000000000000E-002     0.0000000000000000     
  -6.7199999999999996E-002     0.0000000000000000     
  -6.6099999999999992E-002     0.0000000000000000     
  -6.5000000000000002E-002     0.0000000000000000     
  -6.3899999999999985E-002     0.0000000000000000     
  -6.2799999999999995E-002     0.0000000000000000     
  -6.1699999999999991E-002     0.0000000000000000     
  -6.0599999999999994E-002     0.0000000000000000     
  -5.9499999999999990E-002     0.0000000000000000     
  -5.8399999999999994E-002     0.0000000000000000     
  -5.7299999999999990E-002     0.0000000000000000     
  -5.6199999999999986E-002     0.0000000000000000     
  -5.5099999999999996E-002     0.0000000000000000     
  -5.3999999999999992E-002     0.0000000000000000     
  -5.2899999999999989E-002     0.0000000000000000     
  -5.1799999999999985E-002     0.0000000000000000     
  -5.0699999999999995E-002     0.0000000000000000     
  -4.9599999999999991E-002     0.0000000000000000     
  -4.8499999999999988E-002     0.0000000000000000     
  -4.7399999999999998E-002     0.0000000000000000     
  -4.6299999999999994E-002     0.0000000000000000     
  -4.5199999999999990E-002     0.0000000000000000     
  -4.4099999999999986E-002     0.0000000000000000     
  -4.2999999999999997E-002     0.0000000000000000     
  -4.1899999999999993E-002     0.0000000000000000     
  -4.0799999999999989E-002     0.0000000000000000     
  -3.9699999999999985E-002     0.0000000000000000     
  -3.8599999999999995E-002     0.0000000000000000     
  -3.7499999999999992E-002     0.0000000000000000     
  -3.6399999999999988E-002     0.0000000000000000     
  -3.5299999999999984E-002     0.0000000000000000     
  -3.4199999999999994E-002     0.0000000000000000     
  -3.3099999999999991E-002     0.0000000000000000     
  -3.1999999999999987E-002     0.0000000000000000     
  -3.0899999999999997E-002     0.0000000000000000     
  -2.9799999999999993E-002     0.0000000000000000     
  -2.8699999999999989E-002     0.0000000000000000     
  -2.7599999999999986E-002     0.0000000000000000     
  -2.6499999999999996E-002     0.0000000000000000     
  -2.5399999999999992E-002     0.0000000000000000     
  -2.4299999999999988E-002     0.0000000000000000     
  -2.3199999999999985E-002     0.0000000000000000     
  -2.2099999999999995E-002     0.0000000000000000     
  -2.0999999999999991E-002     0.0000000000000000     
  -1.9899999999999987E-002     0.0000000000000000     
  -1.8799999999999983E-002     0.0000000000000000     
  -1.7699999999999994E-002     0.0000000000000000     
  -1.6599999999999990E-002     0.0000000000000000     
  -1.5499999999999986E-002     0.0000000000000000     
  -1.4399999999999996E-002     0.0000000000000000     
  -1.3299999999999992E-002     0.0000000000000000     
  -1.2199999999999989E-002     0.0000000000000000     
  -1.1099999999999985E-002     0.0000000000000000     
  -9.9999999999999950E-003     0.0000000000000000     
  -8.8999999999999913E-003     0.0000000000000000     
  -7.7999999999999875E-003     0.0000000000000000     
  -6.6999999999999837E-003     0.0000000000000000     
  -5.5999999999999939E-003     0.0000000000000000     
  -4.4999999999999901E-003     0.0000000000000000     
  -3.3999999999999864E-003     0.0000000000000000     
  -2.2999999999999826E-003     0.0000000000000000     
  -1.1999999999999927E-003     0.0000000000000000     
  -9.9999999999988987E-005     0.0000000000000000     
   1.0000000000000148E-003     0.0000000000000000     
   2.1000000000000185E-003     0.0000000000000000     
   3.2000000000000084E-003     0.0000000000000000     
   4.3000000000000121E-003     0.0000000000000000     
   5.4000000000000159E-003     0.0000000000000000     
   6.5000000000000058E-003     0.0000000000000000     
   7.6000000000000234E-003     0.0000000000000000     
   8.7000000000000133E-003     0.0000000000000000     
   9.8000000000000032E-003     0.0000000000000000     
   1.0900000000000021E-002     0.0000000000000000     
   1.2000000000000011E-002     0.0000000000000000     
   1.3100000000000001E-002     0.0000000000000000     
   1.4200000000000018E-002     0.0000000000000000     
   1.5300000000000008E-002     0.0000000000000000     
   1.6400000000000026E-002     0.0000000000000000     
   1.7500000000000016E-002     0.0000000000000000     
   1.8600000000000005E-002     0.0000000000000000     
   1.9700000000000023E-002     0.0000000000000000     
   2.0800000000000013E-002     0.0000000000000000     
   2.1900000000000003E-002     0.0000000000000000     
   2.3000000000000020E-002     0.0000000000000000     
   2.4100000000000010E-002     0.0000000000000000     
   2.5200000000000000E-002     0.0000000000000000     
   2.6300000000000018E-002     0.0000000000000000     
   2.7400000000000008E-002     0.0000000000000000     
   2.8500000000000025E-002     0.0000000000000000     
   2.9600000000000015E-002     0.0000000000000000     
   3.0700000000000005E-002     0.0000000000000000     
   3.1800000000000023E-002     0.0000000000000000     
   3.2900000000000013E-002     0.0000000000000000     
   3.4000000000000002E-002     0.0000000000000000     
   3.5100000000000020E-002     0.0000000000000000     
   3.6200000000000010E-002     0.0000000000000000     
   3.7300000000000028E-002     0.0000000000000000     
   3.8400000000000017E-002     0.0000000000000000     
   3.9500000000000007E-002     0.0000000000000000     
   4.0600000000000025E-002     0.0000000000000000     
   4.1700000000000015E-002     0.0000000000000000     
   4.2800000000000005E-002     0.0000000000000000     
   4.3900000000000022E-002     0.0000000000000000     
   4.5000000000000012E-002     0.0000000000000000     
   4.6100000000000002E-002     0.0000000000000000     
   4.7200000000000020E-002     0.0000000000000000     
   4.8300000000000010E-002     0.0000000000000000     
   4.9400000000000027E-002     0.0000000000000000     
   5.0500000000000017E-002     0.0000000000000000     
   5.1600000000000007E-002     0.0000000000000000     
   5.2700000000000025E-002     0.0000000000000000     
   5.3800000000000014E-002     0.0000000000000000     
   5.4900000000000004E-002     0.0000000000000000     
   5.6000000000000022E-002     0.0000000000000000     
   5.7100000000000012E-002     0.0000000000000000     
   5.8200000000000002E-002     0.0000000000000000     
   5.9300000000000019E-002     0.0000000000000000     
   6.0400000000000009E-002     0.0000000000000000     
   6.1500000000000027E-002     0.0000000000000000     
   6.2600000000000017E-002     0.0000000000000000     
   6.3700000000000007E-002     0.0000000000000000     
   6.4800000000000024E-002     0.0000000000000000     
   6.5900000000000014E-002     0.0000000000000000     
   6.7000000000000004E-002     0.0000000000000000     
   6.8100000000000022E-002     0.0000000000000000     
   6.9200000000000012E-002     0.0000000000000000     
   7.0300000000000029E-002     0.0000000000000000     
   7.1400000000000019E-002     0.0000000000000000     
   7.2500000000000009E-002     0.0000000000000000     
   7.3600000000000027E-002     0.0000000000000000     
   7.4700000000000016E-002     0.0000000000000000     
   7.5800000000000006E-002     0.0000000000000000     
   7.6900000000000024E-002     0.0000000000000000     
   7.8000000000000014E-002     0.0000000000000000     
   7.9100000000000004E-002     0.0000000000000000     
   8.0200000000000021E-002     0.0000000000000000     
   8.1300000000000011E-002     0.0000000000000000     
   8.2400000000000029E-002     0.0000000000000000     
   8.3500000000000019E-002     0.0000000000000000     
   8.4600000000000009E-002     0.0000000000000000     
   8.5700000000000026E-002     0.0000000000000000     
   8.6800000000000016E-002     0.0000000000000000     
   8.7900000000000006E-002     0.0000000000000000     
   8.9000000000000024E-002     0.0000000000000000     
   9.0100000000000013E-002     0.0000000000000000     
   9.1200000000000003E-002     0.0000000000000000     
   9.2300000000000021E-002     0.0000000000000000     
   9.3400000000000011E-002     0.0000000000000000     
   9.4500000000000028E-002     0.0000000000000000     
   9.5600000000000018E-002     0.0000000000000000     
   9.6700000000000008E-002     0.0000000000000000     
   9.7800000000000026E-002     0.0000000000000000     
   9.8900000000000016E-002     0.0000000000000000     
  0.10000000000000001          0.0000000000000000     
  0.10110000000000002          0.0000000000000000     
  0.10220000000000001          0.0000000000000000     
  0.10330000000000003          0.0000000000000000     
  0.10440000000000002          0.0000000000000000     
  0.10550000000000001          0.0000000000000000     
  0.10660000000000003          0.0000000000000000     
  0.10770000000000002          0.0000000000000000     
  0.10880000000000001          0.0000000000000000     
  0.10990000000000003          0.0000000000000000     
  0.11100000000000002          0.0000000000000000     
  0.11210000000000001          0.0000000000000000     
  0.11320000000000002          0.0000000000000000     
  0.11430000000000001          0.0000000000000000     
  0.11540000000000003          0.0000000000000000     
  0.11650000000000002          0.0000000000000000     
  0.11760000000000001          0.0000000000000000     
  0.11870000000000003          0.0000000000000000     
  0.11980000000000002          0.0000000000000000     
  0.12090000000000001          0.0000000000000000     
  0.12200000000000003          0.0000000000000000     
  0.12310000000000001          0.0000000000000000     
  0.12420000000000003          0.0000000000000000     
  0.12530000000000002          0.0000000000000000     
  0.12640000000000001          0.0000000000000000     
  0.12750000000000003          0.0000000000000000     
  0.12860000000000002          0.0000000000000000     
  0.12970000000000001          0.0000000000000000     
  0.13080000000000003          0.0000000000000000     
  0.13190000000000002          0.0000000000000000     
  0.13300000000000001          0.0000000000000000     
  0.13410000000000000          0.0000000000000000     
  0.13520000000000004          0.0000000000000000     
  0.13630000000000003          0.0000000000000000     
  0.13740000000000002          0.0000000000000000     
  0.13850000000000001          0.0000000000000000     
  0.13960000000000000          0.0000000000000000     
  0.14070000000000005          0.0000000000000000     
  0.14180000000000004          0.0000000000000000     
  0.14290000000000003          0.0000000000000000     
  0.14400000000000002          0.0000000000000000     
  0.14510000000000001          0.0000000000000000     
  0.14620000000000000          0.0000000000000000     
  0.14730000000000004          0.0000000000000000     
  0.14840000000000003          0.0000000000000000     
  0.14950000000000002          0.0000000000000000     
  0.15060000000000001          0.0000000000000000     
  0.15170000000000000          0.0000000000000000     
  0.15280000000000005          0.0000000000000000     
  0.15390000000000004          0.0000000000000000     
  0.15500000000000003          0.0000000000000000     
  0.15610000000000002          0.0000000000000000     
  0.15720000000000001          0.0000000000000000     
  0.15830000000000000          0.0000000000000000     
  0.15940000000000004          0.0000000000000000     
  0.16050000000000003          0.0000000000000000     
  0.16160000000000002          0.0000000000000000     
  0.16270000000000001          0.0000000000000000     
  0.16380000000000000          0.0000000000000000     
  0.16490000000000005          0.0000000000000000     
  0.16600000000000004          0.0000000000000000     
  0.16710000000000003          0.0000000000000000     
  0.16820000000000002          0.0000000000000000     
  0.16930000000000001          0.0000000000000000     
  0.17040000000000000          0.0000000000000000     
  0.17150000000000004          0.0000000000000000     
  0.17260000000000003          0.0000000000000000     
  0.17370000000000002          0.0000000000000000     
  0.17480000000000001          0.0000000000000000     
  0.17590000000000000          0.0000000000000000     
  0.17700000000000005          0.0000000000000000     
  0.17810000000000004          0.0000000000000000     
  0.17920000000000003          0.0000000000000000     
  0.18030000000000002          0.0000000000000000     
  0.18140000000000001          0.0000000000000000     
  0.18250000000000000          0.0000000000000000     
  0.18360000000000004          0.0000000000000000     
  0.18470000000000003          0.0000000000000000     
  0.18580000000000002          0.0000000000000000     
  0.18690000000000001          0.0000000000000000     
  0.18800000000000000          0.0000000000000000     
  0.18910000000000005          0.0000000000000000     
  0.19020000000000004          0.0000000000000000     
  0.19130000000000003          0.0000000000000000     
  0.19240000000000002          0.0000000000000000     
  0.19350000000000001          0.0000000000000000     
  0.19460000000000005          0.0000000000000000     
  0.19570000000000004          0.0000000000000000     
  0.19680000000000003          0.0000000000000000     
  0.19790000000000002          0.0000000000000000     
  0.19900000000000001          0.0000000000000000     
  0.20010000000000000         -1.8050013392775119E-038
  0.20120000000000005         -5.2811945900546746E-038
  0.20230000000000004         -9.4234048378477544E-038
  0.20340000000000003         -6.1034036785203415E-038
  0.20450000000000002          4.5784664038604934E-038
  0.20560000000000000          2.1242996446976710E-037
  0.20670000000000005          2.7076635626669046E-037
  0.20780000000000004          7.3012560861021581E-038
  0.20890000000000003         -3.1980599486679081E-037
  0.21000000000000002         -6.4808045224118768E-037
  0.21110000000000001         -5.6322127101572052E-037
  0.21220000000000000          9.0375991187046292E-038
  0.21330000000000005          1.0492170455373990E-036
  0.21440000000000003          1.7095118442597301E-036
  0.21550000000000002          1.4304437733198897E-036
  0.21660000000000001         -2.2526820045358170E-038
  0.21770000000000000         -2.1670344864987109E-036
  0.21880000000000005         -3.8822996834981958E-036
  0.21990000000000004         -3.8912579550340226E-036
  0.22100000000000003         -1.4794842933660932E-036
  0.22210000000000002          2.8770080631981487E-036
  0.22320000000000001          7.3778714756932397E-036
  0.22430000000000000          9.4355125026293858E-036
  0.22540000000000004          6.8203224181969729E-036
  0.22650000000000003         -9.5897725449276617E-037
  0.22760000000000002         -1.1675035123268587E-035
  0.22870000000000001         -2.0463086581781631E-035
  0.22980000000000000         -2.1400345333064517E-035
  0.23090000000000005         -1.0380995566168911E-035
  0.23200000000000004          1.1665398101616697E-035
  0.23310000000000003          3.6982220266329136E-035
  0.23420000000000002          5.2364582690899019E-035
  0.23530000000000001          4.4310810628053885E-035
  0.23640000000000000          6.8700901736257177E-036
  0.23750000000000004         -5.1400126192202779E-035
  0.23860000000000003         -1.0589948244139184E-034
  0.23970000000000002         -1.2324530218596970E-034
  0.24080000000000001         -7.6954587318349502E-035
  0.24190000000000000          3.3957973870508048E-035
  0.24300000000000005          1.7331007699675536E-034
  0.24410000000000004          2.7286337100675560E-034
  0.24520000000000003          2.5835049298375684E-034
  0.24630000000000002          9.0037719128037930E-035
  0.24740000000000001         -1.9989947198647544E-034
  0.24850000000000005         -4.9617203260177958E-034
  0.24960000000000004         -6.3257915250122285E-034
  0.25070000000000003         -4.6657790700656611E-034
  0.25180000000000002          2.9717759139521651E-035
  0.25290000000000001          7.0783315210769787E-034
  0.25400000000000000          1.2574604696704078E-033
  0.25510000000000005          1.3188212755456296E-033
  0.25620000000000004          6.6690854780576292E-034
  0.25730000000000003         -6.0934146441773367E-034
  0.25840000000000002         -2.0365799615039372E-033
  0.25950000000000001         -2.8765709607613182E-033
  0.26060000000000005         -2.4399864827538020E-033
  0.26170000000000004         -4.9049875986015935E-034
  0.26280000000000003          2.4545471806088259E-033
  0.26390000000000002          5.1339928830204395E-033
  0.26500000000000001          5.9717030572423724E-033
  0.26610000000000000          3.8370898067026810E-033
  0.26720000000000005         -1.1674113535374007E-033
  0.26830000000000004         -7.3211845270969537E-033
  0.26940000000000003         -1.1660156055398841E-032
  0.27050000000000002         -1.1171960766405525E-032
  0.27160000000000001         -4.4368071929126211E-033
  0.27270000000000005          7.0388792692044301E-033
  0.27380000000000004          1.8639086587534585E-032
  0.27490000000000003          2.4101016690950681E-032
  0.27600000000000002          1.8379377290316947E-032
  0.27710000000000001          8.1159143846412625E-034
  0.27820000000000000         -2.3052308206495908E-032
  0.27930000000000005         -4.2402972971131278E-032
  0.28040000000000004         -4.5308177891132261E-032
  0.28150000000000003         -2.4819428909491108E-032
  0.28260000000000002          1.5638259602079372E-032
  0.28370000000000001          6.0760862201891736E-032
  0.28480000000000005          8.7813636342956129E-032
  0.28590000000000004          7.6523442188812509E-032
  0.28700000000000003          2.0783463136085423E-032
  0.28810000000000002         -6.3591705291091398E-032
  0.28920000000000001         -1.4049003026358747E-031
  0.29030000000000000         -1.6655202140403421E-031
  0.29140000000000005         -1.1215504469429209E-031
  0.29250000000000004          1.8513427563689636E-032
  0.29360000000000003          1.7935200274793840E-031
  0.29470000000000002          2.9419221743647290E-031
  0.29580000000000001          2.8827694194634064E-031
  0.29690000000000005          1.2843477178452935E-031
  0.29800000000000004         -1.4689668577883575E-031
  0.29910000000000003         -4.2680196852568701E-031
  0.30020000000000002         -5.6521986118820517E-031
  0.30130000000000001         -4.4782704921903243E-031
  0.30240000000000000         -6.1602781348029510E-032
  0.30350000000000005          4.6897522598215405E-031
  0.30460000000000004          9.0782065195658662E-031
  0.30570000000000003          9.9927740456813819E-031
  0.30680000000000002          5.9659596933763184E-031
  0.30790000000000001         -2.3044395836729452E-031
  0.30900000000000005         -1.1711153051649052E-030
  0.31010000000000004         -1.7685212840518984E-030
  0.31120000000000003         -1.6169987468981150E-030
  0.31230000000000002         -5.8729649378797768E-031
  0.31340000000000001          1.0302886351685865E-030
  0.31450000000000006          2.5616634328192943E-030
  0.31560000000000005          3.1934149128314136E-030
  0.31670000000000004          2.3553732066598255E-030
  0.31780000000000003          8.0146432409801372E-032
  0.31890000000000002         -2.8522719643721333E-030
  0.32000000000000001         -5.1162159720199756E-030
  0.32110000000000005         -5.3755567376940867E-030
  0.32220000000000004         -2.9646193315287244E-030
  0.32330000000000003          1.5963741703233263E-030
  0.32440000000000002          6.5576176722960131E-030
  0.32550000000000001          9.5109432287556865E-030
  0.32660000000000006          8.4415856808968357E-030
  0.32770000000000005          2.8476147678303905E-030
  0.32880000000000004         -5.6233452852254217E-030
  0.32990000000000003         -1.3462333062507570E-029
  0.33100000000000002         -1.6595470515177594E-029
  0.33210000000000001         -1.2283429237278780E-029
  0.33320000000000005         -8.1692270619922438E-031
  0.33430000000000004          1.3890440191964136E-029
  0.33540000000000003          2.5372303400336162E-029
  0.33650000000000002          2.7203907935147221E-029
  0.33760000000000001          1.6188410196708368E-029
  0.33870000000000006         -5.3088578326519139E-030
  0.33980000000000005         -2.9232297316507309E-029
  0.34090000000000004         -4.4483778700094585E-029
  0.34200000000000003         -4.1671018227252421E-029
  0.34310000000000002         -1.8090935593036678E-029
  0.34420000000000001          1.9450515659119211E-029
  0.34530000000000005          5.5847376233791263E-029
  0.34640000000000004          7.3226763459749272E-029
  0.34750000000000003          5.9043926493061128E-029
  0.34860000000000002          1.3339582183776103E-029
  0.34970000000000001         -4.8561980443649456E-029
  0.35080000000000006         -1.0020512389414747E-028
  0.35190000000000005         -1.1444352403210305E-028
  0.35300000000000004         -7.6428868831825665E-029
  0.35410000000000003          6.6136704047706991E-030
  0.35520000000000002          1.0422380536294413E-028
  0.35630000000000001          1.7250548495120529E-028
  0.35740000000000005          1.7242047930645157E-028
  0.35850000000000004          8.9513317952089054E-029
  0.35960000000000003         -5.4109254403533122E-029
  0.36070000000000002         -2.0284009720445820E-028
  0.36180000000000001         -2.8721328261706710E-028
  0.36290000000000006         -2.5404287092258700E-028
  0.36400000000000005         -9.4785460917737037E-029
  0.36510000000000004          1.4166759078062006E-028
  0.36620000000000003          3.6079964714044003E-028
  0.36730000000000002          4.5795657772523058E-028
  0.36840000000000006          3.6521821206619294E-028
  0.36950000000000005          8.9719061313393840E-029
  0.37060000000000004         -2.7611265574767401E-028
  0.37170000000000003         -5.8222022597131978E-028
  0.37280000000000002         -6.8022762303015232E-028
  0.37390000000000001         -4.9216316381282259E-028
  0.37500000000000006         -5.8083049501911382E-029
  0.37610000000000005          4.6325274132718672E-028
  0.37720000000000004          8.4884880896713599E-028
  0.37830000000000003          9.0474902170555526E-028
  0.37940000000000002          5.6077393673291044E-028
  0.38050000000000006         -7.7563892384323556E-029
  0.38160000000000005         -7.5147085503313117E-028
  0.38270000000000004         -1.1472929371146122E-027
  0.38380000000000003         -1.0369846253785434E-027
  0.38490000000000002         -4.0104785299610860E-028
  0.38600000000000001          5.2742824174277283E-028
  0.38710000000000000          1.3320827377903221E-027
  0.38819999999999999          1.5826305292233503E-027
  0.38930000000000009          1.0412543190633532E-027
  0.39040000000000008         -1.8543818375609092E-028
  0.39150000000000007         -1.6307156962138388E-027
  0.39260000000000006         -2.6203883129781529E-027
  0.39370000000000005         -2.5526531681875787E-027
  0.39480000000000004         -1.1973467064176749E-027
  0.39590000000000003          1.1209918479600366E-027
  0.39700000000000002          3.5615529039982861E-027
  0.39810000000000001          5.0486046318250344E-027
  0.39920000000000000          4.7096921955729749E-027
  0.40029999999999999          2.2991828744329759E-027
  0.40140000000000009         -1.5850994627821268E-027
  0.40250000000000008         -5.6210441616301529E-027
  0.40360000000000007         -8.2147737484742767E-027
  0.40470000000000006         -8.1345410459706648E-027
  0.40580000000000005         -5.0717735588690119E-027
  0.40690000000000004          1.2657694466605613E-028
  0.40800000000000003          5.6963187674133203E-027
  0.40910000000000002          9.6133440255803754E-027
  0.41020000000000001          1.0422985698730626E-026
  0.41130000000000000          7.8865906390663152E-027
  0.41239999999999999          3.1321609973114992E-027
  0.41350000000000009         -1.8115840832696947E-027
  0.41460000000000008         -4.9433876791678594E-027
  0.41570000000000007         -5.2850144996520270E-027
  0.41680000000000006         -3.4614214925741780E-027
  0.41790000000000005         -1.5123784014494464E-027
  0.41900000000000004         -1.9026959673215846E-027
  0.42010000000000003         -6.0890584477109560E-027
  0.42120000000000002         -1.3290076601835048E-026
  0.42230000000000001         -2.0138939286297744E-026
  0.42340000000000000         -2.1614009124524816E-026
  0.42449999999999999         -1.3116322555941473E-026
  0.42560000000000009          7.0077801312281320E-027
  0.42670000000000008          3.5564647213776312E-026
  0.42780000000000007          6.4254254838169182E-026
  0.42890000000000006          8.1573252285466135E-026
  0.43000000000000005          7.6577353159204933E-026
  0.43110000000000004          4.3360824248569007E-026
  0.43220000000000003         -1.5393252136280997E-026
  0.43330000000000002         -8.7347338014964466E-026
  0.43440000000000001         -1.5275470426703087E-025
  0.43550000000000000         -1.8969296805718995E-025
  0.43659999999999999         -1.8081029569281777E-025
  0.43770000000000009         -1.1941155076812440E-025
  0.43880000000000008         -1.2783253496283920E-026
  0.43990000000000007          1.1848144696529645E-025
  0.44100000000000006          2.4504691833806305E-025
  0.44210000000000005          3.3585935237109562E-025
  0.44320000000000004          3.6544594993922613E-025
  0.44430000000000003          3.1941480684570592E-025
  0.44540000000000002          1.9699417074172343E-025
  0.44650000000000001          1.0730140947179377E-026
  0.44760000000000000         -2.1550683856217362E-025
  0.44869999999999999         -4.4880303210333294E-025
  0.44980000000000009         -6.4905260995907078E-025
  0.45090000000000008         -7.7095671428758198E-025
  0.45200000000000007         -7.6792783362212340E-025
  0.45310000000000006         -5.9990450538930115E-025
  0.45420000000000005         -2.4588779468261231E-025
  0.45530000000000004          2.8049849842834826E-025
  0.45640000000000003          9.1709230790374080E-025
  0.45750000000000002          1.5476838478054321E-024
  0.45860000000000001          2.0115637380157740E-024
  0.45970000000000000          2.1317437386684830E-024
  0.46079999999999999          1.7598504541903838E-024
  0.46190000000000009          8.2897289998666808E-025
  0.46300000000000008         -5.9981210861541251E-025
  0.46410000000000007         -2.3136450026184029E-024
  0.46520000000000006         -3.9604221074978565E-024
  0.46630000000000005         -5.1035671429699467E-024
  0.46740000000000004         -5.3139086194663468E-024
  0.46850000000000003         -4.2821428556145881E-024
  0.46960000000000002         -1.9267744068308265E-024
  0.47070000000000001          1.5306404099515643E-024
  0.47180000000000000          5.5474832304059184E-024
  0.47289999999999999          9.3140561831748840E-024
  0.47400000000000009          1.1880354005906746E-023
  0.47510000000000008          1.2341084269501407E-023
  0.47620000000000007          1.0050516996624556E-023
  0.47730000000000006          4.8283477739522897E-024
  0.47840000000000005         -2.8873855070404501E-024