 -0.119999997         0.00000000    
 -0.119000003         0.00000000    
 -0.118000001         0.00000000    
 -0.116999999         0.00000000    
 -0.115999997         0.00000000    
 -0.115000002         0.00000000    
 -0.114000000         0.00000000    
 -0.112999998         0.00000000    
 -0.112000003         0.00000000    
 -0.111000001         0.00000000    
 -0.109999999         0.00000000    
 -0.108999997         0.00000000    
 -0.108000003         0.00000000    
 -0.107000001         0.00000000    
 -0.105999999         0.00000000    
 -0.104999997         0.00000000    
 -0.104000002         0.00000000    
 -0.103000000         0.00000000    
 -0.101999998         0.00000000    
 -0.101000004         0.00000000    
 -0.100000001         0.00000000    
  -9.89999995E-02     0.00000000    
  -9.79999974E-02     0.00000000    
  -9.70000029E-02     0.00000000    
  -9.60000008E-02     0.00000000    
  -9.49999988E-02     0.00000000    
  -9.39999968E-02     0.00000000    
  -9.30000022E-02     0.00000000    
  -9.20000002E-02     0.00000000    
  -9.09999982E-02     0.00000000    
  -9.00000036E-02     0.00000000    
  -8.90000015E-02     0.00000000    
  -8.79999995E-02     0.00000000    
  -8.69999975E-02     0.00000000    
  -8.60000029E-02     0.00000000    
  -8.50000009E-02     0.00000000    
  -8.39999989E-02     0.00000000    
  -8.29999968E-02     0.00000000    
  -8.20000023E-02     0.00000000    
  -8.10000002E-02     0.00000000    
  -7.99999982E-02     0.00000000    
  -7.90000036E-02     0.00000000    
  -7.80000016E-02     0.00000000    
  -7.69999996E-02     0.00000000    
  -7.59999976E-02     0.00000000    
  -7.50000030E-02     0.00000000    
  -7.40000010E-02     0.00000000    
  -7.29999989E-02     0.00000000    
  -7.19999969E-02     0.00000000    
  -7.10000023E-02     0.00000000    
  -7.00000003E-02     0.00000000    
  -6.89999983E-02     0.00000000    
  -6.80000037E-02     0.00000000    
  -6.70000017E-02     0.00000000    
  -6.59999996E-02     0.00000000    
  -6.49999976E-02     0.00000000    
  -6.40000030E-02     0.00000000    
  -6.30000010E-02     0.00000000    
  -6.19999990E-02     0.00000000    
  -6.10000007E-02     0.00000000    
  -5.99999987E-02     0.00000000    
  -5.90000004E-02     0.00000000    
  -5.79999983E-02     0.00000000    
  -5.70000000E-02     0.00000000    
  -5.60000017E-02     0.00000000    
  -5.49999997E-02     0.00000000    
  -5.40000014E-02     0.00000000    
  -5.29999994E-02     0.00000000    
  -5.20000011E-02     0.00000000    
  -5.09999990E-02     0.00000000    
  -5.00000007E-02     0.00000000    
  -4.89999987E-02     0.00000000    
  -4.80000004E-02     0.00000000    
  -4.69999984E-02     0.00000000    
  -4.60000001E-02     0.00000000    
  -4.50000018E-02     0.00000000    
  -4.39999998E-02     0.00000000    
  -4.30000015E-02     0.00000000    
  -4.19999994E-02     0.00000000    
  -4.10000011E-02     0.00000000    
  -3.99999991E-02     0.00000000    
  -3.90000008E-02     0.00000000    
  -3.79999988E-02     0.00000000    
  -3.70000005E-02     0.00000000    
  -3.59999985E-02     0.00000000    
  -3.50000001E-02     0.00000000    
  -3.40000018E-02     0.00000000    
  -3.29999998E-02     0.00000000    
  -3.20000015E-02     0.00000000    
  -3.09999995E-02     0.00000000    
  -2.99999993E-02     0.00000000    
  -2.89999992E-02     0.00000000    
  -2.80000009E-02     0.00000000    
  -2.70000007E-02     0.00000000    
  -2.60000005E-02    -0.00000000    
  -2.50000004E-02    -0.00000000    
  -2.40000002E-02    -0.00000000    
  -2.30000000E-02     0.00000000    
  -2.19999999E-02     0.00000000    
  -2.09999997E-02     0.00000000    
  -1.99999996E-02     1.33941965E-38
  -1.89999994E-02     0.00000000    
  -1.79999992E-02    -1.45612034E-38
  -1.70000009E-02    -6.04520606E-38
  -1.60000008E-02    -1.17681975E-37
  -1.49999997E-02    -1.33471291E-37
  -1.40000004E-02    -6.03720745E-38
  -1.30000003E-02     1.67706313E-37
  -1.20000001E-02     5.64618576E-37
  -1.09999999E-02     1.00785072E-36
  -9.99999978E-03     1.21003795E-36
  -8.99999961E-03     7.29031064E-37
  -8.00000038E-03    -9.01216611E-37
  -7.00000022E-03    -3.80213447E-36
  -6.00000005E-03    -7.26217167E-36
  -4.99999989E-03    -9.30572383E-36
  -4.00000019E-03    -6.72646365E-36
  -3.00000003E-03     3.89485783E-36
  -2.00000009E-03     2.38679665E-35
  -1.00000005E-03     4.90703172E-35
   0.00000000         6.69774755E-35
   1.00000005E-03     5.66322586E-35
   2.00000009E-03    -5.30385577E-36
   3.00000003E-03    -1.30397795E-34
   4.00000019E-03    -2.97910676E-34
   4.99999989E-03    -4.35896723E-34
   6.00000005E-03    -4.18856280E-34
   7.00000022E-03    -1.00103825E-34
   8.00000038E-03     6.09229886E-34
   8.99999961E-03     1.62312627E-33
   9.99999978E-03     2.56821326E-33
   1.09999999E-02     2.75581169E-33
   1.20000001E-02     1.33646085E-33
   1.30000003E-02    -2.29580420E-33
   1.40000004E-02    -7.88518451E-33
   1.49999997E-02    -1.36894869E-32
   1.60000008E-02    -1.62457345E-32
   1.70000009E-02    -1.10208737E-32
   1.79999992E-02     5.69119631E-33
   1.89999994E-02     3.37424595E-32
   1.99999996E-02     6.58972024E-32
   2.09999997E-02     8.62195837E-32
   2.19999999E-02     7.24251810E-32
   2.30000000E-02     4.03067976E-33
   2.40000002E-02    -1.23904886E-31
   2.50000004E-02    -2.85197381E-31
   2.60000005E-02    -4.12939646E-31
   2.70000007E-02    -4.06283244E-31
   2.80000009E-02    -1.62364875E-31
   2.89999992E-02     3.65906447E-31
   2.99999993E-02     1.10001802E-30
   3.09999995E-02     1.78511738E-30
   3.20000015E-02     2.00158927E-30
   3.29999998E-02     1.27821666E-30
   3.40000018E-02    -6.83012012E-31
   3.50000001E-02    -3.71612433E-30
   3.59999985E-02    -6.94940298E-30
   3.70000005E-02    -8.78090819E-30
   3.79999988E-02    -7.23595127E-30
   3.90000008E-02    -7.74099376E-31
   3.99999991E-02     1.05864848E-29
   4.10000011E-02     2.42205491E-29
   4.19999994E-02     3.45361429E-29
   4.30000015E-02     3.39495588E-29
   4.39999998E-02     1.55477285E-29
   4.50000018E-02    -2.28775591E-29
   4.60000001E-02    -7.46631521E-29
   4.69999984E-02    -1.22064128E-28
   4.80000004E-02    -1.38366535E-28
   4.89999987E-02    -9.59047390E-29
   5.00000007E-02     2.05187297E-29
   5.09999990E-02     1.98388178E-28
   5.20000011E-02     3.87047785E-28
   5.29999994E-02     5.00210229E-28
   5.40000014E-02     4.37723576E-28
   5.49999997E-02     1.26891881E-28
   5.60000017E-02    -4.25971600E-28
   5.70000000E-02    -1.09345626E-27
   5.79999983E-02    -1.62048805E-27
   5.90000004E-02    -1.67629245E-27
   5.99999987E-02    -9.71808842E-28
   6.10000007E-02     5.78741659E-28
   6.19999990E-02     2.70640054E-27
   6.30000010E-02     4.72446292E-27
   6.40000030E-02     5.63103166E-27
   6.49999976E-02     4.41513277E-27
   6.59999996E-02     5.26775207E-28
   6.70000017E-02    -5.62707233E-27
   6.80000037E-02    -1.23811865E-26
   6.89999983E-02    -1.69454441E-26
   7.00000003E-02    -1.61282920E-26
   7.10000023E-02    -7.60644260E-27
   7.19999969E-02     8.57953026E-27
   7.29999989E-02     2.88847953E-26
   7.40000010E-02     4.61719949E-26
   7.50000030E-02     5.12199898E-26
   7.59999976E-02     3.58991339E-26
   7.69999996E-02    -2.64739255E-27
   7.80000016E-02    -5.82428456E-26
   7.90000036E-02    -1.14231385E-25
   7.99999982E-02    -1.46062663E-25
   8.10000002E-02    -1.28583514E-25
   8.20000023E-02    -4.69052781E-26
   8.29999968E-02     9.23902737E-26
   8.39999989E-02     2.54527943E-25
   8.50000009E-02     3.79249663E-25
   8.60000029E-02     3.95893642E-25
   8.69999975E-02     2.49595221E-25
   8.79999995E-02    -6.80546975E-26
   8.90000015E-02    -4.95343906E-25
   9.00000036E-02    -8.97000818E-25
   9.09999982E-02    -1.09097994E-24
   9.20000002E-02    -9.06550472E-25
   9.30000022E-02    -2.61723094E-25
   9.39999968E-02     7.65130835E-25
   9.49999988E-02     1.90233314E-24
   9.60000008E-02     2.72022965E-24
   9.70000029E-02     2.74725622E-24
   9.79999974E-02     1.65000474E-24
   9.89999995E-02    -5.72939223E-25
  0.100000001        -3.45893932E-24
  0.101000004        -6.08993164E-24
  0.101999998        -7.29230515E-24
  0.103000000        -6.01853973E-24
  0.104000002        -1.82252192E-24
  0.104999997         4.73092783E-24
  0.105999999         1.19138192E-23
  0.107000001         1.70967741E-23
  0.108000003         1.74702540E-23
  0.108999997         1.11009587E-23
  0.109999999        -1.98051498E-24
  0.111000001        -1.90848141E-23
  0.112000003        -3.49774299E-23
  0.112999998        -4.30383767E-23
  0.114000000        -3.73715470E-23
  0.115000002        -1.53580458E-23
  0.115999997         2.01989570E-23
  0.116999999         6.03158567E-23
  0.118000001         9.12165481E-23
  0.119000003         9.80379357E-23
  0.119999997         7.01768452E-23
  0.120999999         6.74479072E-24
  0.122000001        -7.99382227E-23
  0.123000003        -1.64782100E-22
  0.123999998        -2.15377379E-22
  0.125000000        -2.01951232E-22
  0.126000002        -1.09437689E-22
  0.127000004         5.22764459E-23
  0.128000006         2.44379516E-22
  0.128999993         4.04855054E-22
  0.129999995         4.64665983E-22
  0.130999997         3.71446126E-22
  0.131999999         1.14024656E-22
  0.133000001        -2.61176952E-22
  0.134000003        -6.50415236E-22
  0.135000005        -9.14339418E-22
  0.136000007        -9.19285033E-22
  0.136999995        -5.88426823E-22
  0.137999997         5.33928829E-23
  0.138999999         8.59606658E-22
  0.140000001         1.58111788E-21
  0.141000003         1.92877799E-21
  0.142000005         1.66830314E-21
  0.143000007         7.21801619E-22
  0.143999994        -7.59529820E-22
  0.144999996        -2.38619917E-21
  0.145999998        -3.60564636E-21
  0.147000000        -3.85775429E-21
  0.148000002        -2.77612234E-21
  0.149000004        -3.74606416E-22
  0.150000006         2.85231908E-21
  0.150999993         5.97487420E-21
  0.151999995         7.84185154E-21
  0.152999997         7.43153441E-21
  0.153999999         4.25082866E-21
  0.155000001        -1.34664731E-21
  0.156000003        -8.05752596E-21
  0.157000005        -1.38331514E-20
  0.158000007        -1.63991432E-20
  0.158999994        -1.39888488E-20
  0.159999996        -6.08903280E-21
  0.160999998         6.05843277E-21
  0.162000000         1.94336634E-20
  0.163000003         2.98210566E-20
  0.164000005         3.29449074E-20
  0.165000007         2.59035583E-20
  0.165999994         8.48432369E-21
  0.166999996        -1.61159922E-20
  0.167999998        -4.15482902E-20
  0.169000000        -5.96853399E-20
  0.170000002        -6.29055411E-20
  0.171000004        -4.67250062E-20
  0.172000006        -1.19749362E-20
  0.172999993         3.43022623E-20
  0.173999995         7.98137397E-20
  0.174999997         1.09911236E-19
  0.175999999         1.11867648E-19
  0.177000001         7.94056553E-20
  0.178000003         1.60317539E-20
  0.179000005        -6.41687557E-20
  0.180000007        -1.39046696E-19
  0.180999994        -1.84037127E-19
  0.181999996        -1.79685808E-19
  0.182999998        -1.18926535E-19
  0.184000000        -1.16493138E-20
  0.185000002         1.15475137E-19
  0.186000004         2.24757923E-19
  0.187000006         2.77979525E-19
  0.187999994         2.48991730E-19
  0.188999996         1.34611405E-19
  0.189999998        -4.01794581E-20
  0.191000000        -2.25568508E-19
  0.192000002        -3.59301150E-19
  0.193000004        -3.85688393E-19
  0.194000006        -2.76088952E-19
  0.194999993        -4.42028646E-20
  0.195999995         2.50065695E-19
  0.196999997         5.11821054E-19
  0.197999999         6.36772218E-19
  0.199000001         5.45546035E-19
  0.200000003         2.16966502E-19
  0.201000005        -2.91123477E-19
  0.202000007        -8.43150420E-19
  0.202999994        -1.25355469E-18
  0.203999996        -1.33754143E-18
  0.204999998        -9.73147178E-19
  0.206000000        -1.56838291E-19
  0.207000002         9.66726809E-19
  0.208000004         2.11583061E-18
  0.209000006         2.92885857E-18
  0.209999993         3.05916206E-18
  0.210999995         2.28588633E-18
  0.211999997         6.09866565E-19
  0.213000000        -1.69760509E-18
  0.214000002        -4.11702680E-18
  0.215000004        -5.98078053E-18
  0.216000006        -6.63587407E-18
  0.216999993        -5.63295894E-18
  0.217999995        -2.89145305E-18
  0.218999997         1.21055246E-18
  0.219999999         5.85921476E-18
  0.221000001         9.95160894E-18
  0.222000003         1.23434794E-17
  0.223000005         1.21438195E-17
  0.224000007         8.98191835E-18
  0.224999994         3.17119685E-18
  0.225999996        -4.28589324E-18
  0.226999998        -1.18697771E-17
  0.228000000        -1.78636668E-17
  0.229000002        -2.07498770E-17
  0.230000004        -1.95847103E-17
  0.231000006        -1.42534999E-17
  0.231999993        -5.53452775E-18
  0.232999995         5.05040045E-18
  0.233999997         1.55631600E-17
  0.234999999         2.40689640E-17
  0.236000001         2.90368221E-17
  0.237000003         2.96158188E-17
  0.238000005         2.57214409E-17
  0.238999993         1.79271215E-17
  0.239999995         7.21990122E-18
  0.240999997        -5.27569467E-18
  0.241999999        -1.84921520E-17
  0.243000001        -3.14517428E-17
  0.244000003        -4.31260505E-17
  0.245000005        -5.21938790E-17
  0.246000007        -5.68381276E-17
  0.246999994        -5.47481565E-17
  0.247999996        -4.34586963E-17
  0.248999998        -2.10592789E-17
  0.250000000         1.28307021E-17
  0.250999987         5.60673475E-17
  0.252000004         1.03310802E-16
  0.252999991         1.46029592E-16
  0.254000008         1.73432391E-16
  0.254999995         1.74373829E-16
  0.256000012         1.40009411E-16
  0.256999999         6.67023292E-17
  0.257999986        -4.15113311E-17
  0.259000003        -1.71645245E-16
  0.259999990        -3.02286312E-16
  0.261000007        -4.06217255E-16
  0.261999995        -4.54990259E-16
  0.263000011        -4.24814393E-16
  0.263999999        -3.02702576E-16
  0.264999986        -9.15819169E-17
  0.266000003         1.86916428E-16
  0.266999990         4.92980269E-16
  0.268000007         7.72909359E-16
  0.268999994         9.66943802E-16
  0.270000011         1.01966949E-15
  0.270999998         8.91422026E-16
  0.272000015         5.68721373E-16
  0.273000002         7.16775162E-17
  0.273999989        -5.43428916E-16
  0.275000006        -1.18761134E-15
  0.275999993        -1.74906459E-15
  0.277000010        -2.10885158E-15
  0.277999997        -2.16071731E-15
  0.279000014        -1.83241348E-15
  0.280000001        -1.10519154E-15
  0.280999988        -2.77980993E-17
  0.282000005         1.27853218E-15
  0.282999992         2.62679973E-15
  0.284000009         3.78397993E-15
  0.284999996         4.50309185E-15
  0.286000013         4.56455425E-15
  0.287000000         3.82140778E-15
  0.287999988         2.24101370E-15
  0.289000005        -6.51864512E-17
  0.289999992        -2.83194984E-15
  0.291000009        -5.65665924E-15
  0.291999996        -8.04438032E-15
  0.293000013        -9.47912454E-15
  0.294000000        -9.51338448E-15
  0.294999987        -7.86293485E-15
  0.296000004        -4.49033002E-15
  0.296999991         3.40533582E-16
  0.298000008         6.05427768E-15
  0.298999995         1.18083627E-14
  0.300000012         1.65936533E-14
  0.300999999         1.93830530E-14
  0.301999986         1.93099964E-14
  0.303000003         1.58502582E-14
  0.303999990         8.97565239E-15
  0.305000007        -7.51862602E-16
  0.305999994        -1.21720142E-14
  0.307000011        -2.36197306E-14
  0.307999998        -3.31215632E-14
  0.308999985        -3.86792479E-14
  0.310000002        -3.86075313E-14
  0.310999990        -3.18790709E-14
  0.312000006        -1.84198207E-14
  0.312999994         7.03472986E-16
  0.314000010         2.32549270E-14
  0.314999998         4.59948004E-14
  0.316000015         6.50472514E-14
  0.317000002         7.64470206E-14
  0.317999989         7.68064133E-14
  0.319000006         6.40110320E-14
  0.319999993         3.78290132E-14
  0.321000010         3.09404671E-16
  0.321999997        -4.41429120E-14
  0.323000014        -8.90938866E-14
  0.324000001        -1.26829862E-13
  0.324999988        -1.49478357E-13
  0.326000005        -1.50369531E-13
  0.326999992        -1.25437218E-13
  0.328000009        -7.44116818E-14
  0.328999996        -1.54766800E-15
  0.330000013         8.43292992E-14
  0.331000000         1.70588017E-13
  0.331999987         2.42368788E-13
  0.333000004         2.84822730E-13
  0.333999991         2.85716112E-13
  0.335000008         2.37988503E-13
  0.335999995         1.41799888E-13
  0.337000012         5.62709821E-15
  0.338000000        -1.53919073E-13
  0.338999987        -3.13700969E-13
  0.340000004        -4.46996742E-13
  0.340999991        -5.27447985E-13
  0.342000008        -5.33472301E-13
  0.342999995        -4.52465105E-13
  0.344000012        -2.84082653E-13
  0.344999999        -4.19798677E-14
  0.345999986         2.46435766E-13
  0.347000003         5.42404067E-13
  0.347999990         8.00229024E-13
  0.349000007         9.73272027E-13
  0.349999994         1.02082719E-12
  0.351000011         9.15010580E-13
  0.351999998         6.46723777E-13
  0.352999985         2.29783342E-13
  0.354000002        -2.97551914E-13
  0.354999989        -8.74201644E-13
  0.356000006        -1.42127250E-12
  0.356999993        -1.85033065E-12
  0.358000010        -2.07440423E-12
  0.358999997        -2.02075271E-12
  0.360000014        -1.64402552E-12
  0.361000001        -9.38087824E-13
  0.361999989         5.54064105E-14
  0.363000005         1.24360786E-12
  0.363999993         2.48583792E-12
  0.365000010         3.60470876E-12
  0.365999997         4.40502322E-12
  0.367000014         4.69928653E-12
  0.368000001         4.33735903E-12
  0.368999988         3.23658721E-12
  0.370000005         1.40788932E-12
  0.370999992        -1.02701712E-12
  0.372000009        -3.83160647E-12
  0.372999996        -6.66687842E-12
  0.374000013        -9.12118731E-12
  0.375000000        -1.07562318E-11
  0.375999987        -1.11652215E-11
  0.377000004        -1.00368065E-11
  0.377999991        -7.21656155E-12
  0.379000008        -2.75703657E-12
  0.379999995         3.05223034E-12
  0.381000012         9.68169381E-12
  0.381999999         1.63900143E-11
  0.382999986         2.22842248E-11
  0.384000003         2.64086947E-11
  0.384999990         2.78559259E-11
  0.386000007         2.58889334E-11
  0.386999995         2.00625575E-11
  0.388000011         1.03297102E-11
  0.388999999        -2.88145571E-12
  0.389999986        -1.86322346E-11
  0.391000003        -3.54901282E-11
  0.391999990        -5.16041411E-11
  0.393000007        -6.48401749E-11
  0.393999994        -7.29723157E-11
  0.395000011        -7.39194678E-11
  0.395999998        -6.60101626E-11
  0.397000015        -4.82523500E-11
  0.398000002        -2.05801973E-11
  0.398999989         1.59529664E-11
  0.400000006         5.90663837E-11
  0.400999993         1.05255638E-10
  0.402000010         1.49928625E-10
  0.402999997         1.87683522E-10
  0.404000014         2.12725101E-10
  0.405000001         2.19400567E-10
  0.405999988         2.02821523E-10
  0.407000005         1.59524283E-10
  0.407999992         8.81106785E-11
  0.409000009        -1.01956985E-11
  0.409999996        -1.31143707E-10
  0.411000013        -2.67261852E-10
  0.412000000        -4.07931716E-10
  0.412999988        -5.39766176E-10
  0.414000005        -6.47313148E-10
  0.414999992        -7.14082571E-10
  0.416000009        -7.23869076E-10
  0.416999996        -6.62315813E-10
  0.418000013        -5.18636245E-10
  0.419000000        -2.87383950E-10
  0.419999987         2.98636255E-11
  0.421000004         4.23060614E-10
  0.421999991         8.72649009E-10
  0.423000008         1.34907530E-09
  0.423999995         1.81301307E-09
  0.425000012         2.21640351E-09
  0.425999999         2.50438803E-09
  0.426999986         2.61814637E-09
  0.428000003         2.49860044E-09
  0.428999990         2.09088080E-09
  0.430000007         1.34940714E-09
  0.430999994         2.43390447E-10
  0.432000011        -1.23744281E-09
  0.432999998        -3.07711212E-09
  0.433999985        -5.22779198E-09
  0.435000002        -7.60449836E-09
  0.435999990        -1.00801074E-08
  0.437000006        -1.24806698E-08
  0.437999994        -1.45809276E-08
  0.439000010        -1.60998006E-08
  0.439999998        -1.66955836E-08
  0.441000015        -1.59604223E-08
  0.442000002        -1.34135973E-08
  0.442999989        -8.49305870E-09
  0.444000006        -5.44481904E-10
  0.444999993         1.11928706E-08
  0.446000010         2.76044485E-08
  0.446999997         4.97238375E-08
  0.448000014         7.87624899E-08
  0.449000001         1.16146907E-07
  0.449999988         1.63564692E-07
  0.451000005         2.23020947E-07
  0.451999992         2.96906563E-07
  0.453000009         3.88079997E-07
  0.453999996         4.99964415E-07
  0.455000013         6.36662435E-07
  0.456000000         8.03090018E-07
  0.456999987         1.00513171E-06
  0.458000004         1.24982046E-06
  0.458999991         1.54554277E-06
  0.460000008         1.90227343E-06
  0.460999995         2.33184187E-06
  0.462000012         2.84823182E-06
  0.463000000         3.46791921E-06
  0.463999987         4.21024970E-06
  0.465000004         5.09785832E-06
  0.465999991         6.15713407E-06
  0.467000008         7.41873691E-06
  0.467999995         8.91815944E-06
  0.469000012         1.06963480E-05
  0.469999999         1.28003758E-05
  0.470999986         1.52841767E-05
  0.472000003         1.82093372E-05
  0.472999990         2.16459539E-05
  0.474000007         2.56735329E-05
  0.474999994         3.03819652E-05
  0.476000011         3.58725520E-05
  0.476999998         4.22590674E-05
  0.477999985         4.96688699E-05
  0.479000002         5.82440371E-05
  0.479999989         6.81425081E-05
  0.481000006         7.95392552E-05
  0.481999993         9.26273569E-05
  0.483000010         1.07619126E-04
  0.483999997         1.24747035E-04
  0.485000014         1.44264661E-04
  0.486000001         1.66447368E-04
  0.486999989         1.91592844E-04
  0.488000005         2.20021480E-04
  0.488999993         2.52076308E-04
  0.490000010         2.88122770E-04
  0.490999997         3.28548049E-04
  0.492000014         3.73759976E-04
  0.493000001         4.24185389E-04
  0.493999988         4.80268267E-04
  0.495000005         5.42466703E-04
  0.495999992         6.11249823E-04
  0.497000009         6.87094056E-04
  0.497999996         7.70477869E-04
  0.499000013         8.61876993E-04
  0.500000000         9.61757731E-04
  0.500999987         1.07057043E-03
  0.501999974         1.18874130E-03
  0.503000021         1.31666474E-03
  0.504000008         1.45469338E-03
  0.504999995         1.60312862E-03
  0.505999982         1.76220981E-03
  0.507000029         1.93210389E-03
  0.508000016         2.11289269E-03
  0.509000003         2.30456260E-03
  0.509999990         2.50699138E-03
  0.510999978         2.71993689E-03
  0.512000024         2.94302590E-03
  0.513000011         3.17574246E-03
  0.513999999         3.41741671E-03
  0.514999986         3.66721605E-03
  0.515999973         3.92413605E-03
  0.517000020         4.18699300E-03
  0.518000007         4.45442088E-03
  0.518999994         4.72486438E-03
  0.519999981         4.99658147E-03
  0.521000028         5.26764104E-03
  0.522000015         5.53592993E-03
  0.523000002         5.79915848E-03
  0.523999989         6.05486985E-03
  0.524999976         6.30045449E-03
  0.526000023         6.53316453E-03
  0.527000010         6.75013661E-03
  0.527999997         6.94841193E-03
  0.528999984         7.12496461E-03
  0.529999971         7.27673015E-03
  0.531000018         7.40063749E-03
  0.532000005         7.49364356E-03
  0.532999992         7.55277090E-03
  0.533999979         7.57514499E-03
  0.535000026         7.55803613E-03
  0.536000013         7.49889761E-03
  0.537000000         7.39540951E-03
  0.537999988         7.24551827E-03
  0.538999975         7.04747485E-03
  0.540000021         6.79987483E-03
  0.541000009         6.50169468E-03
  0.541999996         6.15231972E-03
  0.542999983         5.75157860E-03
  0.544000030         5.29976236E-03
  0.545000017         4.79764538E-03
  0.546000004         4.24649986E-03
  0.546999991         3.64810112E-03
  0.547999978         3.00473021E-03
  0.549000025         2.31916760E-03
  0.550000012         1.59468106E-03
  0.550999999         8.35006009E-04
  0.551999986         4.43193530E-05
  0.552999973        -7.72793486E-04
  0.554000020        -1.61137828E-03
  0.555000007        -2.46615731E-03
  0.555999994        -3.33158066E-03
  0.556999981        -4.20188159E-03
  0.558000028        -5.07113617E-03
  0.559000015        -5.93332760E-03
  0.560000002        -6.78241020E-03
  0.560999990        -7.61237554E-03
  0.561999977        -8.41731951E-03
  0.563000023        -9.19150840E-03
  0.564000010        -9.92944371E-03
  0.564999998        -1.06259221E-02
  0.565999985        -1.12760970E-02
  0.566999972        -1.18755279E-02
  0.568000019        -1.24202315E-02
  0.569000006        -1.29067209E-02
  0.569999993        -1.33320410E-02
  0.570999980        -1.36937983E-02
  0.572000027        -1.39901759E-02
  0.573000014        -1.42199490E-02
  0.574000001        -1.43824900E-02
  0.574999988        -1.44777587E-02
  0.575999975        -1.45062981E-02
  0.577000022        -1.44692110E-02
  0.578000009        -1.43681364E-02
  0.578999996        -1.42052136E-02
  0.579999983        -1.39830476E-02
  0.580999970        -1.37046641E-02
  0.582000017        -1.33734625E-02
  0.583000004        -1.29931690E-02
  0.583999991        -1.25677790E-02
  0.584999979        -1.21015040E-02
  0.586000025        -1.15987221E-02
  0.587000012        -1.10639157E-02
  0.588000000        -1.05016250E-02
  0.588999987        -9.91639681E-03
  0.589999974        -9.31273308E-03
  0.591000021        -8.69504828E-03
  0.592000008        -8.06762930E-03
  0.592999995        -7.43459584E-03
  0.593999982        -6.79986877E-03
  0.595000029        -6.16714684E-03
  0.596000016        -5.53987781E-03
  0.597000003        -4.92124679E-03
  0.597999990        -4.31415904E-03
  0.598999977        -3.72123532E-03
  0.600000024        -3.14480742E-03
  0.601000011        -2.58691772E-03
  0.601999998        -2.04932527E-03
  0.602999985        -1.53351214E-03
  0.603999972        -1.04069372E-03
  0.605000019        -5.71831537E-04
  0.606000006        -1.27647654E-04
  0.606999993         2.91359145E-04
  0.607999980         6.84896717E-04
  0.609000027         1.05286157E-03
  0.610000014         1.39532168E-03
  0.611000001         1.71249872E-03
  0.611999989         2.00475124E-03
  0.612999976         2.27255817E-03
  0.614000022         2.51650345E-03
  0.615000010         2.73726252E-03
  0.615999997         2.93558883E-03
  0.616999984         3.11230146E-03
  0.617999971         3.26827657E-03
  0.619000018         3.40443524E-03
  0.620000005         3.52173671E-03
  0.620999992         3.62117006E-03
  0.621999979         3.70374718E-03
  0.623000026         3.77049833E-03
  0.624000013         3.82246589E-03
  0.625000000         3.86070157E-03
  0.625999987         3.88626079E-03
  0.626999974         3.90019920E-03
  0.628000021         3.90356965E-03
  0.629000008         3.89741594E-03
  0.629999995         3.88277066E-03
  0.630999982         3.86064849E-03
  0.632000029         3.83204245E-03
  0.633000016         3.79792042E-03
  0.634000003         3.75921908E-03
  0.634999990         3.71683948E-03
  0.635999978         3.67164146E-03
  0.637000024         3.62443901E-03
  0.638000011         3.57599370E-03
  0.638999999         3.52700986E-03
  0.639999986         3.47813033E-03
  0.640999973         3.42993066E-03
  0.642000020         3.38291703E-03
  0.643000007         3.33752157E-03
  0.643999994         3.29410145E-03
  0.644999981         3.25293583E-03
  0.646000028         3.21422587E-03
  0.647000015         3.17809358E-03
  0.648000002         3.14458343E-03
  0.648999989         3.11366469E-03
  0.649999976         3.08523444E-03
  0.651000023         3.05912201E-03
  0.652000010         3.03509482E-03
  0.652999997         3.01286485E-03
  0.653999984         2.99209449E-03
  0.654999971         2.97240564E-03
  0.656000018         2.95338733E-03
  0.657000005         2.93460535E-03
  0.657999992         2.91561102E-03
  0.658999979         2.89595034E-03
  0.660000026         2.87517463E-03
  0.661000013         2.85284803E-03
  0.662000000         2.82855681E-03
  0.662999988         2.80191726E-03
  0.663999975         2.77258269E-03
  0.665000021         2.74025043E-03
  0.666000009         2.70466623E-03
  0.666999996         2.66563077E-03
  0.667999983         2.62300228E-03
  0.669000030         2.57669878E-03
  0.670000017         2.52669980E-03
  0.671000004         2.47304561E-03
  0.671999991         2.41583586E-03
  0.672999978         2.35522771E-03
  0.674000025         2.29143095E-03
  0.675000012         2.22470448E-03
  0.675999999         2.15535075E-03
  0.676999986         2.08370946E-03
  0.677999973         2.01015198E-03
  0.679000020         1.93507236E-03
  0.680000007         1.85888156E-03
  0.680999994         1.78199774E-03
  0.681999981         1.70483999E-03
  0.683000028         1.62781868E-03
  0.684000015         1.55132904E-03
  0.685000002         1.47574430E-03
  0.685999990         1.40140834E-03
  0.686999977         1.32863107E-03
  0.688000023         1.25768257E-03
  0.689000010         1.18878938E-03