 -0.12000000000000000          0.0000000000000000     
 -0.11889999999999999          0.0000000000000000     
 -0.11780000000000000          0.0000000000000000     
 -0.11670000000000000          0.0000000000000000     
 -0.11559999999999999          0.0000000000000000     
 -0.11449999999999999          0.0000000000000000     
 -0.11340000000000000          0.0000000000000000     
 -0.11230000000000000          0.0000000000000000     
 -0.11119999999999999          0.0000000000000000     
 -0.11009999999999999          0.0000000000000000     
 -0.10900000000000000          0.0000000000000000     
 -0.10790000000000000          0.0000000000000000     
 -0.10679999999999999          0.0000000000000000     
 -0.10569999999999999          0.0000000000000000     
 -0.10460000000000000          0.0000000000000000     
 -0.10349999999999999          0.0000000000000000     
 -0.10239999999999999          0.0000000000000000     
 -0.10130000000000000          0.0000000000000000     
 -0.10020000000000000          0.0000000000000000     
  -9.9099999999999994E-002     0.0000000000000000     
  -9.7999999999999990E-002     0.0000000000000000     
  -9.6899999999999986E-002     0.0000000000000000     
  -9.5799999999999996E-002     0.0000000000000000     
  -9.4699999999999993E-002     0.0000000000000000     
  -9.3599999999999989E-002     0.0000000000000000     
  -9.2499999999999999E-002     0.0000000000000000     
  -9.1399999999999995E-002     0.0000000000000000     
  -9.0299999999999991E-002     0.0000000000000000     
  -8.9200000000000002E-002     0.0000000000000000     
  -8.8099999999999984E-002     0.0000000000000000     
  -8.6999999999999994E-002     0.0000000000000000     
  -8.5899999999999990E-002     0.0000000000000000     
  -8.4799999999999986E-002     0.0000000000000000     
  -8.3699999999999997E-002     0.0000000000000000     
  -8.2599999999999993E-002     0.0000000000000000     
  -8.1499999999999989E-002     0.0000000000000000     
  -8.0399999999999999E-002     0.0000000000000000     
  -7.9299999999999995E-002     0.0000000000000000     
  -7.8199999999999992E-002     0.0000000000000000     
  -7.7100000000000002E-002     0.0000000000000000     
  -7.5999999999999984E-002     0.0000000000000000     
  -7.4899999999999994E-002    -2.7646736366235514E-045
  -7.3799999999999991E-002    -1.9384475285238689E-044
  -7.2699999999999987E-002    -3.5074919898613242E-044
  -7.1599999999999997E-002    -7.9421873589478577E-040
  -7.0499999999999993E-002    -2.2771483668669542E-039
  -6.9399999999999989E-002     1.6554643189243503E-039
  -6.8300000000000000E-002     1.5757333524652101E-038
  -6.7199999999999996E-002     3.4485730118424080E-038
  -6.6099999999999992E-002    -2.8661369883541674E-038
  -6.5000000000000002E-002    -2.6765270964985372E-037
  -6.3899999999999985E-002    -5.7368644231018284E-037
  -6.2799999999999995E-002    -4.9261041581875748E-037
  -6.1699999999999991E-002     8.5154810172157976E-037
  -6.0599999999999994E-002     4.0196748174000717E-036
  -5.9499999999999990E-002     7.2439704957162493E-036
  -5.8399999999999994E-002     4.2541053592128739E-036
  -5.7299999999999990E-002    -1.4415417665425824E-035
  -5.6199999999999986E-002    -5.0913183415761924E-035
  -5.5099999999999996E-002    -7.9320814077303899E-035
  -5.3999999999999992E-002    -2.9965319709375637E-035
  -5.2899999999999989E-002     1.8247462345370567E-034
  -5.1799999999999985E-002     5.4434711819161579E-034
  -5.0699999999999995E-002     7.6052793231253585E-034
  -4.9599999999999991E-002     1.7304053880535519E-034
  -4.8499999999999988E-002    -1.8887833918215092E-033
  -4.7399999999999998E-002    -5.0636248520962510E-033
  -4.6299999999999994E-002    -6.5625270247226105E-033
  -4.5199999999999990E-002    -9.3143616194313305E-034
  -4.4099999999999986E-002     1.6593786083191749E-032
  -4.2999999999999997E-002     4.1817637444916344E-032
  -4.1899999999999993E-002     5.2011909605366494E-032
  -4.0799999999999989E-002     6.5652990636788013E-033
  -3.9699999999999985E-002    -1.2615670806055043E-031
  -3.8599999999999995E-002    -3.1045136116960396E-031
  -3.7499999999999992E-002    -3.8283620465534005E-031
  -3.6399999999999988E-002    -6.7328673986068794E-032
  -3.5299999999999984E-002     8.3767074741169808E-031
  -3.4199999999999994E-002     2.0855507663166211E-030
  -3.3099999999999991E-002     2.6229500551533728E-030
  -3.1999999999999987E-002     7.2076752179110209E-031
  -3.0899999999999997E-002    -4.8701092694419395E-030
  -2.9799999999999993E-002    -1.2718394441241329E-029
  -2.8699999999999989E-002    -1.6686425389300974E-029
  -2.7599999999999986E-002    -6.7278663658149957E-030
  -2.6499999999999996E-002     2.4671124678261558E-029
  -2.5399999999999992E-002     7.0492422694906275E-029
  -2.4299999999999988E-002     9.8209822431052808E-029
  -2.3199999999999985E-002     5.3535562082029390E-029
  -2.2099999999999995E-002    -1.0695526838780146E-028
  -2.0999999999999991E-002    -3.5489350312341488E-028
  -1.9899999999999987E-002    -5.3309576850512200E-028
  -1.8799999999999983E-002    -3.6846812974418763E-028
  -1.7699999999999994E-002     3.7716128415398980E-028
  -1.6599999999999990E-002     1.6181739394918439E-027
  -1.5499999999999986E-002     2.6622284358733824E-027
  -1.4399999999999996E-002     2.2309090818984750E-027
  -1.3299999999999992E-002    -9.0325437173040070E-028
  -1.2199999999999989E-002    -6.6370026168741548E-027
  -1.1099999999999985E-002    -1.2202706881190735E-026
  -9.9999999999999950E-003    -1.2039152156533651E-026
  -8.8999999999999913E-003    -2.4115694615762627E-028
  -7.7999999999999875E-003     2.4144764132571243E-026
  -6.6999999999999837E-003     5.1180324513251882E-026
  -5.5999999999999939E-003     5.8440457809266266E-026
  -4.4999999999999901E-003     1.9512664953923373E-026
  -3.3999999999999864E-003    -7.5573101281859298E-026
  -2.2999999999999826E-003    -1.9545608245461910E-025
  -1.1999999999999927E-003    -2.5663782465639809E-025
  -9.9999999999988987E-005    -1.4956473993698121E-025
   1.0000000000000148E-003     1.8812667261779761E-025
   2.1000000000000185E-003     6.7386987788798758E-025
   3.2000000000000084E-003     1.0223379756094206E-024
   4.3000000000000121E-003     8.1302511988680111E-025
   5.4000000000000159E-003    -2.6696911169727703E-025
   6.5000000000000058E-003    -2.0642930939805061E-024
   7.6000000000000234E-003    -3.6931844923760201E-024
   8.7000000000000133E-003    -3.6636678107395129E-024
   9.8000000000000032E-003    -6.1945181957368410E-025
   1.0900000000000021E-002     5.4362386581922084E-024
   1.2000000000000011E-002     1.2050648483380386E-023
   1.3100000000000001E-002     1.4367877195351599E-023
   1.4200000000000018E-002     7.1562376608481821E-024
   1.5300000000000008E-002    -1.1303246242499359E-023
   1.6400000000000026E-002    -3.5177958618144423E-023
   1.7500000000000016E-002    -4.9997533675378130E-023
   1.8600000000000005E-002    -3.7553549351778064E-023
   1.9700000000000023E-002     1.2709777580906014E-023
   2.0800000000000013E-002     9.0035984750982043E-023
   2.1900000000000003E-002     1.5539547313984371E-022
   2.3000000000000020E-002     1.5125643840423388E-022
   2.4100000000000010E-002     3.2164039570626122E-023
   2.5200000000000000E-002    -1.9291101868190840E-022
   2.6300000000000018E-002    -4.3047112850978831E-022
   2.7400000000000008E-002    -5.1530551803148528E-022
   2.8500000000000025E-002    -2.8476525063503777E-022
   2.9600000000000015E-002     3.0074197865139652E-022
   3.0700000000000005E-002     1.0501546103974642E-021
   3.1800000000000023E-002     1.5337936776059150E-021
   3.2900000000000013E-002     1.2426860344780269E-021
   3.4000000000000002E-002    -9.7347628775813250E-023
   3.5100000000000020E-002    -2.1887254230620276E-021
   3.6200000000000010E-002    -4.0291382796169234E-021
   3.7300000000000028E-002    -4.1971758881452433E-021
   3.8400000000000017E-002    -1.5983051101190407E-021
   3.9500000000000007E-002     3.5883775933149884E-021
   4.0600000000000025E-002     9.3101185854074614E-021
   4.1700000000000015E-002     1.1997907435829162E-020
   4.2800000000000005E-002     8.1624983304539094E-021
   4.3900000000000022E-002    -3.1940923496335677E-021
   4.5000000000000012E-002    -1.8563551905971662E-020
   4.6100000000000002E-002    -2.9895230932956322E-020
   4.7200000000000020E-002    -2.7599531164029330E-020
   4.8300000000000010E-002    -6.1352049458404818E-021
   4.9400000000000027E-002     3.0253587136489872E-020
   5.0500000000000017E-002     6.5410270979236949E-020
   5.1600000000000007E-002     7.5958410335360243E-020
   5.2700000000000025E-002     4.3048875884908300E-020
   5.3800000000000014E-002    -3.3175190014106872E-020
   5.4900000000000004E-002    -1.2460340588418604E-019
   5.6000000000000022E-002    -1.8013898425559549E-019
   5.7100000000000012E-002    -1.4788917952091464E-019
   5.8200000000000002E-002    -8.0679876911213598E-021
   5.9300000000000019E-002     1.9981485576002297E-019
   6.0400000000000009E-002     3.7557080553078897E-019
   6.1500000000000027E-002     3.9507266144280160E-019
   6.2600000000000017E-002     1.7827411629714081E-019
   6.3700000000000007E-002    -2.4137234952054631E-019
   6.4800000000000024E-002    -6.8963729532862515E-019
   6.5900000000000014E-002    -9.0142450132394207E-019
   6.7000000000000004E-002    -6.4848314575932136E-019
   6.8100000000000022E-002     1.0348027694436744E-019
   6.9200000000000012E-002     1.0949482381344631E-018
   7.0300000000000029E-002     1.8154633242775731E-018
   7.1400000000000019E-002     1.7191110491379480E-018
   7.2500000000000009E-002     5.4629798623238016E-019
   7.3600000000000027E-002    -1.4064858403549804E-018
   7.4700000000000016E-002    -3.2555653293764568E-018
   7.5800000000000006E-002    -3.8470947940477997E-018
   7.6900000000000024E-002    -2.3575362763093020E-018
   7.8000000000000014E-002     1.0855340834408444E-018
   7.9100000000000004E-002     5.1340614973202794E-018
   8.0200000000000021E-002     7.5923536812164478E-018
   8.1300000000000011E-002     6.4345257722206186E-018
   8.2400000000000029E-002     1.0774423125737899E-018
   8.3500000000000019E-002    -6.7704538259724298E-018
   8.4600000000000009E-002    -1.3340920991139898E-017
   8.5700000000000026E-002    -1.4345566451749369E-017
   8.6800000000000016E-002    -7.3398093628240967E-018
   8.7900000000000006E-002     6.2271190277829336E-018
   8.9000000000000024E-002     2.0598439780470205E-017
   9.0100000000000013E-002     2.7704676640604195E-017
   9.1200000000000003E-002     2.1151708546231743E-017
   9.2300000000000021E-002     4.7262134390628885E-019
   9.3400000000000011E-002    -2.6778546097590927E-017
   9.4500000000000028E-002    -4.6979562577638556E-017
   9.5600000000000018E-002    -4.6512888640562892E-017
   9.6700000000000008E-002    -1.9631079693927843E-017
   9.7800000000000026E-002     2.5949924128988186E-017
   9.8900000000000016E-002     6.9643792758686637E-017
  0.10000000000000001          8.6192698806708174E-017
  0.10110000000000002          5.8854452984721607E-017
  0.10220000000000001         -8.6785414908815193E-018
  0.10330000000000003         -8.8875190241291737E-017
  0.10440000000000002         -1.3975350426707921E-016
  0.10550000000000001         -1.2506799322755492E-016
  0.10660000000000003         -3.6512582975787925E-017
  0.10770000000000002          9.4332205999218240E-017
  0.10880000000000001          2.0385470462098023E-016
  0.10990000000000003          2.2464655148895903E-016
  0.11100000000000002          1.2307530948842427E-016
  0.11210000000000001         -7.3038499170185305E-017
  0.11320000000000002         -2.7502470804080421E-016
  0.11430000000000001         -3.6895860955291529E-016
  0.11540000000000003         -2.7451571764619378E-016
  0.11650000000000002          8.8336793913630245E-019
  0.11760000000000001          3.4474428327526605E-016
  0.11870000000000003          5.7781870522395419E-016
  0.11980000000000002          5.3966609672731337E-016
  0.12090000000000001          1.8413618524377056E-016
  0.12200000000000003         -3.6699555547478393E-016
  0.12310000000000001         -8.5238519517877374E-016
  0.12420000000000003         -9.8453761825128811E-016
  0.12530000000000002         -6.0409199746433191E-016
  0.12640000000000001          2.0215542536662678E-016
  0.12750000000000003          1.0934452558824294E-015
  0.12860000000000002          1.6059975722033328E-015
  0.12970000000000001          1.3800213133385253E-015
  0.13080000000000003          3.7762570609477009E-016
  0.13190000000000002         -1.0304009650548412E-015
  0.13300000000000001         -2.1833210705628806E-015
  0.13410000000000000         -2.4303451776316134E-015
  0.13520000000000004         -1.4824331194394115E-015
  0.13630000000000003          3.6703456500796852E-016
  0.13740000000000002          2.2983123955679740E-015
  0.13850000000000001          3.3181355736004964E-015
  0.13960000000000000          2.7688792958240294E-015
  0.14070000000000005          7.4090845537532713E-016
  0.14180000000000004         -1.8577367994634585E-015
  0.14290000000000003         -3.6743174756561979E-015
  0.14400000000000002         -3.5979889286687082E-015
  0.14510000000000001         -1.4311277023098175E-015
  0.14620000000000000          1.8367074345887635E-015
  0.14730000000000004          4.3832661464660813E-015
  0.14840000000000003          4.4579198219218432E-015
  0.14950000000000002          1.4314442019000392E-015
  0.15060000000000001         -3.5762122038101155E-015
  0.15170000000000000         -7.9361803513258530E-015
  0.15280000000000005         -8.6713174647331784E-015
  0.15390000000000004         -4.0888079215888012E-015
  0.15500000000000003          4.9173170724663568E-015
  0.15610000000000002          1.4681307729503627E-014
  0.15720000000000001          2.0042592940320785E-014
  0.15830000000000000          1.6716052090952748E-014
  0.15940000000000004          3.7379485777721347E-015
  0.16050000000000003         -1.5261430785632237E-014
  0.16160000000000002         -3.2828888131097558E-014
  0.16270000000000001         -4.0484681544001205E-014
  0.16380000000000000         -3.2508023909178880E-014
  0.16490000000000005         -9.0335135982117112E-015
  0.16600000000000004          2.3107725503939128E-014
  0.16710000000000003          5.2464600968521581E-014
  0.16820000000000002          6.7294011845989089E-014
  0.16930000000000001          6.0347338729818392E-014
  0.17040000000000000          3.1987181843168754E-014
  0.17150000000000004         -9.8026044839514243E-015
  0.17260000000000003         -5.2512338838100824E-014
  0.17370000000000002         -8.3817475078579063E-014
  0.17480000000000001         -9.5658382024166224E-014
  0.17590000000000000         -8.5863272966830643E-014
  0.17700000000000005         -5.6920706537454694E-014
  0.17810000000000004         -1.3195381841649648E-014
  0.17920000000000003          4.1157215880761914E-014
  0.18030000000000002          1.0175664095520909E-013
  0.18140000000000001          1.6098148031274495E-013
  0.18250000000000000          2.0450144329822813E-013
  0.18360000000000004          2.1079198961591671E-013
  0.18470000000000003          1.5642392244170333E-013
  0.18580000000000002          2.7202085449707259E-014
  0.18690000000000001         -1.6851153933427309E-013
  0.18800000000000000         -3.9082776945336533E-013
  0.18910000000000005         -5.7041785141436745E-013
  0.19020000000000004         -6.2503770126081805E-013
  0.19130000000000003         -4.8791955910257208E-013
  0.19240000000000002         -1.3926385202997570E-013
  0.19350000000000001          3.7148199745479307E-013
  0.19460000000000005          9.2367683966406256E-013
  0.19570000000000004          1.3489181092263344E-012
  0.19680000000000003          1.4759961534501857E-012
  0.19790000000000002          1.1852434479982066E-012
  0.19900000000000001          4.5585103318668529E-013
  0.20010000000000000         -6.0894983052538175E-013
  0.20120000000000005         -1.7877247426046829E-012
  0.20230000000000004         -2.7781932379300444E-012
  0.20340000000000003         -3.2592444300154920E-012
  0.20450000000000002         -2.9664349769383297E-012
  0.20560000000000000         -1.7683970053533430E-012
  0.20670000000000005          2.6874605180263263E-013
  0.20780000000000004          2.8430021685591448E-012
  0.20890000000000003          5.4202668832225700E-012
  0.21000000000000002          7.2965406977986671E-012
  0.21110000000000001          7.7287595021336542E-012
  0.21220000000000000          6.1282282679754641E-012
  0.21330000000000005          2.2851597564937258E-012
  0.21440000000000003         -3.4349618858041695E-012
  0.21550000000000002         -1.0000224886449187E-011
  0.21660000000000001         -1.5797932884068655E-011
  0.21770000000000000         -1.8932349787628182E-011
  0.21880000000000005         -1.7706535973114653E-011
  0.21990000000000004         -1.1186751329825659E-011
  0.22100000000000003          3.0971359356834960E-013
  0.22210000000000002          1.4977841430898379E-011
  0.22320000000000001          2.9671873444116426E-011
  0.22430000000000000          4.0472840215557524E-011
  0.22540000000000004          4.3589287981417230E-011
  0.22650000000000003          3.6389498028157368E-011
  0.22760000000000002          1.8298859797265410E-011
  0.22870000000000001         -8.6939947391495182E-012
  0.22980000000000000         -4.0093478262012152E-011
  0.23090000000000005         -6.9550986236938450E-011
  0.23200000000000004         -9.0006615329492015E-011
  0.23310000000000003         -9.5096324909770859E-011
  0.23420000000000002         -8.0550686076794961E-011
  0.23530000000000001         -4.5324497142930273E-011
  0.23640000000000000          7.7422849336759295E-012
  0.23750000000000004          7.1851818324230714E-011
  0.23860000000000003          1.3680846192660808E-010
  0.23970000000000002          1.9019644837928820E-010
  0.24080000000000001          2.1910647685870148E-010
  0.24190000000000000          2.1227737741793075E-010
  0.24300000000000005          1.6243016950893354E-010
  0.24410000000000004          6.8463737048793220E-011
  0.24520000000000003         -6.2913468402750406E-011
  0.24630000000000002         -2.1657629345287124E-010
  0.24740000000000001         -3.6978977812537606E-010
  0.24850000000000005         -4.9462010464464470E-010
  0.24960000000000004         -5.6183264916932716E-010
  0.25070000000000003         -5.4580611683682286E-010
  0.25180000000000002         -4.2968946242176332E-010
  0.25290000000000001         -2.0986538771033422E-010
  0.25400000000000000          1.0117307375490352E-010
  0.25510000000000005          4.7417344139785619E-010
  0.25620000000000004          8.6494043818371911E-010
  0.25730000000000003          1.2184155074779597E-009
  0.25840000000000002          1.4744557229263610E-009
  0.25950000000000001          1.5745777804420912E-009
  0.26060000000000005          1.4689768866688225E-009
  0.26170000000000004          1.1233482817460338E-009
  0.26280000000000003          5.2530611010048327E-010
  0.26390000000000002         -3.0964865628720911E-010
  0.26500000000000001         -1.3327430286694357E-009
  0.26610000000000000         -2.4576428020808848E-009
  0.26720000000000005         -3.5583732927335788E-009
  0.26830000000000004         -4.4711741259270946E-009
  0.26940000000000003         -5.0023498980700600E-009
  0.27050000000000002         -4.9439284874116154E-009
  0.27160000000000001         -4.0979752177254350E-009
  0.27270000000000005         -2.3087298949624892E-009
  0.27380000000000004          5.0029071027635318E-010
  0.27490000000000003          4.2889744540686124E-009
  0.27600000000000002          8.8689293214210650E-009
  0.27710000000000001          1.3883097532291903E-008
  0.27820000000000000          1.8800652083284851E-008
  0.27930000000000005          2.2928189729085462E-008
  0.28040000000000004          2.5434621780187275E-008
  0.28150000000000003          2.5383754686202079E-008
  0.28260000000000002          2.1766300939380639E-008
  0.28370000000000001          1.3522408582284312E-008
  0.28480000000000005         -4.5307986942613548E-010
  0.28590000000000004         -2.1328045982627982E-008
  0.28700000000000003         -5.0375802727191295E-008
  0.28810000000000002         -8.9043386118319448E-008
  0.28920000000000001         -1.3904470897038560E-007
  0.29030000000000000         -2.0247774449276467E-007
  0.29140000000000005         -2.8196622620246189E-007
  0.29250000000000004         -3.8082684233033542E-007
  0.29360000000000003         -5.0326337512253711E-007
  0.29470000000000002         -6.5458902785818938E-007
  0.29580000000000001         -8.4147569572361489E-007
  0.29690000000000005         -1.0722288161518974E-006
  0.29800000000000004         -1.3570864465161959E-006
  0.29910000000000003         -1.7085434475033256E-006
  0.30020000000000002         -2.1417063811355053E-006
  0.30130000000000001         -2.6746943091939900E-006
  0.30240000000000000         -3.3291009244254460E-006
  0.30350000000000005         -4.1305429484324222E-006
  0.30460000000000004         -5.1093127170222818E-006
  0.30570000000000003         -6.3011539888119203E-006
  0.30680000000000002         -7.7481631736862525E-006
  0.30790000000000001         -9.4998169983646368E-006
  0.30900000000000005         -1.1614114921230366E-005
  0.31010000000000004         -1.4158820286614952E-005
  0.31120000000000003         -1.7212793727545323E-005
  0.31230000000000002         -2.0867414426710080E-005
  0.31340000000000001         -2.5228079613165093E-005
  0.31450000000000006         -3.0415831126530472E-005
  0.31560000000000005         -3.6569063710834204E-005
  0.31670000000000004         -4.3845371069263273E-005
  0.31780000000000003         -5.2423498604399795E-005
  0.31890000000000002         -6.2505410985317188E-005
  0.32000000000000001         -7.4318395784303174E-005
  0.32110000000000005         -8.8117221458484116E-005
  0.32220000000000004         -1.0418618937494477E-004
  0.32330000000000003         -1.2284108869126375E-004
  0.32440000000000002         -1.4443105110174424E-004
  0.32550000000000001         -1.6933996231752657E-004
  0.32660000000000006         -1.9798778940252073E-004
  0.32770000000000005         -2.3083134949980627E-004
  0.32880000000000004         -2.6836469657523325E-004
  0.32990000000000003         -3.1111881222160365E-004
  0.33100000000000002         -3.5966075108344542E-004
  0.33210000000000001         -4.1459187885918678E-004
  0.33320000000000005         -4.7654510856534729E-004
  0.33430000000000004         -5.4618131000312860E-004
  0.33540000000000003         -6.2418420876645926E-004
  0.33650000000000002         -7.1125465564985031E-004
  0.33760000000000001         -8.0810333885135790E-004
  0.33870000000000006         -9.1544192773068038E-004
  0.33980000000000005         -1.0339731290251817E-003
  0.34090000000000004         -1.1643789819180054E-003
  0.34200000000000003         -1.3073076740386996E-003
  0.34310000000000002         -1.4633593221094283E-003
  0.34420000000000001         -1.6330691860376280E-003
  0.34530000000000005         -1.8168894801218946E-003
  0.34640000000000004         -2.0151707426121820E-003
  0.34750000000000003         -2.2281412105776754E-003
  0.34860000000000002         -2.4558863923720906E-003
  0.34970000000000001         -2.6983269787532690E-003
  0.35080000000000006         -2.9551977723195405E-003
  0.35190000000000005         -3.2260266818755568E-003
  0.35300000000000004         -3.5101136510702988E-003
  0.35410000000000003         -3.8065125252661034E-003
  0.35520000000000002         -4.1140125892293374E-003
  0.35630000000000001         -4.4311226922456948E-003
  0.35740000000000005         -4.7560601312526193E-003
  0.35850000000000004         -5.0867392732085728E-003
  0.35960000000000003         -5.4207686906952010E-003
  0.36070000000000002         -5.7554487514040993E-003
  0.36180000000000001         -6.0877762449753426E-003
  0.36290000000000006         -6.4144522761145472E-003
  0.36400000000000005         -6.7318987023873072E-003
  0.36510000000000004         -7.0362807291782887E-003
  0.36620000000000003         -7.3235327974281372E-003
  0.36730000000000002         -7.5893962816892275E-003
  0.36840000000000006         -7.8294583491066317E-003
  0.36950000000000005         -8.0391994544092363E-003
  0.37060000000000004         -8.2140513892690632E-003
  0.37170000000000003         -8.3494498204147328E-003
  0.37280000000000002         -8.4409026313394409E-003
  0.37390000000000001         -8.4840563826636354E-003
  0.37500000000000006         -8.4747703411805590E-003
  0.37610000000000005         -8.4091869263996383E-003
  0.37720000000000004         -8.2838028001917668E-003
  0.37830000000000003         -8.0955480499022587E-003
  0.37940000000000002         -7.8418522778887535E-003
  0.38050000000000006         -7.5207155986590120E-003
  0.38160000000000005         -7.1307694058405533E-003
  0.38270000000000004         -6.6713322495119366E-003
  0.38380000000000003         -6.1424596715867717E-003
  0.38490000000000002         -5.5449840639314662E-003
  0.38600000000000001         -4.8805442818242555E-003
  0.38710000000000000         -4.1516035485000746E-003
  0.38819999999999999         -3.3614565202546441E-003
  0.38930000000000009         -2.5142211646006023E-003
  0.39040000000000008         -1.6148169888338189E-003
  0.39150000000000007         -6.6893020365948173E-004
  0.39260000000000006          3.1703355666784863E-004
  0.39370000000000005          1.3360103025423294E-003
  0.39480000000000004          2.3803503450831294E-003
  0.39590000000000003          3.4419012483290737E-003
  0.39700000000000002          4.5121060719916332E-003
  0.39810000000000001          5.5821053230355813E-003
  0.39920000000000000          6.6428490443334806E-003
  0.40029999999999999          7.6852145688144653E-003
  0.40140000000000009          8.7001234755313666E-003
  0.40250000000000008          9.6786657208504726E-003
  0.40360000000000007          1.0612214714040065E-002
  0.40470000000000006          1.1492544970464475E-002
  0.40580000000000005          1.2311943234568749E-002
  0.40690000000000004          1.3063318416994783E-002
  0.40800000000000003          1.3740286644524775E-002
  0.40910000000000002          1.4337265656161197E-002
  0.41020000000000001          1.4849537153887562E-002
  0.41130000000000000          1.5273306779050661E-002
  0.41239999999999999          1.5605745973629098E-002
  0.41350000000000009          1.5845025069840750E-002
  0.41460000000000008          1.5990325823189686E-002
  0.41570000000000007          1.6041828678657246E-002
  0.41680000000000006          1.6000707549906477E-002
  0.41790000000000005          1.5869093258385283E-002
  0.41900000000000004          1.5650017322551411E-002
  0.42010000000000003          1.5347364578046360E-002
  0.42120000000000002          1.4965787820579075E-002
  0.42230000000000001          1.4510634919682264E-002
  0.42340000000000000          1.3987856808846840E-002
  0.42449999999999999          1.3403916911666799E-002
  0.42560000000000009          1.2765691961160916E-002
  0.42670000000000008          1.2080363740665692E-002
  0.42780000000000007          1.1355321927700683E-002
  0.42890000000000006          1.0598049454134447E-002
  0.43000000000000005          9.8160349094486236E-003
  0.43110000000000004          9.0166700273379870E-003
  0.43220000000000003          8.2071692918190536E-003
  0.43330000000000002          7.3944823719032876E-003
  0.43440000000000001          6.5852254150850654E-003
  0.43550000000000000          5.7856097884230549E-003
  0.43659999999999999          5.0013863379214660E-003
  0.43770000000000009          4.2377986936240836E-003
  0.43880000000000008          3.4995534508897846E-003
  0.43990000000000007          2.7907948847664295E-003
  0.44100000000000006          2.1150934949242619E-003
  0.44210000000000005          1.4754407802891401E-003
  0.44320000000000004          8.7425147708124619E-004
  0.44430000000000003          3.1337249414796503E-004
  0.44540000000000002         -2.0589898326361120E-004
  0.44650000000000001         -6.8278888298481583E-004
  0.44760000000000000         -1.1170129963763034E-003
  0.44869999999999999         -1.5087376435765423E-003
  0.44980000000000009         -1.8585394512823285E-003
  0.45090000000000008         -2.1673633137742894E-003
  0.45200000000000007         -2.4364800484434246E-003
  0.45310000000000006         -2.6674437736677252E-003
  0.45420000000000005         -2.8620469446377214E-003
  0.45530000000000004         -3.0222744326619854E-003
  0.45640000000000003         -3.1502578552770151E-003
  0.45750000000000002         -3.2482333422232555E-003
  0.45860000000000001         -3.3185029101098495E-003
  0.45970000000000000         -3.3634016335937671E-003
  0.46079999999999999         -3.3852679573183882E-003
  0.46190000000000009         -3.3864165876250000E-003
  0.46300000000000008         -3.3691136507622930E-003
  0.46410000000000007         -3.3355528782393648E-003
  0.46520000000000006         -3.2878353413509469E-003
  0.46630000000000005         -3.2279548089931328E-003
  0.46740000000000004         -3.1577856749418123E-003
  0.46850000000000003         -3.0790771754922058E-003
  0.46960000000000002         -2.9934483679071740E-003
  0.47070000000000001         -2.9023849230496732E-003
  0.47180000000000000         -2.8072389097466952E-003
  0.47289999999999999         -2.7092289285127013E-003
  0.47400000000000009         -2.6094426252934897E-003
  0.47510000000000008         -2.5088417289349427E-003
  0.47620000000000007         -2.4082695381104041E-003
  0.47730000000000006         -2.3084569063728387E-003
  0.47840000000000005         -2.2100312998911405E-003