 -0.119999997         0.00000000    
 -0.119000003         0.00000000    
 -0.118000001         0.00000000    
 -0.116999999         0.00000000    
 -0.115999997         0.00000000    
 -0.115000002         0.00000000    
 -0.114000000         0.00000000    
 -0.112999998         0.00000000    
 -0.112000003         0.00000000    
 -0.111000001         0.00000000    
 -0.109999999         0.00000000    
 -0.108999997         0.00000000    
 -0.108000003         0.00000000    
 -0.107000001         0.00000000    
 -0.105999999         0.00000000    
 -0.104999997         0.00000000    
 -0.104000002         0.00000000    
 -0.103000000         0.00000000    
 -0.101999998         0.00000000    
 -0.101000004         0.00000000    
 -0.100000001         0.00000000    
  -9.89999995E-02     0.00000000    
  -9.79999974E-02     0.00000000    
  -9.70000029E-02     0.00000000    
  -9.60000008E-02     0.00000000    
  -9.49999988E-02     0.00000000    
  -9.39999968E-02     0.00000000    
  -9.30000022E-02     0.00000000    
  -9.20000002E-02     0.00000000    
  -9.09999982E-02     0.00000000    
  -9.00000036E-02     0.00000000    
  -8.90000015E-02     0.00000000    
  -8.79999995E-02     0.00000000    
  -8.69999975E-02     0.00000000    
  -8.60000029E-02     0.00000000    
  -8.50000009E-02     0.00000000    
  -8.39999989E-02     0.00000000    
  -8.29999968E-02     0.00000000    
  -8.20000023E-02     0.00000000    
  -8.10000002E-02     0.00000000    
  -7.99999982E-02     0.00000000    
  -7.90000036E-02     0.00000000    
  -7.80000016E-02     0.00000000    
  -7.69999996E-02     0.00000000    
  -7.59999976E-02     0.00000000    
  -7.50000030E-02     0.00000000    
  -7.40000010E-02     0.00000000    
  -7.29999989E-02     0.00000000    
  -7.19999969E-02     0.00000000    
  -7.10000023E-02     0.00000000    
  -7.00000003E-02     0.00000000    
  -6.89999983E-02     0.00000000    
  -6.80000037E-02     0.00000000    
  -6.70000017E-02     0.00000000    
  -6.59999996E-02     0.00000000    
  -6.49999976E-02     0.00000000    
  -6.40000030E-02     0.00000000    
  -6.30000010E-02     0.00000000    
  -6.19999990E-02     0.00000000    
  -6.10000007E-02     0.00000000    
  -5.99999987E-02     0.00000000    
  -5.90000004E-02     0.00000000    
  -5.79999983E-02     0.00000000    
  -5.70000000E-02     0.00000000    
  -5.60000017E-02     0.00000000    
  -5.49999997E-02     0.00000000    
  -5.40000014E-02     0.00000000    
  -5.29999994E-02     0.00000000    
  -5.20000011E-02     0.00000000    
  -5.09999990E-02     0.00000000    
  -5.00000007E-02     0.00000000    
  -4.89999987E-02     0.00000000    
  -4.80000004E-02     0.00000000    
  -4.69999984E-02     0.00000000    
  -4.60000001E-02     0.00000000    
  -4.50000018E-02     0.00000000    
  -4.39999998E-02     0.00000000    
  -4.30000015E-02     0.00000000    
  -4.19999994E-02     0.00000000    
  -4.10000011E-02     0.00000000    
  -3.99999991E-02     0.00000000    
  -3.90000008E-02     0.00000000    
  -3.79999988E-02     0.00000000    
  -3.70000005E-02     0.00000000    
  -3.59999985E-02     0.00000000    
  -3.50000001E-02     0.00000000    
  -3.40000018E-02     0.00000000    
  -3.29999998E-02     0.00000000    
  -3.20000015E-02     0.00000000    
  -3.09999995E-02     0.00000000    
  -2.99999993E-02     0.00000000    
  -2.89999992E-02    -0.00000000    
  -2.80000009E-02     0.00000000    
  -2.70000007E-02     0.00000000    
  -2.60000005E-02     0.00000000    
  -2.50000004E-02     0.00000000    
  -2.40000002E-02    -0.00000000    
  -2.30000000E-02    -0.00000000    
  -2.19999999E-02    -0.00000000    
  -2.09999997E-02    -0.00000000    
  -1.99999996E-02    -2.14987729E-38
  -1.89999994E-02    -5.46824720E-38
  -1.79999992E-02    -8.27191864E-38
  -1.70000009E-02    -4.42361114E-38
  -1.60000008E-02     9.77042126E-38
  -1.49999997E-02     3.28946026E-37
  -1.40000004E-02     5.10740690E-37
  -1.30000003E-02     4.34191993E-37
  -1.20000001E-02    -1.08539164E-37
  -1.09999999E-02    -1.14523859E-36
  -9.99999978E-03    -2.33633915E-36
  -8.99999961E-03    -2.80128415E-36
  -8.00000038E-03    -1.33170276E-36
  -7.00000022E-03     2.97224597E-36
  -6.00000005E-03     9.57068430E-36
  -4.99999989E-03     1.52653869E-35
  -4.00000019E-03     1.40755562E-35
  -3.00000003E-03    -6.63564597E-37
  -2.00000009E-03    -3.12299232E-35
  -1.00000005E-03    -6.86827057E-35
   0.00000000        -8.83885713E-35
   1.00000005E-03    -5.42622427E-35
   2.00000009E-03     6.26166326E-35
   3.00000003E-03     2.51796630E-34
   4.00000019E-03     4.30890679E-34
   4.99999989E-03     4.39917786E-34
   6.00000005E-03     9.48190420E-35
   7.00000022E-03    -6.84493804E-34
   8.00000038E-03    -1.70297356E-33
   8.99999961E-03    -2.37440804E-33
   9.99999978E-03    -1.80988606E-33
   1.09999999E-02     7.61756844E-34
   1.20000001E-02     5.26076554E-33
   1.30000003E-02     1.00002875E-32
   1.40000004E-02     1.14887293E-32
   1.49999997E-02     5.47101960E-33
   1.60000008E-02    -1.04611099E-32
   1.70000009E-02    -3.32902175E-32
   1.79999992E-02    -5.19269457E-32
   1.89999994E-02    -4.83819839E-32
   1.99999996E-02    -5.26354081E-33
   2.09999997E-02     8.05323304E-32
   2.19999999E-02     1.82905228E-31
   2.30000000E-02     2.40592896E-31
   2.40000002E-02     1.72324756E-31
   2.50000004E-02    -8.02685436E-32
   2.60000005E-02    -4.90426211E-31
   2.70000007E-02    -8.94450861E-31
   2.80000009E-02    -9.96873564E-31
   2.89999992E-02    -4.75390980E-31
   2.99999993E-02     8.09683142E-31
   3.09999995E-02     2.56856744E-30
   3.20000015E-02     3.94498387E-30
   3.29999998E-02     3.67303805E-30
   3.40000018E-02     6.45791770E-31
   3.50000001E-02    -5.18785379E-30
   3.59999985E-02    -1.19765706E-29
   3.70000005E-02    -1.57999155E-29
   3.79999988E-02    -1.18079419E-29
   3.90000008E-02     3.14951668E-30
   3.99999991E-02     2.71163383E-29
   4.10000011E-02     5.06135894E-29
   4.19999994E-02     5.75787211E-29
   4.30000015E-02     3.14306591E-29
   4.39999998E-02    -3.41946635E-29
   4.50000018E-02    -1.23973218E-28
   4.60000001E-02    -1.95861875E-28
   4.69999984E-02    -1.90327066E-28
   4.80000004E-02    -5.74928547E-29
   4.89999987E-02     2.03558999E-28
   5.00000007E-02     5.11037903E-28
   5.09999990E-02     6.98114360E-28
   5.20000011E-02     5.64388378E-28
   5.29999994E-02    -1.69536453E-29
   5.40000014E-02    -9.69458245E-28
   5.49999997E-02    -1.93041698E-27
   5.60000017E-02    -2.29795759E-27
   5.70000000E-02    -1.46082769E-27
   5.79999983E-02     8.20557186E-28
   5.90000004E-02     4.02957739E-27
   5.99999987E-02     6.74701408E-27
   6.10000007E-02     6.98199602E-27
   6.19999990E-02     3.06370445E-27
   6.30000010E-02    -5.12541342E-27
   6.40000030E-02    -1.51401236E-26
   6.49999976E-02    -2.19485232E-26
   6.59999996E-02    -1.94918439E-26
   6.70000017E-02    -3.79321532E-27
   6.80000037E-02     2.33977516E-26
   6.89999983E-02     5.23524582E-26
   7.00000003E-02     6.66786283E-26
   7.10000023E-02     4.94296453E-26
   7.19999969E-02    -7.00064981E-27
   7.29999989E-02    -9.10718221E-26
   7.40000010E-02    -1.68346751E-25
   7.50000030E-02    -1.89387581E-25
   7.59999976E-02    -1.10924456E-25
   7.69999996E-02     7.51614283E-26
   7.80000016E-02     3.18103575E-25
   7.90000036E-02     5.06654643E-25
   7.99999982E-02     5.02285143E-25
   8.10000002E-02     2.05847694E-25
   8.20000023E-02    -3.64078512E-25
   8.29999968E-02    -1.02106576E-24
   8.39999989E-02    -1.43269496E-24
   8.50000009E-02    -1.23823680E-24
   8.60000029E-02    -2.42096605E-25
   8.69999975E-02     1.39114398E-24
   8.79999995E-02     3.05196026E-24
   8.90000015E-02     3.81450890E-24
   9.00000036E-02     2.80900056E-24
   9.09999982E-02    -2.57329879E-25
   9.20000002E-02    -4.65675952E-24
   9.30000022E-02    -8.56470387E-24
   9.39999968E-02    -9.56758116E-24
   9.49999988E-02    -5.74157895E-24
   9.60000008E-02     3.04120059E-24
   9.70000029E-02     1.42102721E-23
   9.79999974E-02     2.26905837E-23
   9.89999995E-02     2.25832370E-23
  0.100000001         1.00649785E-23
  0.101000004        -1.35647946E-23
  0.101999998        -4.03199494E-23
  0.103000000        -5.69702093E-23
  0.104000002        -5.00098686E-23
  0.104999997        -1.29415022E-23
  0.105999999         4.71409361E-23
  0.107000001         1.07591060E-22
  0.108000003         1.35914776E-22
  0.108999997         1.03256661E-22
  0.109999999         1.56553933E-24
  0.111000001        -1.43383030E-22
  0.112000003        -2.71899427E-22
  0.112999998        -3.08581434E-22
  0.114000000        -1.96401033E-22
  0.115000002         6.53073268E-23
  0.115999997         3.97854816E-22
  0.116999999         6.53529684E-22
  0.118000001         6.66879482E-22
  0.119000003         3.35569337E-22
  0.119999997        -3.00831033E-22
  0.120999999        -1.02688768E-21
  0.122000001        -1.49739189E-21
  0.123000003        -1.36950625E-21
  0.123999998        -4.83540837E-22
  0.125000000         9.84843540E-22
  0.126000002         2.49177052E-21
  0.127000004         3.27286853E-21
  0.128000006         2.66013651E-21
  0.128999993         4.63503315E-22
  0.129999995        -2.75888988E-21
  0.130999997        -5.72225574E-21
  0.131999999        -6.82071565E-21
  0.133000001        -4.84122277E-21
  0.134000003         2.76557821E-22
  0.135000005         7.01150922E-21
  0.136000007         1.24984123E-20
  0.136999995         1.35358648E-20
  0.137999997         8.10656307E-21
  0.138999999        -3.19907598E-21
  0.140000001        -1.66181328E-20
  0.141000003        -2.60820581E-20
  0.142000005        -2.55415149E-20
  0.143000007        -1.20372599E-20
  0.143999994         1.18068004E-20
  0.144999996         3.73222891E-20
  0.145999998         5.22486986E-20
  0.147000000         4.57773933E-20
  0.148000002         1.44470083E-20
  0.149000004        -3.38254864E-20
  0.150000006        -8.01916319E-20
  0.150999993        -1.00949904E-19
  0.151999995        -7.79190178E-20
  0.152999997        -9.19868220E-21
  0.153999999         8.49626999E-20
  0.155000001         1.65596854E-19
  0.156000003         1.88792200E-19
  0.157000005         1.26000868E-19
  0.158000007        -1.73208583E-20
  0.158999994        -1.94485478E-19
  0.159999996        -3.28637100E-19
  0.160999998        -3.41862012E-19
  0.162000000        -1.93088822E-19
  0.163000003         9.14327127E-20
  0.164000005         4.12138682E-19
  0.165000007         6.24352773E-19
  0.165999994         5.96224031E-19
  0.166999996         2.76120333E-19
  0.167999998        -2.60895841E-19
  0.169000000        -8.15738275E-19
  0.170000002        -1.12876984E-18
  0.171000004        -9.89092429E-19
  0.172000006        -3.48433160E-19
  0.172999993         6.14439427E-19
  0.173999995         1.52255020E-18
  0.174999997         1.93231976E-18
  0.175999999         1.52990601E-18
  0.177000001         3.13357057E-19
  0.178000003        -1.33099327E-18
  0.179000005        -2.72065122E-18
  0.180000007        -3.13400681E-18
  0.180999994        -2.14790970E-18
  0.181999996         8.79856379E-20
  0.182999998         2.78778271E-18
  0.184000000         4.75775263E-18
  0.185000002         4.87567302E-18
  0.186000004         2.64922169E-18
  0.187000006        -1.39721879E-18
  0.187999994        -5.73423025E-18
  0.188999996        -8.32562994E-18
  0.189999998        -7.48800535E-18
  0.191000000        -2.78355044E-18
  0.192000002         4.47353999E-18
  0.193000004         1.14286260E-17
  0.194000006         1.46808214E-17
  0.194999993         1.17667335E-17
  0.195999995         2.54231087E-18
  0.196999997        -1.02123536E-17
  0.197999999        -2.14227603E-17
  0.199000001        -2.55606998E-17
  0.200000003        -1.90990097E-17
  0.201000005        -2.56899985E-18
  0.202000007         1.88177783E-17
  0.202999994         3.65681858E-17
  0.203999996         4.20918928E-17
  0.204999998         3.05617329E-17
  0.206000000         3.80833623E-18
  0.207000002        -2.92646641E-17
  0.208000004        -5.54016921E-17
  0.209000006        -6.21833952E-17
  0.209999993        -4.37478025E-17
  0.210999995        -4.50952607E-18
  0.211999997         4.11892733E-17
  0.213000000         7.40436564E-17
  0.214000002         7.78623655E-17
  0.215000004         4.75308469E-17
  0.216000006        -6.88567104E-18
  0.216999993        -6.25017803E-17
  0.217999995        -9.24587549E-17
  0.218999997        -7.82207398E-17
  0.219999999        -2.00880365E-17
  0.221000001         5.94343233E-17
  0.222000003         1.22394117E-16
  0.223000005         1.31016171E-16
  0.224000007         6.64791426E-17
  0.224999994        -5.74879011E-17
  0.225999996        -1.93729088E-16
  0.226999998        -2.76570022E-16
  0.228000000        -2.48806055E-16
  0.229000002        -9.07137942E-17
  0.230000004         1.61894360E-16
  0.231000006         4.21072625E-16
  0.231999993         5.74368965E-16
  0.232999995         5.29040632E-16
  0.233999997         2.56393670E-16
  0.234999999        -1.83216125E-16
  0.236000001        -6.49017608E-16
  0.237000003        -9.64032655E-16
  0.238000005        -9.81605730E-16
  0.238999993        -6.49293741E-16
  0.239999995        -4.26635606E-17
  0.240999997         6.49278494E-16
  0.241999999         1.18685367E-15
  0.243000001         1.36969082E-15
  0.244000003         1.11868753E-15
  0.245000005         5.14261548E-16
  0.246000007        -2.29483698E-16
  0.246999994        -8.48837127E-16
  0.247999996        -1.14030826E-15
  0.248999998        -1.04872600E-15
  0.250000000        -6.91160886E-16
  0.250999987        -2.99603018E-16
  0.252000004        -1.01975680E-16
  0.252999991        -1.93405164E-16
  0.254000008        -4.61839315E-16
  0.254999995        -6.15318508E-16
  0.256000012        -3.15815943E-16
  0.256999999         6.27473008E-16
  0.257999986         2.09126908E-15
  0.259000003         3.58851734E-15
  0.259999990         4.38933744E-15
  0.261000007         3.79646562E-15
  0.261999995         1.48335216E-15
  0.263000011        -2.24522706E-15
  0.263999999        -6.40443390E-15
  0.264999986        -9.56029147E-15
  0.266000003        -1.02997902E-14
  0.266999990        -7.79030008E-15
  0.268000007        -2.21505532E-15
  0.268999994         5.11165114E-15
  0.270000011         1.20446543E-14
  0.270999998         1.62640778E-14
  0.272000015         1.60784997E-14
  0.273000002         1.10844019E-14
  0.273999989         2.41863461E-15
  0.275000006        -7.52305356E-15
  0.275999993        -1.58296617E-14
  0.277000010        -2.00252785E-14
  0.277999997        -1.88791718E-14
  0.279000014        -1.27743055E-14
  0.280000001        -3.50402390E-15
  0.280999988         6.40331794E-15
  0.282000005         1.45404708E-14
  0.282999992         1.93008637E-14
  0.284000009         2.01198836E-14
  0.284999996         1.72370205E-14
  0.286000013         1.11856088E-14
  0.287000000         2.36953613E-15
  0.287999988        -8.94463997E-15
  0.289000005        -2.21155508E-14
  0.289999992        -3.53202744E-14
  0.291000009        -4.49603699E-14
  0.291999996        -4.58607456E-14
  0.293000013        -3.26178802E-14
  0.294000000        -1.96907865E-15
  0.294999987         4.45205667E-14
  0.296000004         9.85748619E-14
  0.296999991         1.45278537E-13
  0.298000008         1.65793757E-13
  0.298999995         1.42539328E-13
  0.300000012         6.56445655E-14
  0.300999999        -6.12771417E-14
  0.301999986        -2.18178597E-13
  0.303000003        -3.70049152E-13
  0.303999990        -4.73215868E-13
  0.305000007        -4.85418129E-13
  0.305999994        -3.77330627E-13
  0.307000011        -1.42580284E-13
  0.307999998         1.96456051E-13
  0.308999985         5.88762383E-13
  0.310000002         9.60946383E-13
  0.310999990         1.22851891E-12
  0.312000006         1.31017853E-12
  0.312999994         1.14287453E-12
  0.314000010         6.95743539E-13
  0.314999998        -1.85187830E-14
  0.316000015        -9.36067521E-13
  0.317000002        -1.93957112E-12
  0.317999989        -2.86313551E-12
  0.319000006        -3.50684542E-12
  0.319999993        -3.66271987E-12
  0.321000010        -3.15196437E-12
  0.321999997        -1.87010433E-12
  0.323000014         1.67390366E-13
  0.324000001         2.78978837E-12
  0.324999988         5.65825251E-12
  0.326000005         8.28579132E-12
  0.326999992         1.00949813E-11
  0.328000009         1.05103599E-11
  0.328999996         9.07336099E-12
  0.330000013         5.56010316E-12
  0.331000000         7.83003626E-14
  0.331999987        -6.87947399E-12
  0.333000004        -1.44430717E-11
  0.333999991        -2.14399210E-11
  0.335000008        -2.65341134E-11
  0.335999995        -2.84149804E-11
  0.337000012        -2.60124526E-11
  0.338000000        -1.87115531E-11
  0.338999987        -6.53645757E-12
  0.340000004         9.72478261E-12
  0.340999991         2.84809086E-11
  0.342000008         4.74044207E-11
  0.342999995         6.36175071E-11
  0.344000012         7.39973083E-11
  0.344999999         7.55842611E-11
  0.345999986         6.60573818E-11
  0.347000003         4.42201033E-11
  0.347999990         1.04244235E-11
  0.349000007        -3.31460207E-11
  0.349999994        -8.24068244E-11
  0.351000011        -1.31569783E-10
  0.351999998        -1.73624184E-10
  0.352999985        -2.01079042E-10
  0.354000002        -2.06900261E-10
  0.354999989        -1.85541249E-10
  0.356000006        -1.33942593E-10
  0.356999993        -5.23698272E-11
  0.358000010         5.50319165E-11
  0.358999997         1.80064283E-10
  0.360000014         3.10747456E-10
  0.361000001         4.32062247E-10
  0.361999989         5.27144606E-10
  0.363000005         5.78870230E-10
  0.363999993         5.71723446E-10
  0.365000010         4.93803221E-10
  0.365999997         3.38784695E-10
  0.367000014         1.07631140E-10
  0.368000001        -1.90154642E-10
  0.368999988        -5.35936517E-10
  0.370000005        -9.02169506E-10
  0.370999992        -1.25354738E-09
  0.372000009        -1.54910773E-09
  0.372999996        -1.74525039E-09
  0.374000013        -1.79954462E-09
  0.375000000        -1.67512382E-09
  0.375999987        -1.34539091E-09
  0.377000004        -7.98693611E-10
  0.377999991        -4.25665857E-11
  0.379000008         8.92904140E-10
  0.379999995         1.95305816E-09
  0.381000012         3.05842440E-09
  0.381999999         4.10664835E-09
  0.382999986         4.97682962E-09
  0.384000003         5.53634649E-09
  0.384999990         5.65001734E-09
  0.386000007         5.19123056E-09
  0.386999995         4.05446299E-09
  0.388000011         2.16844565E-09
  0.388999999        -4.90845864E-10
  0.389999986        -3.88821197E-09
  0.391000003        -7.91900856E-09
  0.391999990        -1.24012880E-08
  0.393000007        -1.70706862E-08
  0.393999994        -2.15781828E-08
  0.395000011        -2.54905324E-08
  0.395999998        -2.82927797E-08
  0.397000015        -2.93919502E-08
  0.398000002        -2.81205015E-08
  0.398999989        -2.37378135E-08
  0.400000006        -1.54276272E-08
  0.400999993        -2.28917374E-09
  0.402000010         1.66802234E-08
  0.402999997         4.26132196E-08
  0.404000014         7.68129098E-08
  0.405000001         1.20806860E-07
  0.405999988         1.76415824E-07
  0.407000005         2.45837299E-07
  0.407999992         3.31744729E-07
  0.409000009         4.37402264E-07
  0.409999996         5.66796302E-07
  0.411000013         7.24784684E-07
  0.412000000         9.17265595E-07
  0.412999988         1.15136834E-06
  0.414000005         1.43566967E-06
  0.414999992         1.78043854E-06
  0.416000009         2.19791309E-06
  0.416999996         2.70261557E-06
  0.418000013         3.31171054E-06
  0.419000000         4.04540924E-06
  0.419999987         4.92742856E-06
  0.421000004         5.98550923E-06
  0.421999991         7.25199743E-06
  0.423000008         8.76449849E-06
  0.423999995         1.05666013E-05
  0.425000012         1.27086887E-05
  0.425999999         1.52488246E-05
  0.426999986         1.82537278E-05
  0.428000003         2.17998295E-05
  0.428999990         2.59744284E-05
  0.430000007         3.08769231E-05
  0.430999994         3.66201421E-05
  0.432000011         4.33317291E-05
  0.432999998         5.11556354E-05
  0.433999985         6.02536529E-05
  0.435000002         7.08070147E-05
  0.435999990         8.30180361E-05
  0.437000006         9.71117770E-05
  0.437999994         1.13337679E-04
  0.439000010         1.31971188E-04
  0.439999998         1.53315312E-04
  0.441000015         1.77702052E-04
  0.442000002         2.05493663E-04
  0.442999989         2.37083761E-04
  0.444000006         2.72898120E-04
  0.444999993         3.13395198E-04
  0.446000010         3.59066209E-04
  0.446999997         4.10434994E-04
  0.448000014         4.68057056E-04
  0.449000001         5.32518374E-04
  0.449999988         6.04433240E-04
  0.451000005         6.84441591E-04
  0.451999992         7.73205480E-04
  0.453000009         8.71404831E-04
  0.453999996         9.79731907E-04
  0.455000013         1.09888520E-03
  0.456000000         1.22956233E-03
  0.456999987         1.37245131E-03
  0.458000004         1.52822153E-03
  0.458999991         1.69751293E-03
  0.460000008         1.88092445E-03
  0.460999995         2.07900163E-03
  0.462000012         2.29222304E-03
  0.463000000         2.52098613E-03
  0.463999987         2.76559149E-03
  0.465000004         3.02622770E-03
  0.465999991         3.30295460E-03
  0.467000008         3.59568722E-03
  0.467999995         3.90417920E-03
  0.469000012         4.22800658E-03
  0.469999999         4.56655305E-03
  0.470999986         4.91899438E-03
  0.472000003         5.28428517E-03
  0.472999990         5.66114672E-03
  0.474000007         6.04805816E-03
  0.474999994         6.44324627E-03
  0.476000011         6.84468122E-03
  0.476999998         7.25007523E-03
  0.477999985         7.65688252E-03
  0.479000002         8.06230493E-03
  0.479999989         8.46329797E-03
  0.481000006         8.85658525E-03
  0.481999993         9.23867337E-03
  0.483000010         9.60587617E-03
  0.483999997         9.95433703E-03
  0.485000014         1.02800587E-02
  0.486000001         1.05789397E-02
  0.486999989         1.08468113E-02
  0.488000005         1.10794790E-02
  0.488999993         1.12727685E-02
  0.490000010         1.14225745E-02
  0.490999997         1.15249110E-02
  0.492000014         1.15759643E-02
  0.493000001         1.15721468E-02
  0.493999988         1.15101542E-02
  0.495000005         1.13870148E-02
  0.495999992         1.12001449E-02
  0.497000009         1.09474007E-02
  0.497999996         1.06271226E-02
  0.499000013         1.02381837E-02
  0.500000000         9.78002325E-03
  0.500999987         9.25268605E-03
  0.501999974         8.65684636E-03
  0.503000021         7.99382851E-03
  0.504000008         7.26561947E-03
  0.504999995         6.47487259E-03
  0.505999982         5.62490290E-03
  0.507000029         4.71967738E-03
  0.508000016         3.76379071E-03
  0.509000003         2.76243431E-03
  0.509999990         1.72135665E-03
  0.510999978         6.46814646E-04
  0.512000024        -4.54481982E-04
  0.513000011        -1.57543272E-03
  0.513999999        -2.70861597E-03
  0.514999986        -3.84636456E-03
  0.515999973        -4.98084538E-03
  0.517000020        -6.10414147E-03
  0.518000007        -7.20833940E-03
  0.518999994        -8.28561466E-03
  0.519999981        -9.32831690E-03
  0.521000028        -1.03290565E-02
  0.522000015        -1.12807853E-02
  0.523000002        -1.21768732E-02
  0.523999989        -1.30111808E-02
  0.524999976        -1.37781268E-02
  0.526000023        -1.44727472E-02
  0.527000010        -1.50907468E-02
  0.527999997        -1.56285372E-02
  0.528999984        -1.60832703E-02
  0.529999971        -1.64528657E-02
  0.531000018        -1.67360231E-02
  0.532000005        -1.69322174E-02
  0.532999992        -1.70417018E-02
  0.533999979        -1.70654859E-02
  0.535000026        -1.70053095E-02
  0.536000013        -1.68636050E-02
  0.537000000        -1.66434590E-02
  0.537999988        -1.63485631E-02
  0.538999975        -1.59831531E-02
  0.540000021        -1.55519489E-02
  0.541000009        -1.50600914E-02
  0.541999996        -1.45130716E-02
  0.542999983        -1.39166601E-02
  0.544000030        -1.32768359E-02
  0.545000017        -1.25997141E-02
  0.546000004        -1.18914749E-02
  0.546999991        -1.11582940E-02
  0.547999978        -1.04062818E-02
  0.549000025        -9.64141730E-03
  0.550000012        -8.86949711E-03
  0.550999999        -8.09607748E-03
  0.551999986        -7.32643250E-03
  0.552999973        -6.56551402E-03
  0.554000020        -5.81791485E-03
  0.555000007        -5.08784223E-03
  0.555999994        -4.37909598E-03
  0.556999981        -3.69505514E-03
  0.558000028        -3.03867110E-03
  0.559000015        -2.41246377E-03
  0.560000002        -1.81852502E-03
  0.560999990        -1.25852611E-03
  0.561999977        -7.33728928E-04
  0.563000023        -2.45001749E-04
  0.564000010         2.07160279E-04
  0.564999998         6.22611027E-04
  0.565999985         1.00152672E-03
  0.566999972         1.34437764E-03
  0.568000019         1.65189966E-03
  0.569000006         1.92506460E-03
  0.569999993         2.16505164E-03
  0.570999980         2.37321784E-03
  0.572000027         2.55106762E-03
  0.573000014         2.70022452E-03
  0.574000001         2.82240170E-03
  0.574999988         2.91937590E-03
  0.575999975         2.99296272E-03
  0.577000022         3.04499455E-03
  0.578000009         3.07730073E-03
  0.578999996         3.09168966E-03
  0.579999983         3.08993249E-03
  0.580999970         3.07374890E-03
  0.582000017         3.04479478E-03
  0.583000004         3.00465082E-03
  0.583999991         2.95481621E-03
  0.584999979         2.89670122E-03
  0.586000025         2.83162389E-03
  0.587000012         2.76080705E-03
  0.588000000         2.68537714E-03
  0.588999987         2.60636327E-03
  0.589999974         2.52469932E-03
  0.591000021         2.44122557E-03
  0.592000008         2.35669222E-03
  0.592999995         2.27176351E-03
  0.593999982         2.18702271E-03
  0.595000029         2.10297690E-03
  0.596000016         2.02006102E-03
  0.597000003         1.93864270E-03
  0.597999990         1.85902743E-03
  0.598999977         1.78146432E-03
  0.600000024         1.70615257E-03
  0.601000011         1.63324701E-03
  0.601999998         1.56286347E-03
  0.602999985         1.49508310E-03
  0.603999972         1.42995548E-03
  0.605000019         1.36750238E-03
  0.606000006         1.30772125E-03
  0.606999993         1.25058880E-03
  0.607999980         1.19606592E-03
  0.609000027         1.14410068E-03
  0.610000014         1.09463173E-03
  0.611000001         1.04758947E-03
  0.611999989         1.00289716E-03
  0.612999976         9.60471167E-04
  0.614000022         9.20222083E-04
  0.615000010         8.82056716E-04
  0.615999997         8.45880306E-04
  0.616999984         8.11598846E-04
  0.617999971         7.79119960E-04
  0.619000018         7.48352904E-04
  0.620000005         7.19207455E-04
  0.620999992         6.91592810E-04
  0.621999979         6.65416825E-04
  0.623000026         6.40586310E-04
  0.624000013         6.17008482E-04
  0.625000000         5.94592420E-04
  0.625999987         5.73249767E-04
  0.626999974         5.52894606E-04
  0.628000021         5.33442479E-04
  0.629000008         5.14809042E-04
  0.629999995         4.96908964E-04
  0.630999982         4.79655922E-04
  0.632000029         4.62963042E-04
  0.633000016         4.46743390E-04
  0.634000003         4.30910062E-04
  0.634999990         4.15375398E-04
  0.635999978         4.00049379E-04
  0.637000024         3.84838408E-04
  0.638000011         3.69644375E-04
  0.638999999         3.54364922E-04
  0.639999986         3.38894170E-04
  0.640999973         3.23123822E-04
  0.642000020         3.06943461E-04
  0.643000007         2.90240074E-04
  0.643999994         2.72896868E-04
  0.644999981         2.54792045E-04
  0.646000028         2.35798201E-04
  0.647000015         2.15782566E-04
  0.648000002         1.94608176E-04
  0.648999989         1.72135406E-04
  0.649999976         1.48223218E-04
  0.651000023         1.22730038E-04
  0.652000010         9.55143332E-05
  0.652999997         6.64354229E-05
  0.653999984         3.53549658E-05
  0.654999971         2.13931730E-06
  0.656000018        -3.33374846E-05
  0.657000005        -7.11905086E-05
  0.657999992        -1.11521025E-04
  0.658999979        -1.54414010E-04
  0.660000026        -1.99935734E-04
  0.661000013        -2.48131051E-04
  0.662000000        -2.99019826E-04
  0.662999988        -3.52592731E-04
  0.663999975        -4.08806285E-04
  0.665000021        -4.67578124E-04
  0.666000009        -5.28782723E-04
  0.666999996        -5.92247758E-04
  0.667999983        -6.57750701E-04
  0.669000030        -7.25015707E-04
  0.670000017        -7.93709769E-04
  0.671000004        -8.63438763E-04
  0.671999991        -9.33743606E-04
  0.672999978        -1.00409728E-03
  0.674000025        -1.07390294E-03
  0.675000012        -1.14249333E-03
  0.675999999        -1.20913144E-03
  0.676999986        -1.27301167E-03
  0.677999973        -1.33326149E-03
  0.679000020        -1.38894387E-03
  0.680000007        -1.43906032E-03
  0.680999994        -1.48255553E-03
  0.681999981        -1.51832460E-03
  0.683000028        -1.54522224E-03
  0.684000015        -1.56207371E-03
  0.685000002        -1.56768737E-03
  0.685999990        -1.56086765E-03
  0.686999977        -1.54042896E-03
  0.688000023        -1.50520960E-03
  0.689000010        -1.45408767E-03