-0.1200000E+00  0.0000000E+00
-0.1189000E+00  0.0000000E+00
-0.1178000E+00  0.0000000E+00
-0.1167000E+00  0.0000000E+00
-0.1156000E+00  0.0000000E+00
-0.1145000E+00  0.0000000E+00
-0.1134000E+00  0.0000000E+00
-0.1123000E+00  0.0000000E+00
-0.1112000E+00  0.0000000E+00
-0.1101000E+00  0.0000000E+00
-0.1090000E+00  0.0000000E+00
-0.1079000E+00  0.0000000E+00
-0.1068000E+00  0.0000000E+00
-0.1057000E+00  0.0000000E+00
-0.1046000E+00  0.0000000E+00
-0.1035000E+00  0.0000000E+00
-0.1024000E+00  0.0000000E+00
-0.1013000E+00  0.0000000E+00
-0.1002000E+00  0.0000000E+00
-0.9910000E-01  0.0000000E+00
-0.9800000E-01  0.0000000E+00
-0.9690000E-01  0.0000000E+00
-0.9580000E-01  0.0000000E+00
-0.9470000E-01  0.0000000E+00
-0.9360000E-01  0.0000000E+00
-0.9250000E-01  0.0000000E+00
-0.9140000E-01  0.0000000E+00
-0.9030000E-01  0.0000000E+00
-0.8920000E-01  0.0000000E+00
-0.8810000E-01  0.0000000E+00
-0.8700000E-01  0.0000000E+00
-0.8590000E-01  0.0000000E+00
-0.8480000E-01  0.0000000E+00
-0.8370000E-01  0.0000000E+00
-0.8260000E-01  0.0000000E+00
-0.8150000E-01  0.0000000E+00
-0.8040000E-01  0.0000000E+00
-0.7930000E-01  0.0000000E+00
-0.7820000E-01  0.0000000E+00
-0.7710000E-01  0.0000000E+00
-0.7600000E-01  0.0000000E+00
-0.7490000E-01  0.0000000E+00
-0.7380000E-01  0.0000000E+00
-0.7270000E-01  0.0000000E+00
-0.7160000E-01  0.0000000E+00
-0.7050000E-01  0.0000000E+00
-0.6940000E-01  0.0000000E+00
-0.6830000E-01  0.0000000E+00
-0.6720000E-01  0.0000000E+00
-0.6610000E-01  0.0000000E+00
-0.6500000E-01  0.0000000E+00
-0.6390000E-01  0.0000000E+00
-0.6280000E-01  0.0000000E+00
-0.6170000E-01  0.0000000E+00
-0.6060000E-01  0.0000000E+00
-0.5950000E-01  0.0000000E+00
-0.5840000E-01  0.0000000E+00
-0.5730000E-01  0.0000000E+00
-0.5620000E-01  0.0000000E+00
-0.5510000E-01  0.0000000E+00
-0.5400000E-01  0.0000000E+00
-0.5290000E-01  0.0000000E+00
-0.5180000E-01  0.0000000E+00
-0.5070000E-01  0.0000000E+00
-0.4960000E-01  0.0000000E+00
-0.4850000E-01  0.0000000E+00
-0.4740000E-01  0.0000000E+00
-0.4630000E-01  0.0000000E+00
-0.4520000E-01  0.0000000E+00
-0.4410000E-01  0.0000000E+00
-0.4300000E-01  0.0000000E+00
-0.4190000E-01  0.0000000E+00
-0.4080000E-01  0.0000000E+00
-0.3970000E-01  0.0000000E+00
-0.3860000E-01  0.0000000E+00
-0.3750000E-01  0.0000000E+00
-0.3640000E-01  0.0000000E+00
-0.3530000E-01  0.0000000E+00
-0.3420000E-01  0.0000000E+00
-0.3310000E-01  0.0000000E+00
-0.3200000E-01  0.0000000E+00
-0.3090000E-01  0.0000000E+00
-0.2980000E-01  0.0000000E+00
-0.2870000E-01  0.0000000E+00
-0.2760000E-01 -0.0000000E+00
-0.2650000E-01 -0.0000000E+00
-0.2540000E-01 -0.0000000E+00
-0.2430000E-01 -0.0000000E+00
-0.2320000E-01 -0.0000000E+00
-0.2210000E-01  0.0000000E+00
-0.2100000E-01  0.0000000E+00
-0.1990000E-01  0.2140880E-37
-0.1880000E-01  0.1385348E-37
-0.1770000E-01 -0.2836388E-37
-0.1660000E-01 -0.1295336E-36
-0.1550000E-01 -0.2385288E-36
-0.1440000E-01 -0.2442168E-36
-0.1330000E-01 -0.1744227E-37
-0.1220000E-01  0.5440355E-36
-0.1110000E-01  0.1318634E-35
-0.1000000E-01  0.1809576E-35
-0.8900000E-02  0.1110343E-35
-0.7800000E-02 -0.1750713E-35
-0.6700000E-02 -0.6947657E-35
-0.5600000E-02 -0.1259831E-34
-0.4500000E-02 -0.1382928E-34
-0.3400000E-02 -0.3507904E-35
-0.2300000E-02  0.2390658E-34
-0.1200000E-02  0.6508048E-34
-0.1000000E-03  0.9963658E-34
 0.1000000E-02  0.8759496E-34
 0.2100000E-02 -0.1835212E-34
 0.3200000E-02 -0.2390641E-33
 0.4300000E-02 -0.5186113E-33
 0.5400000E-02 -0.6828963E-33
 0.6500000E-02 -0.4540828E-33
 0.7600000E-02  0.4283478E-33
 0.8700000E-02  0.1965086E-32
 0.9800000E-02  0.3606347E-32
 0.1090000E-01  0.4106842E-32
 0.1200000E-01  0.1804421E-32
 0.1310000E-01 -0.4460138E-32
 0.1420000E-01 -0.1386875E-31
 0.1530000E-01 -0.2222654E-31
 0.1640000E-01 -0.2184292E-31
 0.1750000E-01 -0.4072789E-32
 0.1860000E-01  0.3486255E-31
 0.1970000E-01  0.8614238E-31
 0.2080000E-01  0.1228763E-30
 0.2190000E-01  0.1032670E-30
 0.2300000E-01 -0.1191137E-31
 0.2410000E-01 -0.2275116E-30
 0.2520000E-01 -0.4786999E-30
 0.2630000E-01 -0.6152813E-30
 0.2740000E-01 -0.4347349E-30
 0.2850000E-01  0.2174459E-30
 0.2960000E-01  0.1294684E-29
 0.3070000E-01  0.2408780E-29
 0.3180000E-01  0.2813100E-29
 0.3290000E-01  0.1624714E-29
 0.3400000E-01 -0.1674100E-29
 0.3510000E-01 -0.6578406E-29
 0.3620000E-01 -0.1107833E-28
 0.3730000E-01 -0.1182332E-28
 0.3840000E-01 -0.5327380E-29
 0.3950000E-01  0.9797944E-29
 0.4060000E-01  0.3030307E-28
 0.4170000E-01  0.4692221E-28
 0.4280000E-01  0.4594095E-28
 0.4390000E-01  0.1484387E-28
 0.4500000E-01 -0.4869602E-28
 0.4610000E-01 -0.1279455E-27
 0.4720000E-01 -0.1841883E-27
 0.4830000E-01 -0.1658078E-27
 0.4940000E-01 -0.3188611E-28
 0.5050000E-01  0.2147374E-27
 0.5160000E-01  0.4994389E-27
 0.5270000E-01  0.6737851E-27
 0.5380000E-01  0.5579679E-27
 0.5490000E-01  0.3040810E-28
 0.5600000E-01 -0.8603200E-27
 0.5710000E-01 -0.1815703E-26
 0.5820000E-01 -0.2308643E-26
 0.5930000E-01 -0.1756134E-26
 0.6040000E-01  0.1676597E-27
 0.6150000E-01  0.3180310E-26
 0.6260000E-01  0.6188963E-26
 0.6370000E-01  0.7446274E-26
 0.6480000E-01  0.5183669E-26
 0.6590000E-01 -0.1372033E-26
 0.6700000E-01 -0.1097277E-25
 0.6810000E-01 -0.1990719E-25
 0.6920000E-01 -0.2272954E-25
 0.7030000E-01 -0.1439449E-25
 0.7140000E-01  0.6650077E-26
 0.7250000E-01  0.3565705E-25
 0.7360000E-01  0.6081599E-25
 0.7470000E-01  0.6606366E-25
 0.7580000E-01  0.3778687E-25
 0.7690000E-01 -0.2629757E-25
 0.7800000E-01 -0.1099201E-24
 0.7910000E-01 -0.1775785E-24
 0.8020000E-01 -0.1841340E-24
 0.8130000E-01 -0.9460356E-25
 0.8240000E-01  0.9161180E-25
 0.8350000E-01  0.3231257E-24
 0.8460000E-01  0.4984725E-24
 0.8570000E-01  0.4960416E-24
 0.8680000E-01  0.2294540E-24
 0.8790000E-01 -0.2892043E-24
 0.8900000E-01 -0.9084570E-24
 0.9010000E-01 -0.1351206E-23
 0.9120000E-01 -0.1301485E-23
 0.9230000E-01 -0.5521485E-24
 0.9340000E-01  0.8363071E-24
 0.9450000E-01  0.2444023E-23
 0.9560000E-01  0.3545350E-23
 0.9670000E-01  0.3344849E-23
 0.9780000E-01  0.1354429E-23
 0.9890000E-01 -0.2220721E-23
 0.1000000E+00 -0.6281541E-23
 0.1011000E+00 -0.9002129E-23
 0.1022000E+00 -0.8436404E-23
 0.1033000E+00 -0.3443246E-23
 0.1044000E+00  0.5402644E-23
 0.1055000E+00  0.1537698E-22
 0.1066000E+00  0.2206174E-22
 0.1077000E+00  0.2082578E-22
 0.1088000E+00  0.9009795E-23
 0.1099000E+00 -0.1198071E-22
 0.1110000E+00 -0.3573818E-22
 0.1121000E+00 -0.5198147E-22
 0.1132000E+00 -0.4999994E-22
 0.1143000E+00 -0.2363021E-22
 0.1154000E+00  0.2405706E-22
 0.1165000E+00  0.7872481E-22
 0.1176000E+00  0.1173532E-21
 0.1187000E+00  0.1159054E-21
 0.1198000E+00  0.6028001E-22
 0.1209000E+00 -0.4345815E-22
 0.1220000E+00 -0.1646643E-21
 0.1231000E+00 -0.2536604E-21
 0.1242000E+00 -0.2581342E-21
 0.1253000E+00 -0.1464890E-21
 0.1264000E+00  0.7036625E-22
 0.1275000E+00  0.3294666E-21
 0.1286000E+00  0.5270736E-21
 0.1297000E+00  0.5525750E-21
 0.1308000E+00  0.3368879E-21
 0.1319000E+00 -0.1021372E-21
 0.1330000E+00 -0.6391819E-21
 0.1341000E+00 -0.1063343E-20
 0.1352000E+00 -0.1146186E-20
 0.1363000E+00 -0.7397871E-21
 0.1374000E+00  0.1302897E-21
 0.1385000E+00  0.1220955E-20
 0.1396000E+00  0.2111960E-20
 0.1407000E+00  0.2339001E-20
 0.1418000E+00  0.1588567E-20
 0.1429000E+00 -0.1139011E-21
 0.1440000E+00 -0.2309051E-20
 0.1451000E+00 -0.4173078E-20
 0.1462000E+00 -0.4771021E-20
 0.1473000E+00 -0.3437282E-20
 0.1484000E+00 -0.1532405E-21
 0.1495000E+00  0.4245766E-20
 0.1506000E+00  0.8176333E-20
 0.1517000E+00  0.9772389E-20
 0.1528000E+00  0.7612914E-20
 0.1539000E+00  0.1472078E-20
 0.1550000E+00 -0.7226967E-20
 0.1561000E+00 -0.1553625E-19
 0.1572000E+00 -0.1979708E-19
 0.1583000E+00 -0.1699115E-19
 0.1594000E+00 -0.6203186E-20
 0.1605000E+00  0.1039518E-19
 0.1616000E+00  0.2758794E-19
 0.1627000E+00  0.3844524E-19
 0.1638000E+00  0.3672998E-19
 0.1649000E+00  0.1966105E-19
 0.1660000E+00 -0.1002323E-19
 0.1671000E+00 -0.4373801E-19
 0.1682000E+00 -0.6903991E-19
 0.1693000E+00 -0.7369485E-19
 0.1704000E+00 -0.5067286E-19
 0.1715000E+00 -0.2253114E-20
 0.1726000E+00  0.5865154E-19
 0.1737000E+00  0.1111513E-18
 0.1748000E+00  0.1328718E-18
 0.1759000E+00  0.1085345E-18
 0.1770000E+00  0.3762390E-19
 0.1781000E+00 -0.6217090E-19
 0.1792000E+00 -0.1580734E-18
 0.1803000E+00 -0.2120777E-18
 0.1814000E+00 -0.1950215E-18
 0.1825000E+00 -0.1000767E-18
 0.1836000E+00  0.4994692E-19
 0.1847000E+00  0.2057783E-18
 0.1858000E+00  0.3062793E-18
 0.1869000E+00  0.3009249E-18
 0.1880000E+00  0.1726458E-18
 0.1891000E+00 -0.4826642E-19
 0.1902000E+00 -0.2868356E-18
 0.1913000E+00 -0.4451573E-18
 0.1924000E+00 -0.4384362E-18
 0.1935000E+00 -0.2335822E-18
 0.1946000E+00  0.1250123E-18
 0.1957000E+00  0.5160636E-18
 0.1968000E+00  0.7741572E-18
 0.1979000E+00  0.7486523E-18
 0.1990000E+00  0.3706953E-18
 0.2001000E+00 -0.2970865E-18
 0.2012000E+00 -0.1052469E-17
 0.2023000E+00 -0.1600210E-17
 0.2034000E+00 -0.1647642E-17
 0.2045000E+00 -0.1022924E-17
 0.2056000E+00  0.2252435E-18
 0.2067000E+00  0.1789596E-17
 0.2078000E+00  0.3156819E-17
 0.2089000E+00  0.3751050E-17
 0.2100000E+00  0.3134406E-17
 0.2111000E+00  0.1202006E-17
 0.2122000E+00 -0.1701766E-17
 0.2133000E+00 -0.4804598E-17
 0.2144000E+00 -0.7085123E-17
 0.2155000E+00 -0.7575974E-17
 0.2166000E+00 -0.5707023E-17
 0.2177000E+00 -0.1575836E-17
 0.2188000E+00  0.3960884E-17
 0.2199000E+00  0.9435485E-17
 0.2210000E+00  0.1314389E-16
 0.2221000E+00  0.1365333E-16
 0.2232000E+00  0.1029205E-16
 0.2243000E+00  0.3457188E-17
 0.2254000E+00 -0.5380751E-17
 0.2265000E+00 -0.1400862E-16
 0.2276000E+00 -0.2005940E-16
 0.2287000E+00 -0.2168883E-16
 0.2298000E+00 -0.1812894E-16
 0.2309000E+00 -0.9936371E-17
 0.2320000E+00  0.1150879E-17
 0.2331000E+00  0.1270384E-16
 0.2342000E+00  0.2227429E-16
 0.2353000E+00  0.2801715E-16
 0.2364000E+00  0.2905307E-16
 0.2375000E+00  0.2546408E-16
 0.2386000E+00  0.1796627E-16
 0.2397000E+00  0.7444909E-17
 0.2408000E+00 -0.5393124E-17
 0.2419000E+00 -0.2003469E-16
 0.2430000E+00 -0.3577745E-16
 0.2441000E+00 -0.5109178E-16
 0.2452000E+00 -0.6305838E-16
 0.2463000E+00 -0.6729151E-16
 0.2474000E+00 -0.5866709E-16
 0.2485000E+00 -0.3291412E-16
 0.2496000E+00  0.1123810E-16
 0.2507000E+00  0.7001264E-16
 0.2518000E+00  0.1334825E-15
 0.2529000E+00  0.1861790E-15
 0.2540000E+00  0.2097937E-15
 0.2551000E+00  0.1877421E-15
 0.2562000E+00  0.1106675E-15
 0.2573000E+00 -0.1857394E-16
 0.2584000E+00 -0.1821006E-15
 0.2595000E+00 -0.3477315E-15
 0.2606000E+00 -0.4738740E-15
 0.2617000E+00 -0.5181325E-15
 0.2628000E+00 -0.4480902E-15
 0.2639000E+00 -0.2518617E-15
 0.2650000E+00  0.5432399E-16
 0.2661000E+00  0.4239299E-15
 0.2672000E+00  0.7847786E-15
 0.2683000E+00  0.1050643E-14
 0.2694000E+00  0.1138264E-14
 0.2705000E+00  0.9868884E-15
 0.2716000E+00  0.5765015E-15
 0.2727000E+00 -0.5935728E-16
 0.2738000E+00 -0.8298292E-15
 0.2749000E+00 -0.1594446E-14
 0.2760000E+00 -0.2182934E-14
 0.2771000E+00 -0.2425483E-14
 0.2782000E+00 -0.2189502E-14
 0.2793000E+00 -0.1416653E-14
 0.2804000E+00 -0.1524898E-15
 0.2815000E+00  0.1439377E-14
 0.2826000E+00  0.3085437E-14
 0.2837000E+00  0.4436517E-14
 0.2848000E+00  0.5127015E-14
 0.2859000E+00  0.4852097E-14
 0.2870000E+00  0.3449800E-14
 0.2881000E+00  0.9704993E-15
 0.2892000E+00 -0.2285262E-14
 0.2903000E+00 -0.5776794E-14
 0.2914000E+00 -0.8789893E-14
 0.2925000E+00 -0.1055756E-13
 0.2936000E+00 -0.1041909E-13
 0.2947000E+00 -0.7989418E-14
 0.2958000E+00 -0.3302667E-14
 0.2969000E+00  0.3107664E-14
 0.2980000E+00  0.1022217E-13
 0.2991000E+00  0.1665783E-13
 0.3002000E+00  0.2089300E-13
 0.3013000E+00  0.2156597E-13
 0.3024000E+00  0.1779679E-13
 0.3035000E+00  0.9469110E-14
 0.3046000E+00 -0.2594216E-14
 0.3057000E+00 -0.1661744E-13
 0.3068000E+00 -0.3005312E-13
 0.3079000E+00 -0.3995819E-13
 0.3090000E+00 -0.4352612E-13
 0.3101000E+00 -0.3869831E-13
 0.3112000E+00 -0.2474645E-13
 0.3123000E+00 -0.2701249E-14
 0.3134000E+00  0.2449335E-13
 0.3145000E+00  0.5219234E-13
 0.3156000E+00  0.7466522E-13
 0.3167000E+00  0.8607621E-13
 0.3178000E+00  0.8170274E-13
 0.3189000E+00  0.5918429E-13
 0.3200000E+00  0.1953614E-13
 0.3211000E+00 -0.3234808E-13
 0.3222000E+00 -0.8793233E-13
 0.3233000E+00 -0.1361248E-12
 0.3244000E+00 -0.1651587E-12
 0.3255000E+00 -0.1650156E-12
 0.3266000E+00 -0.1299595E-12
 0.3277000E+00 -0.6063220E-13
 0.3288000E+00  0.3484815E-13
 0.3299000E+00  0.1412257E-12
 0.3310000E+00  0.2380746E-12
 0.3321000E+00  0.3032505E-12
 0.3332000E+00  0.3173178E-12
 0.3343000E+00  0.2681434E-12
 0.3354000E+00  0.1546815E-12
 0.3365000E+00 -0.1098438E-13
 0.3376000E+00 -0.2040333E-12
 0.3387000E+00 -0.3899831E-12
 0.3398000E+00 -0.5301728E-12
 0.3409000E+00 -0.5888402E-12
 0.3420000E+00 -0.5405828E-12
 0.3431000E+00 -0.3767958E-12
 0.3442000E+00 -0.1097578E-12
 0.3453000E+00  0.2266417E-12
 0.3464000E+00  0.5800128E-12
 0.3475000E+00  0.8862750E-12
 0.3486000E+00  0.1079409E-11
 0.3497000E+00  0.1102874E-11
 0.3508000E+00  0.9210702E-12
 0.3519000E+00  0.5290389E-12
 0.3530000E+00 -0.4132803E-13
 0.3541000E+00 -0.7200992E-12
 0.3552000E+00 -0.1404187E-11
 0.3563000E+00 -0.1968710E-11
 0.3574000E+00 -0.2284371E-11
 0.3585000E+00 -0.2239318E-11
 0.3596000E+00 -0.1762844E-11
 0.3607000E+00 -0.8472399E-12
 0.3618000E+00  0.4365683E-12
 0.3629000E+00  0.1933988E-11
 0.3640000E+00  0.3415910E-11
 0.3651000E+00  0.4603796E-11
 0.3662000E+00  0.5209769E-11
 0.3673000E+00  0.4987622E-11
 0.3684000E+00  0.3787483E-11
 0.3695000E+00  0.1604593E-11
 0.3706000E+00 -0.1388262E-11
 0.3717000E+00 -0.4834053E-11
 0.3728000E+00 -0.8216814E-11
 0.3739000E+00 -0.1092033E-10
 0.3750000E+00 -0.1231570E-10
 0.3761000E+00 -0.1186738E-10
 0.3772000E+00 -0.9242577E-11
 0.3783000E+00 -0.4406120E-11
 0.3794000E+00  0.2316766E-11
 0.3805000E+00  0.1022463E-10
 0.3816000E+00  0.1828009E-10
 0.3827000E+00  0.2520833E-10
 0.3838000E+00  0.2964771E-10
 0.3849000E+00  0.3033886E-10
 0.3860000E+00  0.2633167E-10
 0.3871000E+00  0.1718522E-10
 0.3882000E+00  0.3132640E-11
 0.3893000E+00 -0.1481635E-10
 0.3904000E+00 -0.3485990E-10
 0.3915000E+00 -0.5449336E-10
 0.3926000E+00 -0.7071221E-10
 0.3937000E+00 -0.8032436E-10
 0.3948000E+00 -0.8035290E-10
 0.3959000E+00 -0.6849446E-10
 0.3970000E+00 -0.4358358E-10
 0.3981000E+00 -0.6002445E-11
 0.3992000E+00  0.4202961E-10
 0.4003000E+00  0.9634923E-10
 0.4014000E+00  0.1509748E-09
 0.4025000E+00  0.1984934E-09
 0.4036000E+00  0.2307089E-09
 0.4047000E+00  0.2395190E-09
 0.4058000E+00  0.2179565E-09
 0.4069000E+00  0.1613016E-09
 0.4080000E+00  0.6814872E-10
 0.4091000E+00 -0.5869769E-10
 0.4102000E+00 -0.2116276E-09
 0.4113000E+00 -0.3780485E-09
 0.4124000E+00 -0.5407246E-09
 0.4135000E+00 -0.6786973E-09
 0.4146000E+00 -0.7688088E-09
 0.4157000E+00 -0.7878013E-09
 0.4168000E+00 -0.7148974E-09
 0.4179000E+00 -0.5347072E-09
 0.4190000E+00 -0.2402365E-09
 0.4201000E+00  0.1642849E-09
 0.4212000E+00  0.6610780E-09
 0.4223000E+00  0.1217330E-08
 0.4234000E+00  0.1784866E-08
 0.4245000E+00  0.2301233E-08
 0.4256000E+00  0.2692366E-08
 0.4267000E+00  0.2876873E-08
 0.4278000E+00  0.2771858E-08
 0.4289000E+00  0.2300049E-08
 0.4300000E+00  0.1397931E-08
 0.4311000E+00  0.2448547E-10
 0.4322000E+00 -0.1829877E-08
 0.4333000E+00 -0.4134530E-08
 0.4344000E+00 -0.6810303E-08
 0.4355000E+00 -0.9721758E-08
 0.4366000E+00 -0.1267010E-07
 0.4377000E+00 -0.1538658E-07
 0.4388000E+00 -0.1752605E-07
 0.4399000E+00 -0.1866016E-07
 0.4410000E+00 -0.1826963E-07
 0.4421000E+00 -0.1573450E-07
 0.4432000E+00 -0.1032145E-07
 0.4443000E+00 -0.1166713E-08
 0.4454000E+00  0.1274680E-07
 0.4465000E+00  0.3262020E-07
 0.4476000E+00  0.5987899E-07
 0.4487000E+00  0.9622550E-07
 0.4498000E+00  0.1437056E-06
 0.4509000E+00  0.2047931E-06
 0.4520000E+00  0.2824935E-06
 0.4531000E+00  0.3804719E-06
 0.4542000E+00  0.5032076E-06
 0.4553000E+00  0.6561785E-06
 0.4564000E+00  0.8460818E-06
 0.4575000E+00  0.1081092E-05
 0.4586000E+00  0.1371163E-05
 0.4597000E+00  0.1728382E-05
 0.4608000E+00  0.2167370E-05
 0.4619000E+00  0.2705746E-05
 0.4630000E+00  0.3364660E-05
 0.4641000E+00  0.4169380E-05
 0.4652000E+00  0.5149976E-05
 0.4663000E+00  0.6342070E-05
 0.4674000E+00  0.7787670E-05
 0.4685000E+00  0.9536111E-05
 0.4696000E+00  0.1164508E-04
 0.4707000E+00  0.1418176E-04
 0.4718000E+00  0.1722404E-04
 0.4729000E+00  0.2086191E-04
 0.4740000E+00  0.2519888E-04
 0.4751000E+00  0.3035356E-04
 0.4762000E+00  0.3646129E-04
 0.4773000E+00  0.4367594E-04
 0.4784000E+00  0.5217169E-04
 0.4795000E+00  0.6214490E-04
 0.4806000E+00  0.7381598E-04
 0.4817000E+00  0.8743127E-04
 0.4828000E+00  0.1032648E-03
 0.4839000E+00  0.1216201E-03
 0.4850000E+00  0.1428314E-03
 0.4861000E+00  0.1672651E-03
 0.4872000E+00  0.1953207E-03
 0.4883000E+00  0.2274312E-03
 0.4894000E+00  0.2640631E-03
 0.4905000E+00  0.3057157E-03
 0.4916000E+00  0.3529203E-03
 0.4927000E+00  0.4062372E-03
 0.4938000E+00  0.4662536E-03
 0.4949000E+00  0.5335789E-03
 0.4960000E+00  0.6088403E-03
 0.4971000E+00  0.6926759E-03
 0.4982000E+00  0.7857275E-03
 0.4993000E+00  0.8886317E-03
 0.5004000E+00  0.1002010E-02
 0.5015000E+00  0.1126456E-02
 0.5026000E+00  0.1262525E-02
 0.5037000E+00  0.1410717E-02
 0.5048000E+00  0.1571462E-02
 0.5059000E+00  0.1745103E-02
 0.5070000E+00  0.1931881E-02
 0.5081000E+00  0.2131911E-02
 0.5092000E+00  0.2345169E-02
 0.5103000E+00  0.2571467E-02
 0.5114000E+00  0.2810440E-02
 0.5125000E+00  0.3061519E-02
 0.5136000E+00  0.3323923E-02
 0.5147000E+00  0.3596632E-02
 0.5158000E+00  0.3878382E-02
 0.5169000E+00  0.4167646E-02
 0.5180000E+00  0.4462628E-02
 0.5191000E+00  0.4761256E-02
 0.5202000E+00  0.5061181E-02
 0.5213000E+00  0.5359778E-02
 0.5224000E+00  0.5654153E-02
 0.5235000E+00  0.5941160E-02
 0.5246000E+00  0.6217411E-02
 0.5257000E+00  0.6479309E-02
 0.5268000E+00  0.6723071E-02
 0.5279000E+00  0.6944769E-02
 0.5290000E+00  0.7140367E-02
 0.5301000E+00  0.7305772E-02
 0.5312000E+00  0.7436880E-02
 0.5323000E+00  0.7529640E-02
 0.5334000E+00  0.7580108E-02
 0.5345000E+00  0.7584518E-02
 0.5356000E+00  0.7539337E-02
 0.5367000E+00  0.7441339E-02
 0.5378000E+00  0.7287669E-02
 0.5389000E+00  0.7075909E-02
 0.5400000E+00  0.6804136E-02
 0.5411000E+00  0.6470984E-02
 0.5422000E+00  0.6075695E-02
 0.5433000E+00  0.5618160E-02
 0.5444000E+00  0.5098965E-02
 0.5455000E+00  0.4519410E-02
 0.5466000E+00  0.3881532E-02
 0.5477000E+00  0.3188108E-02
 0.5488000E+00  0.2442654E-02
 0.5499000E+00  0.1649404E-02
 0.5510000E+00  0.8132840E-03
 0.5521000E+00 -0.6013309E-04
 0.5532000E+00 -0.9646785E-03
 0.5543000E+00 -0.1893653E-02
 0.5554000E+00 -0.2839905E-02
 0.5565000E+00 -0.3795912E-02
 0.5576000E+00 -0.4753875E-02
 0.5587000E+00 -0.5705819E-02
 0.5598000E+00 -0.6643694E-02
 0.5609000E+00 -0.7559485E-02
 0.5620000E+00 -0.8445316E-02
 0.5631000E+00 -0.9293559E-02
 0.5642000E+00 -0.1009694E-01
 0.5653000E+00 -0.1084863E-01
 0.5664000E+00 -0.1154233E-01
 0.5675000E+00 -0.1217240E-01
 0.5686000E+00 -0.1273387E-01
 0.5697000E+00 -0.1322252E-01
 0.5708000E+00 -0.1363496E-01
 0.5719000E+00 -0.1396863E-01
 0.5730000E+00 -0.1422183E-01
 0.5741000E+00 -0.1439374E-01
 0.5752000E+00 -0.1448440E-01
 0.5763000E+00 -0.1449468E-01
 0.5774000E+00 -0.1442628E-01
 0.5785000E+00 -0.1428166E-01
 0.5796000E+00 -0.1406397E-01
 0.5807000E+00 -0.1377703E-01
 0.5818000E+00 -0.1342521E-01
 0.5829000E+00 -0.1301339E-01
 0.5840000E+00 -0.1254682E-01
 0.5851000E+00 -0.1203112E-01
 0.5862000E+00 -0.1147209E-01
 0.5873000E+00 -0.1087571E-01
 0.5884000E+00 -0.1024802E-01
 0.5895000E+00 -0.9595032E-02
 0.5906000E+00 -0.8922658E-02
 0.5917000E+00 -0.8236662E-02
 0.5928000E+00 -0.7542579E-02
 0.5939000E+00 -0.6845665E-02
 0.5950000E+00 -0.6150857E-02
 0.5961000E+00 -0.5462728E-02
 0.5972000E+00 -0.4785468E-02
 0.5983000E+00 -0.4122859E-02
 0.5994000E+00 -0.3478267E-02
 0.6005000E+00 -0.2854634E-02
 0.6016000E+00 -0.2254490E-02
 0.6027000E+00 -0.1679954E-02
 0.6038000E+00 -0.1132752E-02
 0.6049000E+00 -0.6142368E-03
 0.6060000E+00 -0.1254088E-03
 0.6071000E+00  0.3330581E-03
 0.6082000E+00  0.7607890E-03
 0.6093000E+00  0.1157680E-02
 0.6104000E+00  0.1523871E-02
 0.6115000E+00  0.1859717E-02
 0.6126000E+00  0.2165764E-02
 0.6137000E+00  0.2442722E-02
 0.6148000E+00  0.2691441E-02
 0.6159000E+00  0.2912893E-02
 0.6170000E+00  0.3108148E-02
 0.6181000E+00  0.3278359E-02
 0.6192000E+00  0.3424750E-02
 0.6203000E+00  0.3548596E-02
 0.6214000E+00  0.3651218E-02
 0.6225000E+00  0.3733968E-02
 0.6236000E+00  0.3798226E-02
 0.6247000E+00  0.3845386E-02
 0.6258000E+00  0.3876851E-02
 0.6269000E+00  0.3894028E-02
 0.6280000E+00  0.3898321E-02
 0.6291000E+00  0.3891119E-02
 0.6302000E+00  0.3873797E-02
 0.6313000E+00  0.3847703E-02
 0.6324000E+00  0.3814155E-02
 0.6335000E+00  0.3774427E-02
 0.6346000E+00  0.3729749E-02
 0.6357000E+00  0.3681289E-02
 0.6368000E+00  0.3630154E-02
 0.6379000E+00  0.3577371E-02
 0.6390000E+00  0.3523889E-02
 0.6401000E+00  0.3470561E-02
 0.6412000E+00  0.3418146E-02
 0.6423000E+00  0.3367295E-02
 0.6434000E+00  0.3318554E-02
 0.6445000E+00  0.3272354E-02
 0.6456000E+00  0.3229014E-02
 0.6467000E+00  0.3188735E-02
 0.6478000E+00  0.3151604E-02
 0.6489000E+00  0.3117598E-02
 0.6500000E+00  0.3086583E-02
 0.6511000E+00  0.3058332E-02
 0.6522000E+00  0.3032521E-02
 0.6533000E+00  0.3008751E-02
 0.6544000E+00  0.2986554E-02
 0.6555000E+00  0.2965407E-02
 0.6566000E+00  0.2944748E-02
 0.6577000E+00  0.2923988E-02
 0.6588000E+00  0.2902524E-02
 0.6599000E+00  0.2879759E-02
 0.6610000E+00  0.2855113E-02
 0.6621000E+00  0.2828036E-02
 0.6632000E+00  0.2798027E-02
 0.6643000E+00  0.2764638E-02
 0.6654000E+00  0.2727492E-02
 0.6665000E+00  0.2686286E-02
 0.6676000E+00  0.2640798E-02
 0.6687000E+00  0.2590892E-02
 0.6698000E+00  0.2536522E-02
 0.6709000E+00  0.2477729E-02
 0.6720000E+00  0.2414643E-02
 0.6731000E+00  0.2347475E-02
 0.6742000E+00  0.2276515E-02
 0.6753000E+00  0.2202123E-02
 0.6764000E+00  0.2124719E-02
 0.6775000E+00  0.2044777E-02
 0.6786000E+00  0.1962807E-02
 0.6797000E+00  0.1879349E-02
 0.6808000E+00  0.1794959E-02
 0.6819000E+00  0.1710192E-02
 0.6830000E+00  0.1625593E-02
 0.6841000E+00  0.1541685E-02
 0.6852000E+00  0.1458955E-02
 0.6863000E+00  0.1377849E-02
 0.6874000E+00  0.1298759E-02
 0.6885000E+00  0.1222019E-02
 0.6896000E+00  0.1147893E-02
 0.6907000E+00  0.1076581E-02
 0.6918000E+00  0.1008204E-02
 0.6929000E+00  0.9428111E-03
 0.6940000E+00  0.8803781E-03
 0.6951000E+00  0.8208081E-03
 0.6962000E+00  0.7639377E-03
 0.6973000E+00  0.7095418E-03
 0.6984000E+00  0.6573412E-03
 0.6995000E+00  0.6070095E-03
 0.7006000E+00  0.5581831E-03
 0.7017000E+00  0.5104703E-03
 0.7028000E+00  0.4634612E-03
 0.7039000E+00  0.4167387E-03
 0.7050000E+00  0.3698892E-03
 0.7061000E+00  0.3225132E-03
 0.7072000E+00  0.2742353E-03
 0.7083000E+00  0.2247143E-03
 0.7094000E+00  0.1736513E-03
 0.7105000E+00  0.1207980E-03
 0.7116000E+00  0.6596320E-04
 0.7127000E+00  0.9018180E-05
 0.7138000E+00 -0.5009930E-04
 0.7149000E+00 -0.1113826E-03
 0.7160000E+00 -0.1747556E-03
 0.7171000E+00 -0.2400731E-03
 0.7182000E+00 -0.3071235E-03
 0.7193000E+00 -0.3756316E-03
 0.7204000E+00 -0.4452637E-03
 0.7215000E+00 -0.5156333E-03
 0.7226000E+00 -0.5863078E-03
 0.7237000E+00 -0.6568181E-03
 0.7248000E+00 -0.7266665E-03
 0.7259000E+00 -0.7953382E-03
 0.7270000E+00 -0.8623116E-03
 0.7281000E+00 -0.9270692E-03
 0.7292000E+00 -0.9891082E-03
 0.7303000E+00 -0.1047951E-02
 0.7314000E+00 -0.1103155E-02
 0.7325000E+00 -0.1154321E-02
 0.7336000E+00 -0.1201103E-02
 0.7347000E+00 -0.1243215E-02
 0.7358000E+00 -0.1280436E-02
 0.7369000E+00 -0.1312616E-02
 0.7380000E+00 -0.1339678E-02
 0.7391000E+00 -0.1361622E-02
 0.7402000E+00 -0.1378522E-02
 0.7413000E+00 -0.1390527E-02
 0.7424000E+00 -0.1397856E-02
 0.7435000E+00 -0.1400794E-02
 0.7446000E+00 -0.1399686E-02
 0.7457000E+00 -0.1394926E-02
 0.7468000E+00 -0.1386953E-02
 0.7479000E+00 -0.1376239E-02
 0.7490000E+00 -0.1363283E-02
 0.7501000E+00 -0.1348594E-02
 0.7512000E+00 -0.1332688E-02
 0.7523000E+00 -0.1316072E-02
 0.7534000E+00 -0.1299237E-02
 0.7545000E+00 -0.1282642E-02
 0.7556000E+00 -0.1266712E-02
 0.7567000E+00 -0.1251823E-02
 0.7578000E+00 -0.1238300E-02
 0.7589000E+00 -0.1226407E-02
 0.7600000E+00 -0.1216345E-02
 0.7611000E+00 -0.1208249E-02
 0.7622000E+00 -0.1202186E-02
 0.7633000E+00 -0.1198153E-02
 0.7644000E+00 -0.1196083E-02
 0.7655000E+00 -0.1195845E-02
 0.7666000E+00 -0.1197245E-02
 0.7677000E+00 -0.1200038E-02
 0.7688000E+00 -0.1203926E-02
 0.7699000E+00 -0.1208574E-02
 0.7710000E+00 -0.1213613E-02
 0.7721000E+00 -0.1218649E-02
 0.7732000E+00 -0.1223275E-02
 0.7743000E+00 -0.1227080E-02
 0.7754000E+00 -0.1229658E-02
 0.7765000E+00 -0.1230617E-02
 0.7776000E+00 -0.1229591E-02
 0.7787000E+00 -0.1226244E-02
 0.7798000E+00 -0.1220282E-02
 0.7809000E+00 -0.1211458E-02
 0.7820000E+00 -0.1199580E-02
 0.7831000E+00 -0.1184512E-02
 0.7842000E+00 -0.1166183E-02
 0.7853000E+00 -0.1144589E-02
 0.7864000E+00 -0.1119791E-02
 0.7875000E+00 -0.1091920E-02
 0.7886000E+00 -0.1061173E-02
 0.7897000E+00 -0.1027809E-02
 0.7908000E+00 -0.9921517E-03
 0.7919000E+00 -0.9545785E-03
 0.7930000E+00 -0.9155183E-03
 0.7941000E+00 -0.8754448E-03
 0.7952000E+00 -0.8348691E-03
 0.7963000E+00 -0.7943318E-03
 0.7974000E+00 -0.7543953E-03
 0.7985000E+00 -0.7156352E-03
 0.7996000E+00 -0.6786319E-03
 0.8007000E+00 -0.6439627E-03
 0.8018000E+00 -0.6121940E-03
 0.8029000E+00 -0.5838744E-03
 0.8040000E+00 -0.5595285E-03
 0.8051000E+00 -0.5396511E-03
 0.8062000E+00 -0.5247031E-03
 0.8073000E+00 -0.5151069E-03
 0.8084000E+00 -0.5112445E-03
 0.8095000E+00 -0.5134551E-03
 0.8106000E+00 -0.5220352E-03
 0.8117000E+00 -0.5372384E-03
 0.8128000E+00 -0.5592775E-03
 0.8139000E+00 -0.5883263E-03
 0.8150000E+00 -0.6245222E-03
 0.8161000E+00 -0.6679702E-03
 0.8172000E+00 -0.7187467E-03
 0.8183000E+00 -0.7769043E-03
 0.8194000E+00 -0.8424768E-03
 0.8205000E+00 -0.9154840E-03
 0.8216000E+00 -0.9959363E-03
 0.8227000E+00 -0.1083839E-02
 0.8238000E+00 -0.1179195E-02
 0.8249000E+00 -0.1282007E-02
 0.8260000E+00 -0.1392278E-02
 0.8271000E+00 -0.1510012E-02
 0.8282000E+00 -0.1635214E-02
 0.8293000E+00 -0.1767884E-02
 0.8304000E+00 -0.1908018E-02
 0.8315000E+00 -0.2055596E-02
 0.8326000E+00 -0.2210579E-02
 0.8337000E+00 -0.2372894E-02
 0.8348000E+00 -0.2542425E-02
 0.8359000E+00 -0.2718999E-02
 0.8370000E+00 -0.2902369E-02
 0.8381000E+00 -0.3092202E-02
 0.8392000E+00 -0.3288054E-02
 0.8403000E+00 -0.3489362E-02
 0.8414000E+00 -0.3695420E-02
 0.8425000E+00 -0.3905359E-02
 0.8436000E+00 -0.4118142E-02
 0.8447000E+00 -0.4332537E-02
 0.8458000E+00 -0.4547116E-02
 0.8469000E+00 -0.4760238E-02
 0.8480000E+00 -0.4970052E-02
 0.8491000E+00 -0.5174492E-02
 0.8502000E+00 -0.5371287E-02
 0.8513000E+00 -0.5557966E-02
 0.8524000E+00 -0.5731884E-02
 0.8535000E+00 -0.5890241E-02
 0.8546000E+00 -0.6030112E-02
 0.8557000E+00 -0.6148484E-02
 0.8568000E+00 -0.6242301E-02
 0.8579000E+00 -0.6308507E-02
 0.8590000E+00 -0.6344100E-02
 0.8601000E+00 -0.6346189E-02
 0.8612000E+00 -0.6312051E-02
 0.8623000E+00 -0.6239190E-02
 0.8634000E+00 -0.6125399E-02
 0.8645000E+00 -0.5968823E-02
 0.8656000E+00 -0.5768003E-02
 0.8667000E+00 -0.5521940E-02
 0.8678000E+00 -0.5230130E-02
 0.8689000E+00 -0.4892603E-02
 0.8700000E+00 -0.4509952E-02
 0.8711000E+00 -0.4083351E-02
 0.8722000E+00 -0.3614562E-02
 0.8733000E+00 -0.3105931E-02
 0.8744000E+00 -0.2560374E-02
 0.8755000E+00 -0.1981346E-02
 0.8766000E+00 -0.1372810E-02
 0.8777000E+00 -0.7391776E-03
 0.8788000E+00 -0.8525777E-04
 0.8799000E+00  0.5838158E-03
 0.8810000E+00  0.1262658E-02
 0.8821000E+00  0.1945716E-02
 0.8832000E+00  0.2627350E-02
 0.8843000E+00  0.3301927E-02
 0.8854000E+00  0.3963909E-02
 0.8865000E+00  0.4607937E-02
 0.8876000E+00  0.5228924E-02
 0.8887000E+00  0.5822130E-02
 0.8898000E+00  0.6383243E-02
 0.8909000E+00  0.6908448E-02
 0.8920000E+00  0.7394488E-02
 0.8931000E+00  0.7838721E-02
 0.8942000E+00  0.8239172E-02
 0.8953000E+00  0.8594565E-02
 0.8964000E+00  0.8904354E-02
 0.8975000E+00  0.9168748E-02
 0.8986000E+00  0.9388723E-02
 0.8997000E+00  0.9566026E-02
 0.9008000E+00  0.9703174E-02
 0.9019000E+00  0.9803450E-02
 0.9030000E+00  0.9870877E-02
 0.9041000E+00  0.9910205E-02
 0.9052000E+00  0.9926878E-02
 0.9063000E+00  0.9926998E-02
 0.9074000E+00  0.9917283E-02
 0.9085000E+00  0.9905016E-02
 0.9096000E+00  0.9897991E-02
 0.9107000E+00  0.9904438E-02
 0.9118000E+00  0.9932953E-02
 0.9129000E+00  0.9992409E-02
 0.9140000E+00  0.1009186E-01
 0.9151000E+00  0.1024042E-01
 0.9162000E+00  0.1044717E-01
 0.9173000E+00  0.1072099E-01
 0.9184000E+00  0.1107044E-01
 0.9195000E+00  0.1150359E-01
 0.9206000E+00  0.1202787E-01
 0.9217000E+00  0.1264986E-01
 0.9228000E+00  0.1337515E-01
 0.9239000E+00  0.1420813E-01
 0.9250000E+00  0.1515181E-01
 0.9261000E+00  0.1620765E-01
 0.9272000E+00  0.1737536E-01
 0.9283000E+00  0.1865275E-01
 0.9294000E+00  0.2003560E-01
 0.9305000E+00  0.2151752E-01
 0.9316000E+00  0.2308984E-01
 0.9327000E+00  0.2474159E-01
 0.9338000E+00  0.2645939E-01
 0.9349000E+00  0.2822754E-01
 0.9360000E+00  0.3002802E-01
 0.9371000E+00  0.3184060E-01
 0.9382000E+00  0.3364297E-01
 0.9393000E+00  0.3541096E-01
 0.9404000E+00  0.3711875E-01
 0.9415000E+00  0.3873919E-01
 0.9426000E+00  0.4024408E-01
 0.9437000E+00  0.4160460E-01
 0.9448000E+00  0.4279164E-01
 0.9459000E+00  0.4377631E-01
 0.9470000E+00  0.4453035E-01
 0.9481000E+00  0.4502660E-01
 0.9492000E+00  0.4523953E-01
 0.9503000E+00  0.4514561E-01
 0.9514000E+00  0.4472390E-01
 0.9525000E+00  0.4395638E-01
 0.9536000E+00  0.4282846E-01
 0.9547000E+00  0.4132925E-01
 0.9558000E+00  0.3945198E-01
 0.9569000E+00  0.3719420E-01
 0.9580000E+00  0.3455801E-01
 0.9591000E+00  0.3155020E-01
 0.9602000E+00  0.2818231E-01
 0.9613000E+00  0.2447061E-01
 0.9624000E+00  0.2043603E-01
 0.9635000E+00  0.1610399E-01
 0.9646000E+00  0.1150413E-01
 0.9657000E+00  0.6670065E-02
 0.9668000E+00  0.1638926E-02
 0.9679000E+00 -0.3549028E-02
 0.9690000E+00 -0.8850927E-02
 0.9701000E+00 -0.1422184E-01
 0.9712000E+00 -0.1961533E-01
 0.9723000E+00 -0.2498411E-01
 0.9734000E+00 -0.3028060E-01
 0.9745000E+00 -0.3545761E-01
 0.9756000E+00 -0.4046896E-01
 0.9767000E+00 -0.4527005E-01
 0.9778000E+00 -0.4981847E-01
 0.9789000E+00 -0.5407455E-01