 -0.12000000000000000          0.0000000000000000     
 -0.11889999999999999          0.0000000000000000     
 -0.11780000000000000          0.0000000000000000     
 -0.11670000000000000          0.0000000000000000     
 -0.11559999999999999          0.0000000000000000     
 -0.11449999999999999          0.0000000000000000     
 -0.11340000000000000          0.0000000000000000     
 -0.11230000000000000          0.0000000000000000     
 -0.11119999999999999          0.0000000000000000     
 -0.11009999999999999          0.0000000000000000     
 -0.10900000000000000          0.0000000000000000     
 -0.10790000000000000          0.0000000000000000     
 -0.10679999999999999          0.0000000000000000     
 -0.10569999999999999          0.0000000000000000     
 -0.10460000000000000          0.0000000000000000     
 -0.10349999999999999          0.0000000000000000     
 -0.10239999999999999          0.0000000000000000     
 -0.10130000000000000          0.0000000000000000     
 -0.10020000000000000          0.0000000000000000     
  -9.9099999999999994E-002     0.0000000000000000     
  -9.7999999999999990E-002     0.0000000000000000     
  -9.6899999999999986E-002     0.0000000000000000     
  -9.5799999999999996E-002     0.0000000000000000     
  -9.4699999999999993E-002     0.0000000000000000     
  -9.3599999999999989E-002     0.0000000000000000     
  -9.2499999999999999E-002     0.0000000000000000     
  -9.1399999999999995E-002     0.0000000000000000     
  -9.0299999999999991E-002     0.0000000000000000     
  -8.9200000000000002E-002     0.0000000000000000     
  -8.8099999999999984E-002     0.0000000000000000     
  -8.6999999999999994E-002     0.0000000000000000     
  -8.5899999999999990E-002     0.0000000000000000     
  -8.4799999999999986E-002     0.0000000000000000     
  -8.3699999999999997E-002     0.0000000000000000     
  -8.2599999999999993E-002     0.0000000000000000     
  -8.1499999999999989E-002     0.0000000000000000     
  -8.0399999999999999E-002     0.0000000000000000     
  -7.9299999999999995E-002     0.0000000000000000     
  -7.8199999999999992E-002     0.0000000000000000     
  -7.7100000000000002E-002     0.0000000000000000     
  -7.5999999999999984E-002     0.0000000000000000     
  -7.4899999999999994E-002     0.0000000000000000     
  -7.3799999999999991E-002     0.0000000000000000     
  -7.2699999999999987E-002     0.0000000000000000     
  -7.1599999999999997E-002     0.0000000000000000     
  -7.0499999999999993E-002     0.0000000000000000     
  -6.9399999999999989E-002     0.0000000000000000     
  -6.8300000000000000E-002     0.0000000000000000     
  -6.7199999999999996E-002     0.0000000000000000     
  -6.6099999999999992E-002     0.0000000000000000     
  -6.5000000000000002E-002     0.0000000000000000     
  -6.3899999999999985E-002     0.0000000000000000     
  -6.2799999999999995E-002     0.0000000000000000     
  -6.1699999999999991E-002     0.0000000000000000     
  -6.0599999999999994E-002     0.0000000000000000     
  -5.9499999999999990E-002     0.0000000000000000     
  -5.8399999999999994E-002     0.0000000000000000     
  -5.7299999999999990E-002     0.0000000000000000     
  -5.6199999999999986E-002     0.0000000000000000     
  -5.5099999999999996E-002     0.0000000000000000     
  -5.3999999999999992E-002     0.0000000000000000     
  -5.2899999999999989E-002     0.0000000000000000     
  -5.1799999999999985E-002     0.0000000000000000     
  -5.0699999999999995E-002     0.0000000000000000     
  -4.9599999999999991E-002     0.0000000000000000     
  -4.8499999999999988E-002     0.0000000000000000     
  -4.7399999999999998E-002     0.0000000000000000     
  -4.6299999999999994E-002     0.0000000000000000     
  -4.5199999999999990E-002     0.0000000000000000     
  -4.4099999999999986E-002     0.0000000000000000     
  -4.2999999999999997E-002     0.0000000000000000     
  -4.1899999999999993E-002     0.0000000000000000     
  -4.0799999999999989E-002     0.0000000000000000     
  -3.9699999999999985E-002     0.0000000000000000     
  -3.8599999999999995E-002     0.0000000000000000     
  -3.7499999999999992E-002     0.0000000000000000     
  -3.6399999999999988E-002     0.0000000000000000     
  -3.5299999999999984E-002     0.0000000000000000     
  -3.4199999999999994E-002     0.0000000000000000     
  -3.3099999999999991E-002     0.0000000000000000     
  -3.1999999999999987E-002     0.0000000000000000     
  -3.0899999999999997E-002     0.0000000000000000     
  -2.9799999999999993E-002     0.0000000000000000     
  -2.8699999999999989E-002     0.0000000000000000     
  -2.7599999999999986E-002     0.0000000000000000     
  -2.6499999999999996E-002     0.0000000000000000     
  -2.5399999999999992E-002     0.0000000000000000     
  -2.4299999999999988E-002     0.0000000000000000     
  -2.3199999999999985E-002     0.0000000000000000     
  -2.2099999999999995E-002     0.0000000000000000     
  -2.0999999999999991E-002     0.0000000000000000     
  -1.9899999999999987E-002     0.0000000000000000     
  -1.8799999999999983E-002     0.0000000000000000     
  -1.7699999999999994E-002     0.0000000000000000     
  -1.6599999999999990E-002     0.0000000000000000     
  -1.5499999999999986E-002     0.0000000000000000     
  -1.4399999999999996E-002     0.0000000000000000     
  -1.3299999999999992E-002     0.0000000000000000     
  -1.2199999999999989E-002     0.0000000000000000     
  -1.1099999999999985E-002     0.0000000000000000     
  -9.9999999999999950E-003     0.0000000000000000     
  -8.8999999999999913E-003     0.0000000000000000     
  -7.7999999999999875E-003     0.0000000000000000     
  -6.6999999999999837E-003     0.0000000000000000     
  -5.5999999999999939E-003     0.0000000000000000     
  -4.4999999999999901E-003     0.0000000000000000     
  -3.3999999999999864E-003     0.0000000000000000     
  -2.2999999999999826E-003     0.0000000000000000     
  -1.1999999999999927E-003     0.0000000000000000     
  -9.9999999999988987E-005     0.0000000000000000     
   1.0000000000000148E-003     0.0000000000000000     
   2.1000000000000185E-003     0.0000000000000000     
   3.2000000000000084E-003     0.0000000000000000     
   4.3000000000000121E-003     0.0000000000000000     
   5.4000000000000159E-003     0.0000000000000000     
   6.5000000000000058E-003     0.0000000000000000     
   7.6000000000000234E-003     0.0000000000000000     
   8.7000000000000133E-003     0.0000000000000000     
   9.8000000000000032E-003     0.0000000000000000     
   1.0900000000000021E-002     0.0000000000000000     
   1.2000000000000011E-002     0.0000000000000000     
   1.3100000000000001E-002     0.0000000000000000     
   1.4200000000000018E-002     0.0000000000000000     
   1.5300000000000008E-002     0.0000000000000000     
   1.6400000000000026E-002     0.0000000000000000     
   1.7500000000000016E-002     0.0000000000000000     
   1.8600000000000005E-002     0.0000000000000000     
   1.9700000000000023E-002     0.0000000000000000     
   2.0800000000000013E-002     0.0000000000000000     
   2.1900000000000003E-002     0.0000000000000000     
   2.3000000000000020E-002     0.0000000000000000     
   2.4100000000000010E-002     0.0000000000000000     
   2.5200000000000000E-002     0.0000000000000000     
   2.6300000000000018E-002     0.0000000000000000     
   2.7400000000000008E-002     0.0000000000000000     
   2.8500000000000025E-002     0.0000000000000000     
   2.9600000000000015E-002     0.0000000000000000     
   3.0700000000000005E-002     1.1225382616695561E-039
   3.1800000000000023E-002     5.1055643264812358E-039
   3.2900000000000013E-002     9.8582808354377922E-039
   3.4000000000000002E-002     1.2005061054911355E-038
   3.5100000000000020E-002    -3.8952521236865385E-039
   3.6200000000000010E-002    -3.8680116793320838E-038
   3.7300000000000028E-002    -7.7489285286663260E-038
   3.8400000000000017E-002    -6.6234621599037243E-038
   3.9500000000000007E-002     2.8158336345531187E-038
   4.0600000000000025E-002     1.7260559884192881E-037
   4.1700000000000015E-002     2.9338076381789728E-037
   4.2800000000000005E-002     3.1166785231285278E-037
   4.3900000000000022E-002     1.8024554713021833E-037
   4.5000000000000012E-002    -1.4540494552582536E-037
   4.6100000000000002E-002    -6.5024191337302219E-037
   4.7200000000000020E-002    -1.2114184811070093E-036
   4.8300000000000010E-002    -1.4930044244702963E-036
   4.9400000000000027E-002    -9.3718418761701325E-037
   5.0500000000000017E-002     9.0817536754701343E-037
   5.1600000000000007E-002     3.9115929139520541E-036
   5.2700000000000025E-002     6.9475701986432164E-036
   5.3800000000000014E-002     7.7700790609279621E-036
   5.4900000000000004E-002     3.6763606731795010E-036
   5.6000000000000022E-002    -6.8763024353654297E-036
   5.7100000000000012E-002    -2.2133062637098594E-035
   5.8200000000000002E-002    -3.5377943823472641E-035
   5.9300000000000019E-002    -3.5438878596182649E-035
   6.0400000000000009E-002    -1.0784530819930065E-035
   6.1500000000000027E-002     4.2665871513254176E-035
   6.2600000000000017E-002     1.1244154264179257E-034
   6.3700000000000007E-002     1.6437101182438778E-034
   6.4800000000000024E-002     1.4823926896989034E-034
   6.5900000000000014E-002     1.9035897824712779E-035
   6.7000000000000004E-002    -2.2831371303878726E-034
   6.8100000000000022E-002    -5.2373925035651125E-034
   6.9200000000000012E-002    -7.0978465842109757E-034
   7.0300000000000029E-002    -5.7828797479187878E-034
   7.1400000000000019E-002     3.1182641527488123E-035
   7.2500000000000009E-002     1.0898324983526141E-033
   7.3600000000000027E-002     2.2561767014150235E-033
   7.4700000000000016E-002     2.8646742241183723E-033
   7.5800000000000006E-002     2.1154978044198801E-033
   7.6900000000000024E-002    -5.1225576444719718E-034
   7.8000000000000014E-002    -4.7299404612479451E-033
   7.9100000000000004E-002    -9.0469297592986169E-033
   8.0200000000000021E-002    -1.0861091770140425E-032
   8.1300000000000011E-002    -7.3073968091588672E-033
   8.2400000000000029E-002     3.1506063615964319E-033
   8.3500000000000019E-002     1.8876371371985162E-032
   8.4600000000000009E-002     3.3934543953812185E-032
   8.5700000000000026E-002     3.8847470451849514E-032
   8.6800000000000016E-002     2.3995179237829786E-032
   8.7900000000000006E-002    -1.4706636717717047E-032
   8.9000000000000024E-002    -6.9829989524459425E-032
   9.0100000000000013E-002    -1.1955740307581606E-031
   9.1200000000000003E-002    -1.3154447161047017E-031
   9.2300000000000021E-002    -7.5368071682186207E-032
   9.3400000000000011E-002     5.8571719239177944E-032
   9.4500000000000028E-002     2.4091139693051320E-031
   9.5600000000000018E-002     3.9698078561034213E-031
   9.6700000000000008E-002     4.2285781645165158E-031
   9.7800000000000026E-002     2.2754501337861800E-031
   9.8900000000000016E-002    -2.0796830504739238E-031
  0.10000000000000001         -7.7892356986742562E-031
  0.10110000000000002         -1.2458018325696731E-030
  0.10220000000000001         -1.2929627830599733E-030
  0.10330000000000003         -6.6208932960144699E-031
  0.10440000000000002          6.7372846929062523E-031
  0.10550000000000001          2.3705107524275334E-030
  0.10660000000000003          3.7042450202181834E-030
  0.10770000000000002          3.7654907257165707E-030
  0.10880000000000001          1.8564610937256635E-030
  0.10990000000000003         -2.0228876306519377E-030
  0.11100000000000002         -6.8194888879262580E-030
  0.11210000000000001         -1.0461028661507948E-029
  0.11320000000000002         -1.0454094562182844E-029
  0.11430000000000001         -5.0019348357258137E-030
  0.11540000000000003          5.7048358891329976E-030
  0.11650000000000002          1.8630793775205605E-029
  0.11760000000000001          2.8134106336312703E-029
  0.11870000000000003          2.7690833458982461E-029
  0.11980000000000002          1.2887149272151557E-029
  0.12090000000000001         -1.5310475579151705E-029
  0.12200000000000003         -4.8596163363614440E-029
  0.12310000000000001         -7.2294705320752764E-029
  0.12420000000000003         -7.0067881648902640E-029
  0.12530000000000002         -3.1569211420477782E-029
  0.12640000000000001          3.9624092876466286E-029
  0.12750000000000003          1.2177994892494954E-028
  0.12860000000000002          1.7825857398928454E-028
  0.12970000000000001          1.6976808666031177E-028
  0.13080000000000003          7.3163617324532138E-029
  0.13190000000000002         -1.0007135973051728E-028
  0.13300000000000001         -2.9521934490361051E-028
  0.13410000000000000         -4.2405676183562732E-028
  0.13520000000000004         -3.9548741197644373E-028
  0.13630000000000003         -1.6006434545427131E-028
  0.13740000000000002          2.4849604314545607E-028
  0.13850000000000001          6.9693493404206995E-028
  0.13960000000000000          9.7942352044249922E-028
  0.14070000000000005          8.9142197983708575E-028
  0.14180000000000004          3.3176923289178364E-028
  0.14290000000000003         -6.0705121210548511E-028
  0.14400000000000002         -1.6100319016144748E-027
  0.14510000000000001         -2.2099968746763999E-027
  0.14620000000000000         -1.9599546144252600E-027
  0.14730000000000004         -6.6054792691222255E-028
  0.14840000000000003          1.4491759623789021E-027
  0.14950000000000002          3.6453798352327701E-027
  0.15060000000000001          4.8935585778944191E-027
  0.15170000000000000          4.2385792392219649E-027
  0.15280000000000005          1.2982489511133158E-027
  0.15390000000000004         -3.3432697274241477E-027
  0.15500000000000003         -8.0698295160763451E-027
  0.15610000000000002         -1.0644158884991059E-026
  0.15720000000000001         -9.0644864262936108E-027
  0.15830000000000000         -2.6090742038480379E-027
  0.15940000000000004          7.3698793601881283E-027
  0.16050000000000003          1.7371674482613650E-026
  0.16160000000000002          2.2674381985027006E-026
  0.16270000000000001          1.9160953640169186E-026
  0.16380000000000000          5.4752058947511055E-027
  0.16490000000000005         -1.5409004636506975E-026
  0.16600000000000004         -3.6146282091933122E-026
  0.16710000000000003         -4.7028503506330444E-026
  0.16820000000000002         -3.9763652426056215E-026
  0.16930000000000001         -1.1814204869707017E-026
  0.17040000000000000          3.0568073181796650E-026
  0.17150000000000004          7.2452284869740280E-026
  0.17260000000000003          9.4425196735979264E-026
  0.17370000000000002          8.0190633278763572E-026
  0.17480000000000001          2.5078839169204075E-026
  0.17590000000000000         -5.8221758114645349E-026
  0.17700000000000005         -1.4022712309267556E-025
  0.17810000000000004         -1.8316323643864731E-025
  0.17920000000000003         -1.5585936181928878E-025
  0.18030000000000002         -5.0037282508653760E-026
  0.18140000000000001          1.0912655966200967E-025
  0.18250000000000000          2.6473545471956760E-025
  0.18360000000000004          3.4500408526333851E-025
  0.18470000000000003          2.9182395085875472E-025
  0.18580000000000002          9.1303711573356883E-026
  0.18690000000000001         -2.0719305023461057E-025
  0.18800000000000000         -4.9555201856366037E-025
  0.18910000000000005         -6.3959500085979832E-025
  0.19020000000000004         -5.3295717381009510E-025
  0.19130000000000003         -1.5347851572062926E-025
  0.19240000000000002          4.0296147874078997E-025
  0.19350000000000001          9.3291774140848234E-025
  0.19460000000000005          1.1877327071582024E-024
  0.19570000000000004          9.7379899791150520E-025
  0.19680000000000003          2.5567482714591385E-025
  0.19790000000000002         -7.8388236429731038E-025
  0.19900000000000001         -1.7658965025879309E-024
  0.20010000000000000         -2.2315694858579656E-024
  0.20120000000000005         -1.8262832425088177E-024
  0.20230000000000004         -4.8681789505647473E-025
  0.20340000000000003          1.4511505504472222E-024
  0.20450000000000002          3.2944235146525817E-024
  0.20560000000000000          4.2033518789221180E-024
  0.20670000000000005          3.5233389672806366E-024
  0.20780000000000004          1.1213407150757592E-024
  0.20890000000000003         -2.4197736994929215E-024
  0.21000000000000002         -5.8706655894791386E-024
  0.21110000000000001         -7.7248048475827825E-024
  0.21220000000000000         -6.7808533933751515E-024
  0.21330000000000005         -2.7367013912043503E-024
  0.21440000000000003          3.4604644461759420E-024
  0.21550000000000002          9.7188715363697465E-024
  0.21660000000000001          1.3424662795048221E-023
  0.21770000000000000          1.2434956992861503E-023
  0.21880000000000005          6.0989350089818647E-024
  0.21990000000000004         -4.1270281353194572E-024
  0.22100000000000003         -1.4827736759923298E-023
  0.22210000000000002         -2.1649252781656233E-023
  0.22320000000000001         -2.0946028244599398E-023
  0.22430000000000000         -1.1484438712545765E-023
  0.22540000000000004          4.5189828034852823E-024
  0.22650000000000003          2.1617590432143820E-023
  0.22760000000000002          3.2791385817026803E-023
  0.22870000000000001          3.2135629360869246E-023
  0.22980000000000000          1.7640984500362028E-023
  0.23090000000000005         -7.1196117448468537E-024
  0.23200000000000004         -3.3365754552211352E-023
  0.23310000000000003         -4.9830641409327781E-023
  0.23420000000000002         -4.7156654683183968E-023
  0.23530000000000001         -2.2420438834396137E-023
  0.23640000000000000          1.8151987454524801E-023
  0.23750000000000004          5.9860259363150381E-023
  0.23860000000000003          8.4055479562380896E-023
  0.23970000000000002          7.5415259209797616E-023
  0.24080000000000001          2.9439316353855684E-023
  0.24190000000000000         -4.3014048958429318E-023
  0.24300000000000005         -1.1676184133742992E-022
  0.24410000000000004         -1.5970725672836481E-022
  0.24520000000000003         -1.4490147369504575E-022
  0.24630000000000002         -6.3191455862333853E-023
  0.24740000000000001          6.8728967726848596E-023
  0.24850000000000005          2.0922232859700783E-022
  0.24960000000000004          3.0310784386424803E-022
  0.25070000000000003          3.0107441885182297E-022
  0.25180000000000002          1.8082148320071134E-022
  0.25290000000000001         -3.8311685370226723E-023
  0.25400000000000000         -2.9441237904675976E-022
  0.25510000000000005         -4.9874807074793777E-022
  0.25620000000000004         -5.6501386297667422E-022
  0.25730000000000003         -4.4287899916069750E-022
  0.25840000000000002         -1.4331263799648467E-022
  0.25950000000000001          2.5565462890646555E-022
  0.26060000000000005          6.2811803468385680E-022
  0.26170000000000004          8.4070871263365311E-022
  0.26280000000000003          8.0144829796669232E-022
  0.26390000000000002          4.9899675762580521E-022
  0.26500000000000001          1.5500932327903290E-023
  0.26610000000000000         -4.9544854840229296E-022
  0.26720000000000005         -8.6123855050256949E-022
  0.26830000000000004         -9.5547092356305884E-022
  0.26940000000000003         -7.5079140388562021E-022
  0.27050000000000002         -3.3584354835386390E-022
  0.27160000000000001          1.1520524107946429E-022
  0.27270000000000005          4.1349120917541384E-022
  0.27380000000000004          4.4103609582233240E-022
  0.27490000000000003          2.1500596410964022E-022
  0.27600000000000002         -1.0203676259036188E-022
  0.27710000000000001         -2.6033268388495694E-022
  0.27820000000000000         -3.6152813484610259E-023
  0.27930000000000005          6.4066991739479267E-022
  0.28040000000000004          1.6005360876035122E-021
  0.28150000000000003          2.4386252743400513E-021
  0.28260000000000002          2.6308466908089783E-021
  0.28370000000000001          1.7382688853709285E-021
  0.28480000000000005         -3.6594861494625241E-022
  0.28590000000000004         -3.3376412697541917E-021
  0.28700000000000003         -6.3536326812940942E-021
  0.28810000000000002         -8.2946536068873051E-021
  0.28920000000000001         -8.0917099209348254E-021
  0.29030000000000000         -5.1386740788766318E-021
  0.29140000000000005          3.7111990619862779E-022
  0.29250000000000004          7.3248531441396963E-021
  0.29360000000000003          1.3872033316119600E-020
  0.29470000000000002          1.7896911195729571E-020
  0.29580000000000001          1.7663052177754211E-020
  0.29690000000000005          1.2432410822952085E-020
  0.29800000000000004          2.8435166373451822E-021
  0.29910000000000003         -9.1084434978524675E-021
  0.30020000000000002         -2.0525084037334311E-020
  0.30130000000000001         -2.8380198676829014E-020
  0.30240000000000000         -3.0384261718407421E-020
  0.30350000000000005         -2.5658356880468853E-020
  0.30460000000000004         -1.4988435381160647E-020
  0.30570000000000003         -5.6919171356767609E-022
  0.30680000000000002          1.4672783970693337E-020
  0.30790000000000001          2.7929998972719978E-020
  0.30900000000000005          3.7221884577430381E-020
  0.31010000000000004          4.1692964906644623E-020
  0.31120000000000003          4.1397930710951308E-020
  0.31230000000000002          3.6690704455642937E-020
  0.31340000000000001          2.7529311705338724E-020
  0.31450000000000006          1.3093486990839294E-020
  0.31560000000000005         -7.9626779460072022E-021
  0.31670000000000004         -3.6530846107866579E-020
  0.31780000000000003         -7.1568743144495507E-020
  0.31890000000000002         -1.0864941383247281E-019
  0.32000000000000001         -1.3923383921389155E-019
  0.32110000000000005         -1.5130569754384651E-019
  0.32220000000000004         -1.3170754530064495E-019
  0.32330000000000003         -7.0025860152658809E-020
  0.32440000000000002          3.6691546751453400E-020
  0.32550000000000001          1.7959157093943327E-019
  0.32660000000000006          3.3551219376195079E-019
  0.32770000000000005          4.6771725421499338E-019
  0.32880000000000004          5.3081678592902854E-019
  0.32990000000000003          4.8000995012508507E-019
  0.33100000000000002          2.8370641964725035E-019
  0.33210000000000001         -6.2616874604694986E-020
  0.33320000000000005         -5.2456531191892553E-019
  0.33430000000000004         -1.0229338877148235E-018
  0.33540000000000003         -1.4377180487602141E-018
  0.33650000000000002         -1.6249215063919342E-018
  0.33760000000000001         -1.4467592316101666E-018
  0.33870000000000006         -8.1234364525237208E-019
  0.33980000000000005          2.7830824107401316E-019
  0.34090000000000004          1.6981900257095917E-018
  0.34200000000000003          3.1789161060852584E-018
  0.34310000000000002          4.3312776101529388E-018
  0.34420000000000001          4.7091396988494154E-018
  0.34530000000000005          3.9155343308170012E-018
  0.34640000000000004          1.7365130229093594E-018
  0.34750000000000003         -1.7260312833789895E-018
  0.34860000000000002         -5.9627054874578738E-018
  0.34970000000000001         -1.0049723608103984E-017
  0.35080000000000006         -1.2761756138180941E-017
  0.35190000000000005         -1.2816727418737328E-017
  0.35300000000000004         -9.2295251613883042E-018
  0.35410000000000003         -1.7100531600644226E-018
  0.35520000000000002          8.9963286504765516E-018
  0.35630000000000001          2.0948156722679201E-017
  0.35740000000000005          3.1140095769490679E-017
  0.35850000000000004          3.5994853887715980E-017
  0.35960000000000003          3.2199039399852057E-017
  0.36070000000000002          1.7760404735687376E-017
  0.36180000000000001         -6.9441766540576017E-018
  0.36290000000000006         -3.8438113175416183E-017
  0.36400000000000005         -7.0054665325438019E-017
  0.36510000000000004         -9.2735055018148652E-017
  0.36620000000000003         -9.6792476285953286E-017
  0.36730000000000002         -7.4468458848692378E-017
  0.36840000000000006         -2.2822644204044177E-017
  0.36950000000000005          5.3752929519212427E-017
  0.37060000000000004          1.4223590897380207E-016
  0.37170000000000003          2.2167147395038797E-016
  0.37280000000000002          2.6634477622547814E-016
  0.37390000000000001          2.5137244130614405E-016
  0.37500000000000006          1.5996519201360941E-016
  0.37610000000000005         -9.0998352457355659E-018
  0.37720000000000004         -2.3579851409547634E-016
  0.37830000000000003         -4.7713789861496899E-016
  0.37940000000000002         -6.7118524580580469E-016
  0.38050000000000006         -7.4765257955864007E-016
  0.38160000000000005         -6.4431980707368519E-016
  0.38270000000000004         -3.2675874645074443E-016
  0.38380000000000003          1.9289280223136456E-016
  0.38490000000000002          8.4348147314176456E-016
  0.38600000000000001          1.4941254987369443E-015
  0.38710000000000000          1.9692578710233462E-015
  0.38819999999999999          2.0805494048965436E-015
  0.38930000000000009          1.6727253161744091E-015
  0.39040000000000008          6.7568280634753994E-016
  0.39150000000000007         -8.4874373628267953E-016
  0.39260000000000006         -2.6793023655789757E-015
  0.39370000000000005         -4.4404360965795038E-015
  0.39480000000000004         -5.6490353454462823E-015
  0.39590000000000003         -5.8039919186516256E-015
  0.39700000000000002         -4.5091231332764656E-015
  0.39810000000000001         -1.6086241627086389E-015
  0.39920000000000000          2.6953771476014784E-015
  0.40029999999999999          7.7783953658518487E-015
  0.40140000000000009          1.2614939050928847E-014
  0.40250000000000008          1.5906804680127227E-014
  0.40360000000000007          1.6319343537289008E-014
  0.40470000000000006          1.2800418549940651E-014
  0.40580000000000005          4.9289268295451365E-015
  0.40690000000000004         -6.7832426927707671E-015
  0.40800000000000003         -2.0723173967242281E-014
  0.40910000000000002         -3.4223584818394232E-014
  0.41020000000000001         -4.3877134532813755E-014
  0.41130000000000000         -4.6122975030044289E-014
  0.41239999999999999         -3.8046931199116233E-014
  0.41350000000000009         -1.8269489125447190E-014
  0.41460000000000008          1.2260789840059230E-014
  0.41570000000000007          4.9780990558232089E-014
  0.41680000000000006          8.7736224994992707E-014
  0.41790000000000005          1.1745241210016884E-013
  0.41900000000000004          1.2949207303230633E-013
  0.42010000000000003          1.1557988526728328E-013
  0.42120000000000002          7.0824909637535650E-014
  0.42230000000000001         -4.1757161537492830E-015
  0.42340000000000000         -1.0185410929992499E-013
  0.42449999999999999         -2.0731217682579632E-013
  0.42560000000000009         -2.9947671890987101E-013
  0.42670000000000008         -3.5393543861648122E-013
  0.42780000000000007         -3.4729990398887851E-013
  0.42890000000000006         -2.6257162215455280E-013
  0.43000000000000005         -9.4633816252856341E-014
  0.43110000000000004          1.4526636390399262E-013
  0.43220000000000003          4.2726430379235633E-013
  0.43330000000000002          7.0392398216248096E-013
  0.43440000000000001          9.1524310288342218E-013
  0.43550000000000000          9.9763069386690738E-013
  0.43659999999999999          8.9605749573549326E-013
  0.43770000000000009          5.7773161117090062E-013
  0.43880000000000008          4.4925273013163252E-014
  0.43990000000000007         -6.5584623539249145E-013
  0.44100000000000006         -1.4310684553958960E-012
  0.44210000000000005         -2.1460875545008476E-012
  0.44320000000000004         -2.6406329054125500E-012
  0.44430000000000003         -2.7534277249085099E-012
  0.44540000000000002         -2.3534131063298134E-012
  0.44650000000000001         -1.3732482768596246E-012
  0.44760000000000000          1.6073621244682720E-013
  0.44869999999999999          2.1086855885267257E-012
  0.44980000000000009          4.2136976170605875E-012
  0.45090000000000008          6.1193127272181693E-012
  0.45200000000000007          7.4099361138796355E-012
  0.45310000000000006          7.6723809606353009E-012
  0.45420000000000005          6.5724647807336533E-012
  0.45530000000000004          3.9364769612286182E-012
  0.45640000000000003         -1.7589615298840957E-013
  0.45750000000000002         -5.4221876917321394E-012
  0.45860000000000001         -1.1165630513694237E-011
  0.45970000000000000         -1.6512501032888119E-011
  0.46079999999999999         -2.0403437286099087E-011
  0.46190000000000009         -2.1755737775804782E-011
  0.46300000000000008         -1.9644356889761802E-011
  0.46410000000000007         -1.3500056936903450E-011
  0.46520000000000006         -3.2954726911844776E-012
  0.46630000000000005          1.0314607253776083E-011
  0.46740000000000004          2.5932442531879876E-011
  0.46850000000000003          4.1464208040103549E-011
  0.46960000000000002          5.4291547605678836E-011
  0.47070000000000001          6.1568675578858580E-011
  0.47180000000000000          6.0626181264388651E-011
  0.47289999999999999          4.9441908347485504E-011
  0.47400000000000009          2.7120266044764246E-011
  0.47510000000000008         -5.6923758603881882E-012
  0.47620000000000007         -4.6534343355559928E-011
  0.47730000000000006         -9.1070337162913037E-011
  0.47840000000000005         -1.3330441059444217E-010