 -0.119999997         0.00000000    
 -0.119000003         0.00000000    
 -0.118000001         0.00000000    
 -0.116999999         0.00000000    
 -0.115999997         0.00000000    
 -0.115000002         0.00000000    
 -0.114000000         0.00000000    
 -0.112999998         0.00000000    
 -0.112000003         0.00000000    
 -0.111000001         0.00000000    
 -0.109999999         0.00000000    
 -0.108999997         0.00000000    
 -0.108000003         0.00000000    
 -0.107000001         0.00000000    
 -0.105999999         0.00000000    
 -0.104999997         0.00000000    
 -0.104000002         0.00000000    
 -0.103000000         0.00000000    
 -0.101999998         0.00000000    
 -0.101000004         0.00000000    
 -0.100000001         0.00000000    
  -9.89999995E-02     0.00000000    
  -9.79999974E-02     0.00000000    
  -9.70000029E-02     0.00000000    
  -9.60000008E-02     0.00000000    
  -9.49999988E-02     0.00000000    
  -9.39999968E-02     0.00000000    
  -9.30000022E-02     0.00000000    
  -9.20000002E-02     0.00000000    
  -9.09999982E-02     0.00000000    
  -9.00000036E-02     0.00000000    
  -8.90000015E-02     0.00000000    
  -8.79999995E-02     0.00000000    
  -8.69999975E-02     0.00000000    
  -8.60000029E-02     0.00000000    
  -8.50000009E-02     0.00000000    
  -8.39999989E-02     0.00000000    
  -8.29999968E-02     0.00000000    
  -8.20000023E-02     0.00000000    
  -8.10000002E-02     0.00000000    
  -7.99999982E-02     0.00000000    
  -7.90000036E-02     0.00000000    
  -7.80000016E-02    -0.00000000    
  -7.69999996E-02    -0.00000000    
  -7.59999976E-02    -0.00000000    
  -7.50000030E-02    -0.00000000    
  -7.40000010E-02     1.53181078E-38
  -7.29999989E-02     4.98040868E-38
  -7.19999969E-02     9.52976114E-38
  -7.10000023E-02     8.44557988E-38
  -7.00000003E-02    -1.38284942E-37
  -6.89999983E-02    -7.91827979E-37
  -6.80000037E-02    -1.86309326E-36
  -6.70000017E-02    -2.55710468E-36
  -6.59999996E-02    -7.55927654E-37
  -6.49999976E-02     6.74087967E-36
  -6.40000030E-02     2.17875969E-35
  -6.30000010E-02     3.91429402E-35
  -6.19999990E-02     3.87482054E-35
  -6.10000007E-02    -1.71818775E-35
  -5.99999987E-02    -1.68730471E-34
  -5.90000004E-02    -4.09557477E-34
  -5.79999983E-02    -6.05221266E-34
  -5.70000000E-02    -4.21092244E-34
  -5.60000017E-02     6.34154223E-34
  -5.49999997E-02     2.89955628E-33
  -5.40000014E-02     5.89696512E-33
  -5.29999994E-02     7.48018704E-33
  -5.20000011E-02     3.45139394E-33
  -5.09999990E-02    -1.11874942E-32
  -5.00000007E-02    -3.81452031E-32
  -4.89999987E-02    -6.88966878E-32
  -4.80000004E-02    -7.78043489E-32
  -4.69999984E-02    -2.23853063E-32
  -4.60000001E-02     1.39289968E-31
  -4.50000018E-02     4.06998697E-31
  -4.39999998E-02     6.79168662E-31
  -4.30000015E-02     7.08157341E-31
  -4.19999994E-02     1.30664026E-31
  -4.10000011E-02    -1.35675163E-30
  -3.99999991E-02    -3.64925356E-30
  -3.90000008E-02    -5.80320985E-30
  -3.79999988E-02    -5.79639687E-30
  -3.70000005E-02    -9.14287939E-31
  -3.59999985E-02     1.08198549E-29
  -3.50000001E-02     2.81401025E-29
  -3.40000018E-02     4.37736643E-29
  -3.29999998E-02     4.33516629E-29
  -3.20000015E-02     8.71440643E-30
  -3.09999995E-02    -7.21930928E-29
  -2.99999993E-02    -1.89422998E-28
  -2.89999992E-02    -2.94918086E-28
  -2.80000009E-02    -2.98095846E-28
  -2.70000007E-02    -8.83198491E-29
  -2.60000005E-02     4.05235353E-28
  -2.50000004E-02     1.12273348E-27
  -2.40000002E-02     1.78667365E-27
  -2.30000000E-02     1.88387014E-27
  -2.19999999E-02     7.93998997E-28
  -2.09999997E-02    -1.88794098E-27
  -1.99999996E-02    -5.87787733E-27
  -1.89999994E-02    -9.76074469E-27
  -1.79999992E-02    -1.09031732E-26
  -1.70000009E-02    -6.08810915E-27
  -1.60000008E-02     6.92095097E-27
  -1.49999997E-02     2.71065734E-26
  -1.40000004E-02     4.80727244E-26
  -1.30000003E-02     5.75331481E-26
  -1.20000001E-02     4.00416335E-26
  -1.09999999E-02    -1.61305523E-26
  -9.99999978E-03    -1.08911234E-25
  -8.99999961E-03    -2.12758646E-25
  -8.00000038E-03    -2.75530157E-25
  -7.00000022E-03    -2.28689174E-25
  -6.00000005E-03    -1.47755142E-26
  -4.99999989E-03     3.71205993E-25
  -4.00000019E-03     8.40317316E-25
  -3.00000003E-03     1.19182309E-24
  -2.00000009E-03     1.14568212E-24
  -1.00000005E-03     4.42084554E-25
   0.00000000        -1.00153357E-24
   1.00000005E-03    -2.92391314E-24
   2.00000009E-03    -4.62865398E-24
   3.00000003E-03    -5.06710919E-24
   4.00000019E-03    -3.16363594E-24
   4.99999989E-03     1.63563949E-24
   6.00000005E-03     8.74021595E-24
   7.00000022E-03     1.59995664E-23
   8.00000038E-03     1.98373811E-23
   8.99999961E-03     1.61981779E-23
   9.99999978E-03     2.30498372E-24
   1.09999999E-02    -2.11888102E-23
   1.20000001E-02    -4.85096635E-23
   1.30000003E-02    -6.86443473E-23
   1.40000004E-02    -6.77326386E-23
   1.49999997E-02    -3.41869345E-23
   1.60000008E-02     3.44720320E-23
   1.70000009E-02     1.25453118E-22
   1.79999992E-02     2.08528312E-22
   1.89999994E-02     2.40987515E-22
   1.99999996E-02     1.81037595E-22
   2.09999997E-02     7.63226397E-24
   2.19999999E-02    -2.59311580E-22
   2.30000000E-02    -5.47497791E-22
   2.40000002E-02    -7.39170898E-22
   2.50000004E-02    -7.01993107E-22
   2.60000005E-02    -3.41159547E-22
   2.70000007E-02     3.40877652E-22
   2.80000009E-02     1.20034368E-21
   2.89999992E-02     1.95039858E-21
   2.99999993E-02     2.22128186E-21
   3.09999995E-02     1.68300599E-21
   3.20000015E-02     2.04027248E-22
   3.29999998E-02    -2.00760067E-21
   3.40000018E-02    -4.34864035E-21
   3.50000001E-02    -5.90958024E-21
   3.59999985E-02    -5.72864337E-21
   3.70000005E-02    -3.16929102E-21
   3.79999988E-02     1.68891086E-21
   3.90000008E-02     7.80395552E-21
   3.99999991E-02     1.32264807E-20
   4.10000011E-02     1.55458919E-20
   4.19999994E-02     1.26880039E-20
   4.30000015E-02     3.86589806E-21
   4.39999998E-02    -9.64688323E-21
   4.50000018E-02    -2.42942736E-20
   4.60000001E-02    -3.48446279E-20
   4.69999984E-02    -3.58642249E-20
   4.80000004E-02    -2.37603027E-20
   4.89999987E-02     1.22635695E-21
   5.00000007E-02     3.38775794E-20
   5.09999990E-02     6.44165997E-20
   5.20000011E-02     8.08108930E-20
   5.29999994E-02     7.26427235E-20
   5.40000014E-02     3.55270971E-20
   5.49999997E-02    -2.54545673E-20
   5.60000017E-02    -9.49009647E-20
   5.70000000E-02    -1.49878923E-19
   5.79999983E-02    -1.66322123E-19
   5.90000004E-02    -1.27628993E-19
   5.99999987E-02    -3.28318196E-20
   6.10000007E-02     9.88327933E-20
   6.19999990E-02     2.29611043E-19
   6.30000010E-02     3.12188691E-19
   6.40000030E-02     3.04484822E-19
   6.49999976E-02     1.86322575E-19
   6.59999996E-02    -2.76708265E-20
   6.70000017E-02    -2.84597073E-19
   6.80000037E-02    -5.02854985E-19
   6.89999983E-02    -5.94469322E-19
   7.00000003E-02    -4.95209561E-19
   7.10000023E-02    -1.93530188E-19
   7.19999969E-02     2.52335194E-19
   7.29999989E-02     7.18059101E-19
   7.40000010E-02     1.04131586E-18
   7.50000030E-02     1.07011560E-18
   7.59999976E-02     7.19142087E-19
   7.69999996E-02     1.62479598E-20
   7.80000016E-02    -8.79360406E-19
   7.90000036E-02    -1.70013843E-18
   7.99999982E-02    -2.13610666E-18
   8.10000002E-02    -1.93112552E-18
   8.20000023E-02    -9.83996789E-19
   8.29999968E-02     5.78425327E-19
   8.39999989E-02     2.38689976E-18
   8.50000009E-02     3.89247622E-18
   8.60000029E-02     4.50331105E-18
   8.69999975E-02     3.76819853E-18
   8.79999995E-02     1.55849203E-18
   8.90000015E-02    -1.80982920E-18
   9.00000036E-02    -5.56600156E-18
   9.09999982E-02    -8.61463527E-18
   9.20000002E-02    -9.79752836E-18
   9.30000022E-02    -8.23649213E-18
   9.39999968E-02    -3.67124759E-18
   9.49999988E-02     3.31023909E-18
   9.60000008E-02     1.12415690E-17
   9.70000029E-02     1.80012385E-17
   9.79999974E-02     2.12801361E-17
   9.89999995E-02     1.92112780E-17
  0.100000001         1.10159704E-17
  0.101000004        -2.51503024E-18
  0.101999998        -1.88783361E-17
  0.103000000        -3.41670592E-17
  0.104000002        -4.38438018E-17
  0.104999997        -4.38620626E-17
  0.105999999        -3.18990689E-17
  0.107000001        -8.38230753E-18
  0.108000003         2.30180260E-17
  0.108999997         5.56794726E-17
  0.109999999         8.11857853E-17
  0.111000001         9.12167068E-17
  0.112000003         7.98027988E-17
  0.112999998         4.54032126E-17
  0.114000000        -7.79667689E-18
  0.115000002        -6.98762080E-17
  0.115999997        -1.26711881E-16
  0.116999999        -1.62925252E-16
  0.118000001        -1.65703229E-16
  0.119000003        -1.28602710E-16
  0.119999997        -5.42908249E-17
  0.120999999         4.47152002E-17
  0.122000001         1.47845683E-16
  0.123000003         2.30718858E-16
  0.123999998         2.71014544E-16
  0.125000000         2.54567705E-16
  0.126000002         1.79978818E-16
  0.127000004         6.02145134E-17
  0.128000006        -7.96611591E-17
  0.128999993        -2.08435538E-16
  0.129999995        -2.97022082E-16
  0.130999997        -3.26773082E-16
  0.131999999        -2.95186535E-16
  0.133000001        -2.16811291E-16
  0.134000003        -1.18420685E-16
  0.135000005        -2.93426771E-17
  0.136000007         3.02861229E-17
  0.136999995         5.92763318E-17
  0.137999997         7.89276748E-17
  0.138999999         1.27451076E-16
  0.140000001         2.45040199E-16
  0.141000003         4.52801155E-16
  0.142000005         7.31962463E-16
  0.143000007         1.01159790E-15
  0.143999994         1.17252272E-15
  0.144999996         1.07162479E-15
  0.145999998         5.85067309E-16
  0.147000000        -3.38186613E-16
  0.148000002        -1.62722790E-15
  0.149000004        -3.06223925E-15
  0.150000006        -4.28580121E-15
  0.150999993        -4.86126947E-15
  0.151999995        -4.37502893E-15
  0.152999997        -2.56520858E-15
  0.153999999         5.53311514E-16
  0.155000001         4.60484041E-15
  0.156000003         8.84504330E-15
  0.157000005         1.22520580E-14
  0.158000007         1.37173962E-14
  0.158999994         1.23102483E-14
  0.159999996         7.56295136E-15
  0.160999998        -2.92154210E-16
  0.162000000        -1.02066115E-14
  0.163000003        -2.03766193E-14
  0.164000005        -2.85031059E-14
  0.165000007        -3.22278588E-14
  0.165999994        -2.96743898E-14
  0.166999996        -1.99837129E-14
  0.167999998        -3.71745185E-15
  0.169000000         1.69891550E-14
  0.170000002         3.86018020E-14
  0.171000004         5.67029300E-14
  0.172000006         6.67870232E-14
  0.172999993         6.52026718E-14
  0.173999995         5.00591796E-14
  0.174999997         2.19010059E-14
  0.175999999        -1.60203305E-14
  0.177000001        -5.79817363E-14
  0.178000003        -9.65436430E-14
  0.179000005        -1.23734627E-13
  0.180000007        -1.32484166E-13
  0.180999994        -1.18060875E-13
  0.181999996        -7.92545351E-14
  0.182999998        -1.90681397E-14
  0.184000000         5.52437497E-14
  0.185000002         1.32855397E-13
  0.186000004         2.00722441E-13
  0.187000006         2.45454265E-13
  0.187999994         2.55467820E-13
  0.188999996         2.23129132E-13
  0.189999998         1.46567613E-13
  0.191000000         3.08636648E-14
  0.192000002        -1.11642032E-13
  0.193000004        -2.62088067E-13
  0.194000006        -3.96941947E-13
  0.194999993        -4.90884948E-13
  0.195999995        -5.20502478E-13
  0.196999997        -4.68387048E-13
  0.197999999        -3.27113635E-13
  0.199000001        -1.02439460E-13
  0.200000003         1.84950999E-13
  0.201000005         4.99764021E-13
  0.202000007         7.94889220E-13
  0.202999994         1.01675786E-12
  0.203999996         1.11294134E-12
  0.204999998         1.04119675E-12
  0.206000000         7.78734932E-13
  0.207000002         3.30171302E-13
  0.208000004        -2.67493981E-13
  0.209000006        -9.44357006E-13
  0.209999993        -1.60258623E-12
  0.210999995        -2.12719295E-12
  0.211999997        -2.40195602E-12
  0.213000000        -2.32884653E-12
  0.214000002        -1.84835936E-12
  0.215000004        -9.57484851E-13
  0.216000006         2.78204461E-13
  0.216999993         1.72159812E-12
  0.217999995         3.17257115E-12
  0.218999997         4.38888596E-12
  0.219999999         5.11846121E-12
  0.221000001         5.13987550E-12
  0.222000003         4.30594015E-12
  0.223000005         2.58358330E-12
  0.224000007         8.25165741E-14
  0.224999994        -2.93450117E-12
  0.225999996        -6.06533096E-12
  0.226999998        -8.80861703E-12
  0.228000000        -1.06289621E-11
  0.229000002        -1.10409624E-11
  0.230000004        -9.70141155E-12
  0.231000006        -6.49532294E-12
  0.231999993        -1.59960586E-12
  0.232999995         4.49108545E-12
  0.233999997         1.09882017E-11
  0.234999999         1.68882200E-11
  0.236000001         2.11032702E-11
  0.237000003         2.26302657E-11
  0.238000005         2.07360119E-11
  0.238999993         1.51288114E-11
  0.239999995         6.08427588E-12
  0.240999997        -5.50454213E-12
  0.241999999        -1.81741098E-11
  0.243000001        -3.00423332E-11
  0.244000003        -3.90559217E-11
  0.245000005        -4.33054217E-11
  0.246000007        -4.13639123E-11
  0.246999994        -3.25947672E-11
  0.247999996        -1.73713804E-11
  0.248999998         2.84075129E-12
  0.250000000         2.55721607E-11
  0.250999987         4.76149328E-11
  0.252000004         6.54434354E-11
  0.252999991         7.57387972E-11
  0.254000008         7.59422039E-11
  0.254999995         6.47489978E-11
  0.256000012         4.24563752E-11
  0.256999999         1.10932296E-11
  0.257999986        -2.57099220E-11
  0.259000003        -6.31141112E-11
  0.259999990        -9.56887000E-11
  0.261000007        -1.18173235E-10
  0.261999995        -1.26277128E-10
  0.263000011        -1.17396634E-10
  0.263999999        -9.11348635E-11
  0.264999986        -4.95343142E-11
  0.266000003         3.02906398E-12
  0.266999990         6.02923267E-11
  0.268000007         1.14844946E-10
  0.268999994         1.59069549E-10
  0.270000011         1.86161517E-10
  0.270999998         1.91092142E-10
  0.272000015         1.71385114E-10
  0.273000002         1.27599681E-10
  0.273999989         6.34501687E-11
  0.275000006        -1.44642761E-11
  0.275999993        -9.72999736E-11
  0.277000010        -1.74916789E-10
  0.277999997        -2.37037584E-10
  0.279000014        -2.74497813E-10
  0.280000001        -2.80451468E-10
  0.280999988        -2.51396459E-10
  0.282000005        -1.87892576E-10
  0.282999992        -9.48643941E-11
  0.284000009         1.85869098E-11
  0.284999996         1.39895928E-10
  0.286000013         2.54249122E-10
  0.287000000         3.46222634E-10
  0.287999988         4.01694539E-10
  0.289000005         4.09826395E-10
  0.289999992         3.64863390E-10
  0.291000009         2.67486810E-10
  0.291999996         1.25469454E-10
  0.293000013        -4.65547809E-11
  0.294000000        -2.28297936E-10
  0.294999987        -3.95962069E-10
  0.296000004        -5.25136101E-10
  0.296999991        -5.94123306E-10
  0.298000008        -5.87271620E-10
  0.298999995        -4.97823394E-10
  0.300000012        -3.29817618E-10
  0.300999999        -9.86667761E-11
  0.301999986         1.69814121E-10
  0.303000003         4.41942788E-10
  0.303999990         6.80058398E-10
  0.305000007         8.47340087E-10
  0.305999994         9.12961318E-10
  0.307000011         8.56892668E-10
  0.307999998         6.73660849E-10
  0.308999985         3.74464515E-10
  0.310000002        -1.27686871E-11
  0.310999990        -4.45553233E-10
  0.312000006        -8.71124117E-10
  0.312999994        -1.23241506E-09
  0.314000010        -1.47507473E-09
  0.314999998        -1.55467927E-09
  0.316000015        -1.44321122E-09
  0.317000002        -1.13391185E-09
  0.317999989        -6.43763154E-10
  0.319000006        -1.31185366E-11
  0.319999993         6.97646441E-10
  0.321000010         1.41419998E-09
  0.321999997         2.05637996E-09
  0.323000014         2.54739585E-09
  0.324000001         2.82290946E-09
  0.324999988         2.83874924E-09
  0.326000005         2.57615662E-09
  0.326999992         2.04378692E-09
  0.328000009         1.27616862E-09
  0.328999996         3.28896771E-10
  0.330000013        -7.28608507E-10
  0.331000000        -1.82149062E-09
  0.331999987        -2.87745228E-09
  0.333000004        -3.83283894E-09
  0.333999991        -4.63561189E-09
  0.335000008        -5.24459498E-09
  0.335999995        -5.62513858E-09
  0.337000012        -5.74218362E-09
  0.338000000        -5.55238655E-09
  0.338999987        -4.99748865E-09
  0.340000004        -4.00117628E-09
  0.340999991        -2.47142085E-09
  0.342000008        -3.09603676E-10
  0.342999995         2.57322830E-09
  0.344000012         6.23370022E-09
  0.344999999         1.06687761E-08
  0.345999986         1.57862505E-08
  0.347000003         2.13759233E-08
  0.347999990         2.70841927E-08
  0.349000007         3.23942793E-08
  0.349999994         3.66132191E-08
  0.351000011         3.88657817E-08
  0.351999998         3.80939547E-08
  0.352999985         3.30597771E-08
  0.354000002         2.23480470E-08
  0.354999989         4.36510295E-09
  0.356000006        -2.26707986E-08
  0.356999993        -6.07518871E-08
  0.358000010        -1.12120553E-07
  0.358999997        -1.79330513E-07
  0.360000014        -2.65333398E-07
  0.361000001        -3.73594304E-07
  0.361999989        -5.08239680E-07
  0.363000005        -6.74239175E-07
  0.363999993        -8.77623961E-07
  0.365000010        -1.12574230E-06
  0.365999997        -1.42755164E-06
  0.367000014        -1.79394908E-06
  0.368000001        -2.23813822E-06
  0.368999988        -2.77603658E-06
  0.370000005        -3.42672433E-06
  0.370999992        -4.21294044E-06
  0.372000009        -5.16163618E-06
  0.372999996        -6.30459090E-06
  0.374000013        -7.67910933E-06
  0.375000000        -9.32881176E-06
  0.375999987        -1.13045235E-05
  0.377000004        -1.36652970E-05
  0.377999991        -1.64795474E-05
  0.379000008        -1.98263460E-05
  0.379999995        -2.37968579E-05
  0.381000012        -2.84959169E-05
  0.381999999        -3.40437764E-05
  0.382999986        -4.05779683E-05
  0.384000003        -4.82553405E-05
  0.384999990        -5.72542122E-05
  0.386000007        -6.77766438E-05
  0.386999995        -8.00508278E-05
  0.388000011        -9.43336418E-05
  0.388999999        -1.10913192E-04
  0.389999986        -1.30111526E-04
  0.391000003        -1.52287394E-04
  0.391999990        -1.77838883E-04
  0.393000007        -2.07206293E-04
  0.393999994        -2.40874608E-04
  0.395000011        -2.79376080E-04
  0.395999998        -3.23292537E-04
  0.397000015        -3.73257295E-04
  0.398000002        -4.29956912E-04
  0.398999989        -4.94132168E-04
  0.400000006        -5.66578936E-04
  0.400999993        -6.48147834E-04
  0.402000010        -7.39743584E-04
  0.402999997        -8.42323003E-04
  0.404000014        -9.56892560E-04
  0.405000001        -1.08450407E-03
  0.405999988        -1.22624997E-03
  0.407000005        -1.38325652E-03
  0.407999992        -1.55667588E-03
  0.409000009        -1.74767652E-03
  0.409999996        -1.95743213E-03
  0.411000013        -2.18710909E-03
  0.412000000        -2.43785069E-03
  0.412999988        -2.71076267E-03
  0.414000005        -3.00689298E-03
  0.414999992        -3.32721346E-03
  0.416000009        -3.67259840E-03
  0.416999996        -4.04380122E-03
  0.418000013        -4.44143033E-03
  0.419000000        -4.86592297E-03
  0.419999987        -5.31752035E-03
  0.421000004        -5.79624111E-03
  0.421999991        -6.30185055E-03
  0.423000008        -6.83383970E-03
  0.423999995        -7.39139412E-03
  0.425000012        -7.97337200E-03
  0.425999999        -8.57827719E-03
  0.426999986        -9.20424424E-03
  0.428000003        -9.84901469E-03
  0.428999990        -1.05099231E-02
  0.430000007        -1.11838887E-02
  0.430999994        -1.18674049E-02
  0.432000011        -1.25565426E-02
  0.432999998        -1.32469479E-02
  0.433999985        -1.39338588E-02
  0.435000002        -1.46121169E-02
  0.435999990        -1.52761927E-02
  0.437000006        -1.59202144E-02
  0.437999994        -1.65380053E-02
  0.439000010        -1.71231274E-02
  0.439999998        -1.76689383E-02
  0.441000015        -1.81686375E-02
  0.442000002        -1.86153445E-02
  0.442999989        -1.90021582E-02
  0.444000006        -1.93222389E-02
  0.444999993        -1.95688866E-02
  0.446000010        -1.97356269E-02
  0.446999997        -1.98162924E-02
  0.448000014        -1.98051147E-02
  0.449000001        -1.96968131E-02
  0.449999988        -1.94866750E-02
  0.451000005        -1.91706493E-02
  0.451999992        -1.87454149E-02
  0.453000009        -1.82084683E-02
  0.453999996        -1.75581835E-02
  0.455000013        -1.67938732E-02
  0.456000000        -1.59158427E-02
  0.456999987        -1.49254268E-02
  0.458000004        -1.38250198E-02
  0.458999991        -1.26180863E-02
  0.460000008        -1.13091702E-02
  0.460999995        -9.90387611E-03
  0.462000012        -8.40885285E-03
  0.463000000        -6.83174934E-03
  0.463999987        -5.18115750E-03
  0.465000004        -3.46654956E-03
  0.465999991        -1.69819593E-03
  0.467000008         1.12928145E-04
  0.467999995         1.95524585E-03
  0.469000012         3.81669193E-03
  0.469999999         5.68483537E-03
  0.470999986         7.54700555E-03
  0.472000003         9.39042680E-03
  0.472999990         1.12023549E-02
  0.474000007         1.29702119E-02
  0.474999994         1.46817239E-02
  0.476000011         1.63250547E-02
  0.476999998         1.78889353E-02
  0.477999985         1.93627793E-02
  0.479000002         2.07367986E-02
  0.479999989         2.20021065E-02
  0.481000006         2.31508072E-02
  0.481999993         2.41760686E-02
  0.483000010         2.50721984E-02
  0.483999997         2.58346777E-02
  0.485000014         2.64602024E-02
  0.486000001         2.69467011E-02
  0.486999989         2.72933319E-02
  0.488000005         2.75004767E-02
  0.488999993         2.75697038E-02
  0.490000010         2.75037307E-02
  0.490999997         2.73063630E-02
  0.492000014         2.69824378E-02
  0.493000001         2.65377257E-02
  0.493999988         2.59788632E-02
  0.495000005         2.53132414E-02
  0.495999992         2.45489143E-02
  0.497000009         2.36944798E-02
  0.497999996         2.27589868E-02
  0.499000013         2.17518080E-02
  0.500000000         2.06825435E-02
  0.500999987         1.95609014E-02
  0.501999974         1.83966048E-02
  0.503000021         1.71992742E-02
  0.504000008         1.59783550E-02
  0.504999995         1.47430105E-02
  0.505999982         1.35020595E-02
  0.507000029         1.22638950E-02
  0.508000016         1.10364221E-02
  0.509000003         9.82701406E-03
  0.509999990         8.64245929E-03
  0.510999978         7.48893619E-03
  0.512000024         6.37198333E-03
  0.513000011         5.29649016E-03
  0.513999999         4.26668534E-03
  0.514999986         3.28614307E-03
  0.515999973         2.35779188E-03
  0.517000020         1.48392934E-03
  0.518000007         6.66245876E-04
  0.518999994        -9.41471517E-05
  0.519999981        -7.96684995E-04
  0.521000028        -1.44131330E-03
  0.522000015        -2.02844897E-03
  0.523000002        -2.55893893E-03
  0.523999989        -3.03401798E-03
  0.524999976        -3.45526519E-03
  0.526000023        -3.82456067E-03
  0.527000010        -4.14404273E-03
  0.527999997        -4.41606529E-03
  0.528999984        -4.64315712E-03
  0.529999971        -4.82798321E-03
  0.531000018        -4.97330632E-03
  0.532000005        -5.08195441E-03
  0.532999992        -5.15678618E-03
  0.533999979        -5.20066358E-03
  0.535000026        -5.21642482E-03
  0.536000013        -5.20685827E-03
  0.537000000        -5.17468341E-03
  0.537999988        -5.12253260E-03
  0.538999975        -5.05293254E-03
  0.540000021        -4.96829441E-03
  0.541000009        -4.87090182E-03
  0.541999996        -4.76290192E-03
  0.542999983        -4.64629848E-03
  0.544000030        -4.52294713E-03
  0.545000017        -4.39455546E-03
  0.546000004        -4.26267553E-03
  0.546999991        -4.12871037E-03
  0.547999978        -3.99391260E-03
  0.549000025        -3.85938864E-03
  0.550000012        -3.72610101E-03
  0.550999999        -3.59487627E-03
  0.551999986        -3.46640800E-03
  0.552999973        -3.34126595E-03
  0.554000020        -3.21990182E-03
  0.555000007        -3.10265785E-03
  0.555999994        -2.98977573E-03
  0.556999981        -2.88140518E-03
  0.558000028        -2.77761300E-03
  0.559000015        -2.67839222E-03
  0.560000002        -2.58367020E-03
  0.560999990        -2.49331887E-03
  0.561999977        -2.40716222E-03
  0.563000023        -2.32498697E-03
  0.564000010        -2.24654959E-03
  0.564999998        -2.17158627E-03
  0.565999985        -2.09982018E-03
  0.566999972        -2.03097030E-03
  0.568000019        -1.96475629E-03
  0.569000006        -1.90090598E-03
  0.569999993        -1.83916010E-03
  0.570999980        -1.77927746E-03
  0.572000027        -1.72103848E-03
  0.573000014        -1.66424899E-03
  0.574000001        -1.60874310E-03
  0.574999988        -1.55438436E-03
  0.575999975        -1.50106766E-03
  0.577000022        -1.44871895E-03
  0.578000009        -1.39729434E-03
  0.578999996        -1.34678022E-03
  0.579999983        -1.29719137E-03
  0.580999970        -1.24856888E-03
  0.582000017        -1.20097876E-03
  0.583000004        -1.15450763E-03
  0.583999991        -1.10926025E-03
  0.584999979        -1.06535398E-03
  0.586000025        -1.02291477E-03
  0.587000012        -9.82071506E-04
  0.588000000        -9.42951650E-04
  0.588999987        -9.05676570E-04
  0.589999974        -8.70357733E-04
  0.591000021        -8.37092986E-04
  0.592000008        -8.05963762E-04
  0.592999995        -7.77031819E-04
  0.593999982        -7.50337029E-04
  0.595000029        -7.25895108E-04
  0.596000016        -7.03696511E-04
  0.597000003        -6.83705206E-04
  0.597999990        -6.65858679E-04
  0.598999977        -6.50068629E-04
  0.600000024        -6.36221666E-04
  0.601000011        -6.24181121E-04
  0.601999998        -6.13788725E-04
  0.602999985        -6.04867470E-04
  0.603999972        -5.97224222E-04
  0.605000019        -5.90653683E-04
  0.606000006        -5.84942405E-04
  0.606999993        -5.79873100E-04
  0.607999980        -5.75229642E-04
  0.609000027        -5.70801552E-04
  0.610000014        -5.66388364E-04
  0.611000001        -5.61803812E-04
  0.611999989        -5.56879386E-04
  0.612999976        -5.51467529E-04
  0.614000022        -5.45444025E-04
  0.615000010        -5.38710214E-04
  0.615999997        -5.31194208E-04
  0.616999984        -5.22851537E-04
  0.617999971        -5.13664854E-04
  0.619000018        -5.03643474E-04
  0.620000005        -4.92822204E-04
  0.620999992        -4.81259660E-04
  0.621999979        -4.69036109E-04
  0.623000026        -4.56250913E-04
  0.624000013        -4.43019322E-04
  0.625000000        -4.29468870E-04
  0.625999987        -4.15735238E-04
  0.626999974        -4.01958212E-04
  0.628000021        -3.88277491E-04
  0.629000008        -3.74828902E-04
  0.629999995        -3.61740997E-04
  0.630999982        -3.49132053E-04
  0.632000029        -3.37107253E-04
  0.633000016        -3.25756293E-04
  0.634000003        -3.15151352E-04
  0.634999990        -3.05345544E-04
  0.635999978        -2.96371989E-04
  0.637000024        -2.88244075E-04
  0.638000011        -2.80956097E-04
  0.638999999        -2.74485123E-04
  0.639999986        -2.68792821E-04
  0.640999973        -2.63827504E-04
  0.642000020        -2.59526103E-04
  0.643000007        -2.55816034E-04
  0.643999994        -2.52616825E-04
  0.644999981        -2.49842298E-04
  0.646000028        -2.47402961E-04
  0.647000015        -2.45208561E-04
  0.648000002        -2.43170885E-04
  0.648999989        -2.41205795E-04
  0.649999976        -2.39234912E-04
  0.651000023        -2.37186134E-04
  0.652000010        -2.34993553E-04
  0.652999997        -2.32596882E-04
  0.653999984        -2.29940822E-04
  0.654999971        -2.26974531E-04
  0.656000018        -2.23651165E-04
  0.657000005        -2.19927359E-04
  0.657999992        -2.15762193E-04
  0.658999979        -2.11115854E-04
  0.660000026        -2.05947770E-04
  0.661000013        -2.00214577E-04
  0.662000000        -1.93868618E-04
  0.662999988        -1.86856952E-04
  0.663999975        -1.79121314E-04
  0.665000021        -1.70598607E-04
  0.666000009        -1.61221833E-04
  0.666999996        -1.50920852E-04
  0.667999983        -1.39622847E-04
  0.669000030        -1.27252759E-04
  0.670000017        -1.13733608E-04
  0.671000004        -9.89874752E-05
  0.671999991        -8.29367709E-05
  0.672999978        -6.55060721E-05
  0.674000025        -4.66237398E-05
  0.675000012        -2.62229660E-05
  0.675999999        -4.24155996E-06
  0.676999986         1.93796041E-05
  0.677999973         4.46993472E-05
  0.679000020         7.17796938E-05
  0.680000007         1.00689656E-04
  0.680999994         1.31508874E-04
  0.681999981         1.64331141E-04
  0.683000028         1.99267961E-04
  0.684000015         2.36452383E-04
  0.685000002         2.76043400E-04
  0.685999990         3.18230770E-04
  0.686999977         3.63239844E-04
  0.688000023         4.11336136E-04
  0.689000010         4.62828291E-04