 -0.12000000000000000          0.0000000000000000     
 -0.11889999999999999          0.0000000000000000     
 -0.11780000000000000          0.0000000000000000     
 -0.11670000000000000          0.0000000000000000     
 -0.11559999999999999          0.0000000000000000     
 -0.11449999999999999          0.0000000000000000     
 -0.11340000000000000          0.0000000000000000     
 -0.11230000000000000          0.0000000000000000     
 -0.11119999999999999          0.0000000000000000     
 -0.11009999999999999          0.0000000000000000     
 -0.10900000000000000          0.0000000000000000     
 -0.10790000000000000          1.5416115218933709E-037
 -0.10679999999999999          3.4149304000065308E-034
 -0.10569999999999999          7.1231164906397638E-033
 -0.10460000000000000          7.5294185297192016E-032
 -0.10349999999999999          5.2532221506754596E-031
 -0.10239999999999999          2.6454554395635587E-030
 -0.10130000000000000          9.8095957489306649E-030
 -0.10020000000000000          2.5290034451221930E-029
  -9.9099999999999994E-002     3.0715780316344431E-029
  -9.7999999999999990E-002    -9.1652987166565325E-029
  -9.6899999999999986E-002    -7.2200941810457222E-028
  -9.5799999999999996E-002    -2.6234339003883460E-027
  -9.4699999999999993E-002    -6.4036859540920807E-027
  -9.3599999999999989E-002    -9.9459627444100628E-027
  -9.2499999999999999E-002    -2.4541707732214806E-027
  -9.1399999999999995E-002     4.2737035473325149E-026
  -9.0299999999999991E-002     1.6423807801898054E-025
  -8.9200000000000002E-002     3.7033413004491997E-025
  -8.8099999999999984E-002     5.2901786623097661E-025
  -8.6999999999999994E-002     2.0994304787169633E-025
  -8.5899999999999990E-002    -1.3639695215307304E-024
  -8.4799999999999986E-002    -4.9013979044589770E-024
  -8.3699999999999997E-002    -9.7547663385392015E-024
  -8.2599999999999993E-002    -1.1826315226945000E-023
  -8.1499999999999989E-002    -2.0895649046425530E-024
  -8.0399999999999999E-002     3.0920106814465667E-023
  -7.9299999999999995E-002     9.0471944782479331E-023
  -7.8199999999999992E-002     1.5208875088214644E-022
  -7.7100000000000002E-002     1.4457746925565286E-022
  -7.5999999999999984E-002    -4.3738682848655474E-023
  -7.4899999999999994E-002    -5.0032615082576659E-022
  -7.3799999999999991E-002    -1.1501848835805137E-021
  -7.2699999999999987E-002    -1.5914869523217092E-021
  -7.1599999999999997E-002    -1.0498702783094311E-021
  -7.0499999999999993E-002     1.3339057134327247E-021
  -6.9399999999999989E-002     5.7381716983685616E-021
  -6.8300000000000000E-002     1.0584021600854512E-020
  -6.7199999999999996E-002     1.1841546192878240E-020
  -6.6099999999999992E-002     3.8657069211793130E-021
  -6.5000000000000002E-002    -1.7245882333508898E-020
  -6.3899999999999985E-002    -4.8071942354537811E-020
  -6.2799999999999995E-002    -7.2774655102119929E-020
  -6.1699999999999991E-002    -6.3637812247552086E-020
  -6.0599999999999994E-002     7.4103998114245161E-021
  -5.9499999999999990E-002     1.4533980925951268E-019
  -5.8399999999999994E-002     3.0518194068308734E-019
  -5.7299999999999990E-002     3.8135627206596219E-019
  -5.6199999999999986E-002     2.3694342030997424E-019
  -5.5099999999999996E-002    -2.1543441734933291E-019
  -5.3999999999999992E-002    -9.0184444550787964E-019
  -5.2899999999999989E-002    -1.5077476282761612E-018
  -5.1799999999999985E-002    -1.5206961668724823E-018
  -5.0699999999999995E-002    -4.5966876683022973E-019
  -4.9599999999999991E-002     1.7401224985740733E-018
  -4.8499999999999988E-002     4.3627471521344965E-018
  -4.7399999999999998E-002     5.8590534632558993E-018
  -4.6299999999999994E-002     4.3734051198925033E-018
  -4.5199999999999990E-002    -1.1292156656054734E-018
  -4.4099999999999986E-002    -9.5493352506261867E-018
  -4.2999999999999997E-002    -1.6988741485912898E-017
  -4.1899999999999993E-002    -1.7657100028397419E-017
  -4.0799999999999989E-002    -6.7312909279053581E-018
  -3.9699999999999985E-002     1.5619621303860836E-017
  -3.8599999999999995E-002     4.1172616575034984E-017
  -3.7499999999999992E-002     5.4328332139699742E-017
  -3.6399999999999988E-002     3.8365691310926594E-017
  -3.5299999999999984E-002    -1.3696357533339831E-017
  -3.4199999999999994E-002    -8.8392509530813843E-017
  -3.3099999999999991E-002    -1.4871079349978403E-016
  -3.1999999999999987E-002    -1.4513622755543640E-016
  -3.0899999999999997E-002    -4.1483146449970950E-017
  -2.9799999999999993E-002     1.5341821101430233E-016
  -2.8699999999999989E-002     3.6588712189492430E-016
  -2.7599999999999986E-002     4.6879287972312910E-016
  -2.6499999999999996E-002     3.3340456492410697E-016
  -2.5399999999999992E-002    -9.0393599074658004E-017
  -2.4299999999999988E-002    -7.0167619573452652E-016
  -2.3199999999999985E-002    -1.2327215367666482E-015
  -2.2099999999999995E-002    -1.3268274971196014E-015
  -2.0999999999999991E-002    -7.0624664429448284E-016
  -1.9899999999999987E-002     6.2932243590622536E-016
  -1.8799999999999983E-002     2.2772857671616946E-015
  -1.7699999999999994E-002     3.4834301239925196E-015
  -1.6599999999999990E-002     3.4120725501638896E-015
  -1.5499999999999986E-002     1.5670991168064823E-015
  -1.4399999999999996E-002    -1.8155134239218350E-015
  -1.3299999999999992E-002    -5.6304500058559589E-015
  -1.2199999999999989E-002    -8.1811547389306769E-015
  -1.1099999999999985E-002    -7.8535625075568001E-015
  -9.9999999999999950E-003    -3.9412646964623560E-015
  -8.8999999999999913E-003     2.7746986235740639E-015
  -7.7999999999999875E-003     1.0059161029598790E-014
  -6.6999999999999837E-003     1.4991797715679591E-014
  -5.5999999999999939E-003     1.5216941510964635E-014
  -4.4999999999999901E-003     1.0097242323461183E-014
  -3.3999999999999864E-003     1.1327196267810137E-015
  -2.2999999999999826E-003    -8.6899755647309914E-015
  -1.1999999999999927E-003    -1.6377517431632600E-014
  -9.9999999999988987E-005    -2.0437831522981482E-014
   1.0000000000000148E-003    -2.1429871154867192E-014
   2.1000000000000185E-003    -2.0987183388264047E-014
   3.2000000000000084E-003    -1.9677080045752112E-014
   4.3000000000000121E-003    -1.5045887693650504E-014
   5.4000000000000159E-003    -1.6058207372454085E-015
   6.5000000000000058E-003     2.6145010298516178E-014
   7.6000000000000234E-003     6.8278290591219207E-014
   8.7000000000000133E-003     1.1420422770884111E-013
   9.8000000000000032E-003     1.4147192589348300E-013
   1.0900000000000021E-002     1.2167205038318960E-013
   1.2000000000000011E-002     3.3534866306250689E-014
   1.3100000000000001E-002    -1.2096376500813268E-013
   1.4200000000000018E-002    -3.0524612141024604E-013
   1.5300000000000008E-002    -4.4984734614620418E-013
   1.6400000000000026E-002    -4.7171863536731952E-013
   1.7500000000000016E-002    -3.0808048937493276E-013
   1.8600000000000005E-002     4.6689158389065909E-014
   1.9700000000000023E-002     5.1789912851133439E-013
   2.0800000000000013E-002     9.5631797133028445E-013
   2.1900000000000003E-002     1.1786476327212686E-012
   2.3000000000000020E-002     1.0338788629135806E-012
   2.4100000000000010E-002     4.7284246469268065E-013
   2.5200000000000000E-002    -4.0809805581840088E-013
   2.6300000000000018E-002    -1.3726629260839237E-012
   2.7400000000000008E-002    -2.1059672735380227E-012
   2.8500000000000025E-002    -2.3154315803979824E-012
   2.9600000000000015E-002    -1.8368238226843107E-012
   3.0700000000000005E-002    -7.0549894654871185E-013
   3.1800000000000023E-002     8.3598381594617844E-013
   3.2900000000000013E-002     2.3987886520082759E-012
   3.4000000000000002E-002     3.5557246473335663E-012
   3.5100000000000020E-002     3.9575899646248108E-012
   3.6200000000000010E-002     3.4197555016019065E-012
   3.7300000000000028E-002     1.9579733728007452E-012
   3.8400000000000017E-002    -2.2304457770474009E-013
   3.9500000000000007E-002    -2.7665820253274158E-012
   4.0600000000000025E-002    -5.2035672568784235E-012
   4.1700000000000015E-002    -6.9888853600995403E-012
   4.2800000000000005E-002    -7.5521971884059821E-012
   4.3900000000000022E-002    -6.3943192915223719E-012
   4.5000000000000012E-002    -3.2476271081750093E-012
   4.6100000000000002E-002     1.7214727279475526E-012
   4.7200000000000020E-002     7.7423547269549852E-012
   4.8300000000000010E-002     1.3411688904311237E-011
   4.9400000000000027E-002     1.6904203742917185E-011
   5.0500000000000017E-002     1.6448529203503500E-011
   5.1600000000000007E-002     1.0978084616726114E-011
   5.2700000000000025E-002     7.5098539367834485E-013
   5.3800000000000014E-002    -1.2325970099208913E-011
   5.4900000000000004E-002    -2.4891235652030123E-011
   5.6000000000000022E-002    -3.2909871250121467E-011
   5.7100000000000012E-002    -3.2891164516360249E-011
   5.8200000000000002E-002    -2.3183798317833067E-011
   5.9300000000000019E-002    -4.8865117737044217E-012
   6.0400000000000009E-002     1.8024884327698891E-011
   6.1500000000000027E-002     3.9523510305094473E-011
   6.2600000000000017E-002     5.3152837600289198E-011
   6.3700000000000007E-002     5.3980153363253692E-011
   6.4800000000000024E-002     4.0256358610013865E-011
   6.5900000000000014E-002     1.4212026101477921E-011
   6.7000000000000004E-002    -1.8314766102795425E-011
   6.8100000000000022E-002    -4.9339954931820091E-011
   6.9200000000000012E-002    -7.0846020000302744E-011
   7.0300000000000029E-002    -7.6905551345756694E-011
   7.1400000000000019E-002    -6.5201704327964970E-011
   7.2500000000000009E-002    -3.7562552210224098E-011
   7.3600000000000027E-002     5.4046808606350688E-013
   7.4700000000000016E-002     4.1280710695071521E-011
   7.5800000000000006E-002     7.6143068620620051E-011
   7.6900000000000024E-002     9.7574683915524770E-011
   7.8000000000000014E-002     1.0035698009863838E-010
   7.9100000000000004E-002     8.2584870170504950E-011
   8.0200000000000021E-002     4.6211604357836869E-011
   8.1300000000000011E-002    -2.9124188673780064E-012
   8.2400000000000029E-002    -5.5654187128844996E-011
   8.3500000000000019E-002    -1.0102373473898070E-010
   8.4600000000000009E-002    -1.2841744150878021E-010
   8.5700000000000026E-002    -1.3036226630840515E-010
   8.6800000000000016E-002    -1.0505837308893883E-010
   8.7900000000000006E-002    -5.7770433518777807E-011
   8.9000000000000024E-002    -2.1165235229441560E-013
   9.0100000000000013E-002     5.2409140196789639E-011
   9.1200000000000003E-002     8.6151048795670129E-011
   9.2300000000000021E-002     9.3500001326209215E-011
   9.3400000000000011E-002     7.6982374038960183E-011
   9.4500000000000028E-002     4.9459229214973130E-011
   9.5600000000000018E-002     3.0278790343447856E-011
   9.6700000000000008E-002     3.7967314349931352E-011
   9.7800000000000026E-002     8.1671487790184468E-011
   9.8900000000000016E-002     1.5449888775888615E-010
  0.10000000000000001          2.3175177830189123E-010
  0.10110000000000002          2.7569883449012998E-010
  0.10220000000000001          2.4633893701944004E-010
  0.10330000000000003          1.1532140847689429E-010
  0.10440000000000002         -1.2133611300648297E-010
  0.10550000000000001         -4.3619178795299251E-010
  0.10660000000000003         -7.7196401646721449E-010
  0.10770000000000002         -1.0521016216026665E-009
  0.10880000000000001         -1.1977950731321546E-009
  0.10990000000000003         -1.1467570096411477E-009
  0.11100000000000002         -8.6851740283632716E-010
  0.11210000000000001         -3.7213679045759310E-010
  0.11320000000000002          2.9529326177901607E-010
  0.11430000000000001          1.0581221741800193E-009
  0.11540000000000003          1.8261024554999050E-009
  0.11650000000000002          2.5084788892665677E-009
  0.11760000000000001          3.0245111350898005E-009
  0.11870000000000003          3.3085646289501301E-009
  0.11980000000000002          3.3101103264787259E-009
  0.12090000000000001          2.9907483399383274E-009
  0.12200000000000003          2.3212086319932919E-009
  0.12310000000000001          1.2810932423154276E-009
  0.12420000000000003         -1.3678125539040627E-010
  0.12530000000000002         -1.9167506545595281E-009
  0.12640000000000001         -4.0058197371807544E-009
  0.12750000000000003         -6.2958319279394289E-009
  0.12860000000000002         -8.6049572295133406E-009
  0.12970000000000001         -1.0662600157793242E-008
  0.13080000000000003         -1.2103378351974688E-008
  0.13190000000000002         -1.2476963944922664E-008
  0.13300000000000001         -1.1280263600863569E-008
  0.13410000000000000         -8.0160762806139999E-009
  0.13520000000000004         -2.2775597535162927E-009
  0.13630000000000003          6.1485740564828395E-009
  0.13740000000000002          1.7173349770076669E-008
  0.13850000000000001          3.0308386465616267E-008
  0.13960000000000000          4.4596825391988358E-008
  0.14070000000000005          5.8583011433816331E-008
  0.14180000000000004          7.0321627626179571E-008
  0.14290000000000003          7.7415183445198979E-008
  0.14400000000000002          7.7058753543490914E-008
  0.14510000000000001          6.6066137268162993E-008
  0.14620000000000000          4.0852899010402630E-008
  0.14730000000000004         -2.6400887913128724E-009
  0.14840000000000003         -6.9087925015837553E-008
  0.14950000000000002         -1.6398266354276181E-007
  0.15060000000000001         -2.9388295279365203E-007
  0.15170000000000000         -4.6670326132488456E-007
  0.15280000000000005         -6.9204030775943131E-007
  0.15390000000000004         -9.8154785465442887E-007
  0.15500000000000003         -1.3493836496966156E-006
  0.15610000000000002         -1.8127613687457357E-006
  0.15720000000000001         -2.3926417805440248E-006
  0.15830000000000000         -3.1145911757610007E-006
  0.15940000000000004         -4.0098338516897518E-006
  0.16050000000000003         -5.1165070925951346E-006
  0.16160000000000002         -6.4811252917119820E-006
  0.16270000000000001         -8.1602529646527902E-006
  0.16380000000000000         -1.0222397063287167E-005
  0.16490000000000005         -1.2750136310959665E-005
  0.16600000000000004         -1.5842505460399392E-005
  0.16710000000000003         -1.9617684839430342E-005
  0.16820000000000002         -2.4216018416158325E-005
  0.16930000000000001         -2.9803443425603682E-005
  0.17040000000000000         -3.6575336041485106E-005
  0.17150000000000004         -4.4760861915092824E-005
  0.17260000000000003         -5.4627830220410151E-005
  0.17370000000000002         -6.6488102870060144E-005
  0.17480000000000001         -8.0703560369249324E-005
  0.17590000000000000         -9.7692697250506449E-005
  0.17700000000000005         -1.1793773956366758E-004
  0.17810000000000004         -1.4199233318365847E-004
  0.17920000000000003         -1.7048970562935604E-004
  0.18030000000000002         -2.0415128875014084E-004
  0.18140000000000001         -2.4379576255543714E-004
  0.18250000000000000         -2.9034834152864993E-004
  0.18360000000000004         -3.4485018477527451E-004
  0.18470000000000003         -4.0846798957902954E-004
  0.18580000000000002         -4.8250341180099761E-004
  0.18690000000000001         -5.6840208062940709E-004
  0.18800000000000000         -6.6776203785173121E-004
  0.18910000000000005         -7.8234129298394991E-004
  0.19020000000000004         -9.1406410308852450E-004
  0.19130000000000003         -1.0650258023155608E-003
  0.19240000000000002         -1.2374950307972462E-003
  0.19350000000000001         -1.4339143007982044E-003
  0.19460000000000005         -1.6568964799346239E-003
  0.19570000000000004         -1.9092188138714254E-003
  0.19680000000000003         -2.1938121277512109E-003
  0.19790000000000002         -2.5137465101537576E-003
  0.19900000000000001         -2.8722112855570046E-003
  0.20010000000000000         -3.2724906021699661E-003
  0.20120000000000005         -3.7179319805443721E-003
  0.20230000000000004         -4.2119100172559910E-003
  0.20340000000000003         -4.7577822592603470E-003
  0.20450000000000002         -5.3588399764245261E-003
  0.20560000000000000         -6.0182512200726498E-003
  0.20670000000000005         -6.7389953864764474E-003
  0.20780000000000004         -7.5237949999565588E-003
  0.20890000000000003         -8.3750373916321192E-003
  0.21000000000000002         -9.2946925112671434E-003
  0.21110000000000001         -1.0284227327123759E-002
  0.21220000000000000         -1.1344514069482109E-002
  0.21330000000000005         -1.2475736187521996E-002
  0.21440000000000003         -1.3677292731010201E-002
  0.21550000000000002         -1.4947702547342033E-002
  0.21660000000000001         -1.6284515502484047E-002
  0.21770000000000000         -1.7684220570407749E-002
  0.21880000000000005         -1.9142165282107659E-002
  0.21990000000000004         -2.0652482263285289E-002
  0.22100000000000003         -2.2208030840188301E-002
  0.22210000000000002         -2.3800344513788142E-002
  0.22320000000000001         -2.5419599597104395E-002
  0.22430000000000000         -2.7054603995747245E-002
  0.22540000000000004         -2.8692802430040222E-002
  0.22650000000000003         -3.0320309841338336E-002
  0.22760000000000002         -3.1921965910877072E-002
  0.22870000000000001         -3.3481421113214851E-002
  0.22980000000000000         -3.4981242395018625E-002
  0.23090000000000005         -3.6403053732658112E-002
  0.23200000000000004         -3.7727702755116041E-002
  0.23310000000000003         -3.8935442523987507E-002
  0.23420000000000002         -4.0006168719537695E-002
  0.23530000000000001         -4.0919654809477179E-002
  0.23640000000000000         -4.1655815813179488E-002
  0.23750000000000004         -4.2194994086423139E-002
  0.23860000000000003         -4.2518267435457217E-002
  0.23970000000000002         -4.2607747697167200E-002
  0.24080000000000001         -4.2446901764806325E-002
  0.24190000000000000         -4.2020868323813625E-002
  0.24300000000000005         -4.1316765464013652E-002
  0.24410000000000004         -4.0323991016046126E-002
  0.24520000000000003         -3.9034504954436361E-002
  0.24630000000000002         -3.7443080912561849E-002
  0.24740000000000001         -3.5547543762904012E-002
  0.24850000000000005         -3.3348942821594757E-002
  0.24960000000000004         -3.0851702622024572E-002
  0.25070000000000003         -2.8063721820553018E-002
  0.25180000000000002         -2.4996426074818834E-002
  0.25290000000000001         -2.1664774952701513E-002
  0.25400000000000000         -1.8087195263395504E-002
  0.25510000000000005         -1.4285471448622147E-002
  0.25620000000000004         -1.0284570326722167E-002
  0.25730000000000003         -6.1124078580241225E-003
  0.25840000000000002         -1.7995646775460445E-003
  0.25950000000000001          2.6210493797296408E-003
  0.26060000000000005          7.1145713883044581E-003
  0.26170000000000004          1.1644601484157299E-002
  0.26280000000000003          1.6173651563715700E-002
  0.26390000000000002          2.0663617955696670E-002
  0.26500000000000001          2.5076281930743221E-002
  0.26610000000000000          2.9373810416333149E-002
  0.26720000000000005          3.3519261924822422E-002
  0.26830000000000004          3.7477078474015733E-002
  0.26940000000000003          4.1213564028990755E-002
  0.27050000000000002          4.4697344485119847E-002
  0.27160000000000001          4.7899763401828874E-002
  0.27270000000000005          5.0795260001908170E-002
  0.27380000000000004          5.3361693407431014E-002
  0.27490000000000003          5.5580600404454325E-002
  0.27600000000000002          5.7437421066366220E-002
  0.27710000000000001          5.8921645588160751E-002
  0.27820000000000000          6.0026890828730306E-002
  0.27930000000000005          6.0750920205885572E-002
  0.28040000000000004          6.1095603144579791E-002
  0.28150000000000003          6.1066801771812146E-002
  0.28260000000000002          6.0674200262805233E-002
  0.28370000000000001          5.9931083962078024E-002
  0.28480000000000005          5.8854074479530449E-002
  0.28590000000000004          5.7462805538640187E-002
  0.28700000000000003          5.5779592163144043E-002
  0.28810000000000002          5.3829038918962853E-002
  0.28920000000000001          5.1637647038007453E-002
  0.29030000000000000          4.9233397166080634E-002
  0.29140000000000005          4.6645313930680818E-002
  0.29250000000000004          4.3903060105349480E-002
  0.29360000000000003          4.1036516373413150E-002
  0.29470000000000002          3.8075402503192426E-002
  0.29580000000000001          3.5048889645008838E-002
  0.29690000000000005          3.1985274310787105E-002
  0.29800000000000004          2.8911668052369222E-002
  0.29910000000000003          2.5853707415786228E-002
  0.30020000000000002          2.2835320896829124E-002
  0.30130000000000001          1.9878528873997933E-002
  0.30240000000000000          1.7003285541146915E-002
  0.30350000000000005          1.4227358918214930E-002
  0.30460000000000004          1.1566257067504559E-002
  0.30570000000000003          9.0331901002361319E-003
  0.30680000000000002          6.6390750586030342E-003
  0.30790000000000001          4.3925683190653309E-003
  0.30900000000000005          2.3001329330865302E-003
  0.31010000000000004          3.6613101478518047E-004
  0.31120000000000003         -1.4070607132463464E-003
  0.31230000000000002         -3.0189161066458414E-003
  0.31340000000000001         -4.4706091958288206E-003
  0.31450000000000006         -5.7648504141510270E-003
  0.31560000000000005         -6.9057140157648342E-003
  0.31670000000000004         -7.8984629378925034E-003
  0.31780000000000003         -8.7493714927654974E-003
  0.31890000000000002         -9.4655476687497547E-003
  0.32000000000000001         -1.0054764669471129E-002
  0.32110000000000005         -1.0525303126671545E-002
  0.32220000000000004         -1.0885794211143784E-002
  0.32330000000000003         -1.1145077592743259E-002
  0.32440000000000002         -1.1312070696872685E-002
  0.32550000000000001         -1.1395652843448496E-002
  0.32660000000000006         -1.1404554727095376E-002
  0.32770000000000005         -1.1347273016752668E-002
  0.32880000000000004         -1.1231993705407787E-002
  0.32990000000000003         -1.1066525959374494E-002
  0.33100000000000002         -1.0858254160534764E-002
  0.33210000000000001         -1.0614099676575747E-002
  0.33320000000000005         -1.0340491265235365E-002
  0.33430000000000004         -1.0043349977784584E-002
  0.33540000000000003         -9.7280803484817643E-003
  0.33650000000000002         -9.3995697113676661E-003
  0.33760000000000001         -9.0621934601682660E-003
  0.33870000000000006         -8.7198321657380416E-003
  0.33980000000000005         -8.3758888240050549E-003
  0.34090000000000004         -8.0333108999821583E-003
  0.34200000000000003         -7.6946205540754098E-003
  0.34310000000000002         -7.3619392140459143E-003
  0.34420000000000001         -7.0370198420338387E-003
  0.34530000000000005         -6.7212777706623155E-003
  0.34640000000000004         -6.4158216318505011E-003
  0.34750000000000003         -6.1214860146047287E-003
  0.34860000000000002         -5.8388631724611909E-003
  0.34970000000000001         -5.5683318519569409E-003
  0.35080000000000006         -5.3100861020412308E-003
  0.35190000000000005         -5.0641642944615310E-003
  0.35300000000000004         -4.8304717995864528E-003
  0.35410000000000003         -4.6088032240892106E-003
  0.35520000000000002         -4.3988643462022810E-003
  0.35630000000000001         -4.2002908418023368E-003
  0.35740000000000005         -4.0126662424762507E-003
  0.35850000000000004         -3.8355402201274789E-003
  0.35960000000000003         -3.6684423840935808E-003
  0.36070000000000002         -3.5108952929830892E-003
  0.36180000000000001         -3.3624226853967293E-003
  0.36290000000000006         -3.2225566268733008E-003
  0.36400000000000005         -3.0908406669440096E-003
  0.36510000000000004         -2.9668344275269667E-003
  0.36620000000000003         -2.8501155850054354E-003
  0.36730000000000002         -2.7402838922487099E-003
  0.36840000000000006         -2.6369642444998656E-003
  0.36950000000000005         -2.5398088227466201E-003
  0.37060000000000004         -2.4484988879891374E-003
  0.37170000000000003         -2.3627438225238767E-003
  0.37280000000000002         -2.2822797338279727E-003
  0.37390000000000001         -2.2068663589232705E-003
  0.37500000000000006         -2.1362855115301255E-003
  0.37610000000000005         -2.0703379994502914E-003
  0.37720000000000004         -2.0088440632900313E-003
  0.37830000000000003         -1.9516428090824230E-003
  0.37940000000000002         -1.8985942535499037E-003
  0.38050000000000006         -1.8495800328607306E-003
  0.38160000000000005         -1.8045046651990297E-003
  0.38270000000000004         -1.7632967484526737E-003
  0.38380000000000003         -1.7259100166417051E-003
  0.38490000000000002         -1.6923255148887156E-003
  0.38600000000000001         -1.6625537747620269E-003
  0.38710000000000000         -1.6366379428415512E-003
  0.38819999999999999         -1.6146565009960679E-003
  0.38930000000000009         -1.5967251801460654E-003
  0.39040000000000008         -1.5829980346662629E-003
  0.39150000000000007         -1.5736671990092708E-003
  0.39260000000000006         -1.5689618406530702E-003
  0.39370000000000005         -1.5691470838883317E-003
  0.39480000000000004         -1.5745226231987980E-003
  0.39590000000000003         -1.5854200672631902E-003
  0.39700000000000002         -1.6021996857333589E-003
  0.39810000000000001         -1.6252440802494404E-003
  0.39920000000000000         -1.6549508691363561E-003
  0.40029999999999999         -1.6917216111633955E-003
  0.40140000000000009         -1.7359494980507867E-003
  0.40250000000000008         -1.7880047913172981E-003
  0.40360000000000007         -1.8482206461301063E-003
  0.40470000000000006         -1.9168767214973511E-003
  0.40580000000000005         -1.9941827814040098E-003
  0.40690000000000004         -2.0802605141204342E-003
  0.40800000000000003         -2.1751242160898037E-003
  0.40910000000000002         -2.2786625073178096E-003
  0.41020000000000001         -2.3906192951461676E-003
  0.41130000000000000         -2.5105768964919996E-003
  0.41239999999999999         -2.6379397602169534E-003
  0.41350000000000009         -2.7719200037130886E-003
  0.41460000000000008         -2.9115243519697680E-003
  0.41570000000000007         -3.0555436748084517E-003
  0.41680000000000006         -3.2025443263046793E-003
  0.41790000000000005         -3.3508636721057816E-003
  0.41900000000000004         -3.4986095652437049E-003
  0.42010000000000003         -3.6436651589848330E-003
  0.42120000000000002         -3.7836993826966606E-003
  0.42230000000000001         -3.9161806870098171E-003
  0.42340000000000000         -4.0383966806277864E-003
  0.42449999999999999         -4.1474765261228352E-003
  0.42560000000000009         -4.2404197160131728E-003
  0.42670000000000008         -4.3141266349152859E-003
  0.42780000000000007         -4.3654378641170069E-003
  0.42890000000000006         -4.3911752855151191E-003
  0.43000000000000005         -4.3881879618056733E-003
  0.43110000000000004         -4.3533981895908999E-003
  0.43220000000000003         -4.2838530488695783E-003
  0.43330000000000002         -4.1767722194949765E-003
  0.43440000000000001         -4.0296006915533332E-003
  0.43550000000000000         -3.8400602533214768E-003
  0.43659999999999999         -3.6062014244657966E-003
  0.43770000000000009         -3.3264520639626686E-003
  0.43880000000000008         -2.9996650444287423E-003
  0.43990000000000007         -2.6251607304207348E-003
  0.44100000000000006         -2.2027625804709019E-003
  0.44210000000000005         -1.7328275994241424E-003
  0.44320000000000004         -1.2162697624444403E-003
  0.44430000000000003         -6.5457668374494557E-004
  0.44540000000000002         -4.9817693048903491E-005
  0.44650000000000001          5.9535555590590485E-004
  0.44760000000000000          1.2777178704797380E-003
  0.44869999999999999          1.9934870492298758E-003
  0.44980000000000009          2.7383501481266009E-003
  0.45090000000000008          3.5074980005325275E-003
  0.45200000000000007          4.2956677570682895E-003
  0.45310000000000006          5.0971930965205050E-003
  0.45420000000000005          5.9060620545632048E-003
  0.45530000000000004          6.7159830329211632E-003
  0.45640000000000003          7.5204555291824692E-003
  0.45750000000000002          8.3128477802401120E-003
  0.45860000000000001          9.0864756266479142E-003
  0.45970000000000000          9.8346829618419541E-003
  0.46079999999999999          1.0550928351652016E-002
  0.46190000000000009          1.1228862731727629E-002
  0.46300000000000008          1.1862410819583712E-002
  0.46410000000000007          1.2445848546737073E-002
  0.46520000000000006          1.2973875127893180E-002
  0.46630000000000005          1.3441683801912198E-002
  0.46740000000000004          1.3845022175038350E-002
  0.46850000000000003          1.4180243472080373E-002
  0.46960000000000002          1.4444355334461565E-002
  0.47070000000000001          1.4635053577721463E-002
  0.47180000000000000          1.4750750406350675E-002
  0.47289999999999999          1.4790592912502318E-002
  0.47400000000000009          1.4754468847724203E-002
  0.47510000000000008          1.4643003128542172E-002
  0.47620000000000007          1.4457546967894509E-002
  0.47730000000000006          1.4200154067866162E-002
  0.47840000000000005          1.3873544838393918E-002