 -0.12000000000000000          0.0000000000000000     
 -0.11889999999999999          0.0000000000000000     
 -0.11780000000000000          0.0000000000000000     
 -0.11670000000000000          0.0000000000000000     
 -0.11559999999999999          0.0000000000000000     
 -0.11449999999999999          0.0000000000000000     
 -0.11340000000000000          0.0000000000000000     
 -0.11230000000000000          0.0000000000000000     
 -0.11119999999999999          0.0000000000000000     
 -0.11009999999999999          0.0000000000000000     
 -0.10900000000000000          0.0000000000000000     
 -0.10790000000000000          0.0000000000000000     
 -0.10679999999999999          0.0000000000000000     
 -0.10569999999999999         -1.2465263227156525E-044
 -0.10460000000000000         -2.1518758063040659E-043
 -0.10349999999999999          1.2494977444079101E-038
 -0.10239999999999999          1.1166044209090020E-037
 -0.10130000000000000          6.0619936231600515E-037
 -0.10020000000000000          2.6713273913911107E-036
  -9.9099999999999994E-002     9.6267850686962445E-036
  -9.7999999999999990E-002     2.8619845546093839E-035
  -9.6899999999999986E-002     7.0972023505870670E-035
  -9.5799999999999996E-002     1.4733184995136749E-034
  -9.4699999999999993E-002     2.5058310240557445E-034
  -9.3599999999999989E-002     3.1308581062566934E-034
  -9.2499999999999999E-002     1.2332020654745406E-034
  -9.1399999999999995E-002    -7.5245990809164490E-034
  -9.0299999999999991E-002    -2.7630267082795477E-033
  -8.9200000000000002E-002    -5.2492656089988100E-033
  -8.8099999999999984E-002    -4.1192636793279504E-033
  -8.6999999999999994E-002     9.1685526286584455E-033
  -8.5899999999999990E-002     3.9102303249309276E-032
  -8.4799999999999986E-002     5.8215436643896805E-032
  -8.3699999999999997E-002    -2.9055830279467028E-032
  -8.2599999999999993E-002    -3.6025327402009123E-031
  -8.1499999999999989E-002    -8.9574379193413810E-031
  -8.0399999999999999E-002    -9.6138309800623248E-031
  -7.9299999999999995E-002     1.0586239945310494E-030
  -7.8199999999999992E-002     6.7677017685407909E-030
  -7.7100000000000002E-002     1.4250852876575569E-029
  -7.5999999999999984E-002     1.2778996251885903E-029
  -7.4899999999999994E-002    -1.8121624635757048E-029
  -7.3799999999999991E-002    -9.3225354401150816E-029
  -7.2699999999999987E-002    -1.8129216666059801E-028
  -7.1599999999999997E-002    -1.5741449705172416E-028
  -7.0499999999999993E-002     1.8580975384882136E-028
  -6.9399999999999989E-002     9.6849562291472632E-028
  -6.8300000000000000E-002     1.8591046307321758E-027
  -6.7199999999999996E-002     1.7161272159055746E-027
  -6.6099999999999992E-002    -1.2138031202897682E-027
  -6.5000000000000002E-002    -7.8563024883360413E-027
  -6.3899999999999985E-002    -1.5571199960029465E-026
  -6.2799999999999995E-002    -1.5778785270868502E-026
  -6.1699999999999991E-002     4.2548850380532007E-027
  -6.0599999999999994E-002     5.1382300768529809E-026
  -5.9499999999999990E-002     1.0881416055869579E-025
  -5.8399999999999994E-002     1.2175303781688757E-025
  -5.7299999999999990E-002     9.0535548114056420E-027
  -5.6199999999999986E-002    -2.7700984192664712E-025
  -5.5099999999999996E-002    -6.4869136540054213E-025
  -5.3999999999999992E-002    -8.0163331288807013E-025
  -5.2899999999999989E-002    -2.7477230432471978E-025
  -5.1799999999999985E-002     1.2380044411108420E-024
  -5.0699999999999995E-002     3.3589870452653081E-024
  -4.9599999999999991E-002     4.5950420856855480E-024
  -4.8499999999999988E-002     2.5819203965515258E-024
  -4.7399999999999998E-002    -4.4709509728248195E-024
  -4.6299999999999994E-002    -1.5278592133005702E-023
  -4.5199999999999990E-002    -2.3315981798029165E-023
  -4.4099999999999986E-002    -1.7551827930245006E-023
  -4.2999999999999997E-002     1.1551199713630926E-023
  -4.1899999999999993E-002     6.1155854565668693E-023
  -4.0799999999999989E-002     1.0584746054719409E-022
  -3.9699999999999985E-002     9.8598172059158655E-023
  -3.8599999999999995E-002    -6.9128314167337477E-024
  -3.7499999999999992E-002    -2.1267732970124733E-022
  -3.6399999999999988E-002    -4.3137028851010102E-022
  -3.5299999999999984E-002    -4.7986566942126739E-022
  -3.4199999999999994E-002    -1.5284647299925577E-022
  -3.3099999999999991E-002     6.1619947895945853E-022
  -3.1999999999999987E-002     1.5704296069596587E-021
  -3.0899999999999997E-002     2.0619899394908256E-021
  -2.9799999999999993E-002     1.2612215663169787E-021
  -2.8699999999999989E-002    -1.2994778275567279E-021
  -2.7599999999999986E-002    -5.0254666563980978E-021
  -2.6499999999999996E-002    -7.8595164032261545E-021
  -2.5399999999999992E-002    -6.7566859335065975E-021
  -2.4299999999999988E-002     6.5290964237952035E-022
  -2.3199999999999985E-002     1.3623531530578618E-020
  -2.2099999999999995E-002     2.6428425133359543E-020
  -2.0999999999999991E-002     2.8989685633617802E-020
  -1.9899999999999987E-002     1.1385707313078486E-020
  -1.8799999999999983E-002    -2.8398177956036657E-020
  -1.7699999999999994E-002    -7.7080401718955070E-020
  -1.6599999999999990E-002    -1.0494896104769387E-019
  -1.5499999999999986E-002    -7.6256840324168150E-020
  -1.4399999999999996E-002     2.8611230214260589E-020
  -1.3299999999999992E-002     1.8756422488129902E-019
  -1.2199999999999989E-002     3.2429042047918681E-019
  -1.1099999999999985E-002     3.2655639384546648E-019
  -9.9999999999999950E-003     1.0224657874670476E-019
  -8.8999999999999913E-003    -3.4260409726473807E-019
  -7.7999999999999875E-003    -8.4504867482742001E-019
  -6.6999999999999837E-003    -1.0988818361452102E-018
  -5.5999999999999939E-003    -7.7552697541397521E-019
  -4.4999999999999901E-003     2.6648390426315048E-019
  -3.3999999999999864E-003     1.7738497292330615E-018
  -2.2999999999999826E-003     3.0341058670175619E-018
  -1.1999999999999927E-003     3.0797172497257833E-018
  -9.9999999999988987E-005     1.1762878280831725E-018
   1.0000000000000148E-003    -2.5693729471599215E-018
   2.1000000000000185E-003    -6.8133053245192877E-018
   3.2000000000000084E-003    -9.1606656860785749E-018
   4.3000000000000121E-003    -7.1209274402463934E-018
   5.4000000000000159E-003     3.7899933795956408E-019
   6.5000000000000058E-003     1.1596701776178609E-017
   7.6000000000000234E-003     2.1625419866573698E-017
   8.7000000000000133E-003     2.3826121388569574E-017
   9.8000000000000032E-003     1.3014328262497067E-017
   1.0900000000000021E-002    -1.0720306962264667E-017
   1.2000000000000011E-002    -3.9589723507377971E-017
   1.3100000000000001E-002    -5.9176822704867732E-017
   1.4200000000000018E-002    -5.3920439938929240E-017
   1.5300000000000008E-002    -1.5692463233377984E-017
   1.6400000000000026E-002     4.8264390188254597E-017
   1.7500000000000016E-002     1.1295881963438085E-016
   1.8600000000000005E-002     1.4251542676257660E-016
   1.9700000000000023E-002     1.0605865705897443E-016
   2.0800000000000013E-002    -2.9220459061993626E-018
   2.1900000000000003E-002    -1.5341601832784110E-016
   2.3000000000000020E-002    -2.7975936460738235E-016
   2.4100000000000010E-002    -3.0487654784772542E-016
   2.5200000000000000E-002    -1.7830513204920871E-016
   2.6300000000000018E-002     8.6888735556779160E-017
   2.7400000000000008E-002     3.9911236581456526E-016
   2.8500000000000025E-002     6.1086816641204035E-016
   2.9600000000000015E-002     5.7910000624666152E-016
   3.0700000000000005E-002     2.4261606782045867E-016
   3.1800000000000023E-002    -3.1999172900849146E-016
   3.2900000000000013E-002    -8.8922338518996329E-016
   3.4000000000000002E-002    -1.1780342506205436E-015
   3.5100000000000020E-002    -9.6221635594730534E-016
   3.6200000000000010E-002    -2.1442033532513097E-016
   3.7300000000000028E-002     8.2860896746952281E-016
   3.8400000000000017E-002     1.7195138616203656E-015
   3.9500000000000007E-002     1.9781105422522259E-015
   4.0600000000000025E-002     1.3312492532061759E-015
   4.1700000000000015E-002    -9.6907707166068424E-017
   4.2800000000000005E-002    -1.7575072500681412E-015
   4.3900000000000022E-002    -2.8665083227576751E-015
   4.5000000000000012E-002    -2.7615511579387726E-015
   4.6100000000000002E-002    -1.2745567565646904E-015
   4.7200000000000020E-002     1.0761596226997244E-015
   4.8300000000000010E-002     3.2189372399912877E-015
   4.9400000000000027E-002     3.9888484620502223E-015
   5.0500000000000017E-002     2.7388941693213030E-015
   5.1600000000000007E-002    -1.9721888147805267E-016
   5.2700000000000025E-002    -3.4787370067046960E-015
   5.3800000000000014E-002    -5.2835200047061922E-015
   5.4900000000000004E-002    -4.2243651702790119E-015
   5.6000000000000022E-002    -2.4076583023592318E-016
   5.7100000000000012E-002     5.0350436662092323E-015
   5.8200000000000002E-002     8.7699327818973489E-015
   5.9300000000000019E-002     8.2203574394750515E-015
   6.0400000000000009E-002     2.3097142401582229E-015
   6.1500000000000027E-002    -7.3005458176972446E-015
   6.2600000000000017E-002    -1.6357085836884290E-014
   6.3700000000000007E-002    -1.9604617782130674E-014
   6.4800000000000024E-002    -1.3327957384288024E-014
   6.5900000000000014E-002     2.2653008177569369E-015
   6.7000000000000004E-002     2.2103989026431428E-014
   6.8100000000000022E-002     3.7572828785657827E-014
   6.9200000000000012E-002     3.9923177236128988E-014
   7.0300000000000029E-002     2.4505491247386873E-014
   7.1400000000000019E-002    -6.1101952698096635E-015
   7.2500000000000009E-002    -4.1863507897575894E-014
   7.3600000000000027E-002    -6.8411321314312001E-014
   7.4700000000000016E-002    -7.2835673241408437E-014
   7.5800000000000006E-002    -4.9511707096407894E-014
   7.6900000000000024E-002    -3.4116374972818946E-015
   7.8000000000000014E-002     5.0950363593216829E-014
   7.9100000000000004E-002     9.4793078877110087E-014
   8.0200000000000021E-002     1.1236474656460507E-013
   8.1300000000000011E-002     9.6946538196660586E-014
   8.2400000000000029E-002     5.2772316467888825E-014
   8.3500000000000019E-002    -7.8748898866722791E-015
   8.4600000000000009E-002    -7.0535618758442317E-014
   8.5700000000000026E-002    -1.2386238751514245E-013
   8.6800000000000016E-002    -1.6109892161987857E-013
   8.7900000000000006E-002    -1.7699230310650718E-013
   8.9000000000000024E-002    -1.6280391336755510E-013
   9.0100000000000013E-002    -1.0442622395725335E-013
   9.1200000000000003E-002     1.1989802975100393E-014
   9.2300000000000021E-002     1.8654369837133751E-013
   9.3400000000000011E-002     3.8986312214015561E-013
   9.4500000000000028E-002     5.5550812116082542E-013
   9.5600000000000018E-002     5.9086939523009061E-013
   9.6700000000000008E-002     4.1044209373164240E-013
   9.7800000000000026E-002    -1.6192973744492458E-014
   9.8900000000000016E-002    -6.2117647931264877E-013
  0.10000000000000001         -1.2250762787732915E-012
  0.10110000000000002         -1.5728249992789201E-012
  0.10220000000000001         -1.4203316079323502E-012
  0.10330000000000003         -6.4854039577501862E-013
  0.10440000000000002          6.3941382789329824E-013
  0.10550000000000001          2.0884550704529940E-012
  0.10660000000000003          3.1637324844815147E-012
  0.10770000000000002          3.3226970187127317E-012
  0.10880000000000001          2.2397299564376811E-012
  0.10990000000000003          3.5728187009471046E-016
  0.11100000000000002         -2.8254690534270860E-012
  0.11210000000000001         -5.2913557293574212E-012
  0.11320000000000002         -6.3612366228867483E-012
  0.11430000000000001         -5.2973938598710089E-012
  0.11540000000000003         -2.0144667758529231E-012
  0.11650000000000002          2.7487478302808159E-012
  0.11760000000000001          7.5427329002733830E-012
  0.11870000000000003          1.0614400438595698E-011
  0.11980000000000002          1.0502904584640562E-011
  0.12090000000000001          6.6291425587931965E-012
  0.12200000000000003         -3.4339886279576521E-013
  0.12310000000000001         -8.5443951782185132E-012
  0.12420000000000003         -1.5371487191508539E-011
  0.12530000000000002         -1.8289635539929406E-011
  0.12640000000000001         -1.5708223792022837E-011
  0.12750000000000003         -7.6340141009650734E-012
  0.12860000000000002          4.1515731718152247E-012
  0.12970000000000001          1.6495410801980169E-011
  0.13080000000000003          2.5762852822827996E-011
  0.13190000000000002          2.8942947688067866E-011
  0.13300000000000001          2.4603368800605474E-011
  0.13410000000000000          1.3363870228523761E-011
  0.13520000000000004         -2.2846553121040917E-012
  0.13630000000000003         -1.8756361416267125E-011
  0.13740000000000002         -3.2459665329893617E-011
  0.13850000000000001         -4.0790426937329310E-011
  0.13960000000000000         -4.2648536217558923E-011
  0.14070000000000005         -3.8285757619032267E-011
  0.14180000000000004         -2.8582058524480480E-011
  0.14290000000000003         -1.4129689911164380E-011
  0.14400000000000002          5.3439965501106672E-012
  0.14510000000000001          3.0753170167625758E-011
  0.14620000000000000          6.2473113802342006E-011
  0.14730000000000004          9.8506783311882545E-011
  0.14840000000000003          1.3275250473536005E-010
  0.14950000000000002          1.5436732267725356E-010
  0.15060000000000001          1.4909041613088169E-010
  0.15170000000000000          1.0284512976027751E-010
  0.15280000000000005          7.0911818783580330E-012
  0.15390000000000004         -1.3548451109145392E-010
  0.15500000000000003         -3.0692626748478459E-010
  0.15610000000000002         -4.7357600124785551E-010
  0.15720000000000001         -5.9044575432795398E-010
  0.15830000000000000         -6.1023656375474871E-010
  0.15940000000000004         -4.9527894891049213E-010
  0.16050000000000003         -2.2943625426756254E-010
  0.16160000000000002          1.7339008396624548E-010
  0.16270000000000001          6.6683222036275285E-010
  0.16380000000000000          1.1767519784878516E-009
  0.16490000000000005          1.6120458643663593E-009
  0.16600000000000004          1.8788047752533845E-009
  0.16710000000000003          1.8943517649233544E-009
  0.16820000000000002          1.5983210279627023E-009
  0.16930000000000001          9.5973277560946958E-010
  0.17040000000000000         -1.8791794541833062E-011
  0.17150000000000004         -1.2969845447329634E-009
  0.17260000000000003         -2.7903714946258016E-009
  0.17370000000000002         -4.3604298715283709E-009
  0.17480000000000001         -5.8040234553522261E-009
  0.17590000000000000         -6.8481949527592425E-009
  0.17700000000000005         -7.1584564359039798E-009
  0.17810000000000004         -6.3679919077261823E-009
  0.17920000000000003         -4.1311705240210657E-009
  0.18030000000000002         -1.9829288904394299E-010
  0.18140000000000001          5.4985029898001671E-009
  0.18250000000000000          1.2763259604279829E-008
  0.18360000000000004          2.1074031324344854E-008
  0.18470000000000003          2.9552123531339250E-008
  0.18580000000000002          3.6965776634269702E-008
  0.18690000000000001          4.1760980005338299E-008
  0.18800000000000000          4.2103451358592263E-008
  0.18910000000000005          3.5911825631525145E-008
  0.19020000000000004          2.0864261385217913E-008
  0.19130000000000003         -5.6317827870213152E-009
  0.19240000000000002         -4.6506934995005023E-008
  0.19350000000000001         -1.0512670935490345E-007
  0.19460000000000005         -1.8540732109592705E-007
  0.19570000000000004         -2.9194481014871308E-007
  0.19680000000000003         -4.3016304088627037E-007
  0.19790000000000002         -6.0649902711521819E-007
  0.19900000000000001         -8.2865538666005397E-007
  0.20010000000000000         -1.1059516129184981E-006
  0.20120000000000005         -1.4497997337086945E-006
  0.20230000000000004         -1.8743133575408882E-006
  0.20340000000000003         -2.3970411241511431E-006
  0.20450000000000002         -3.0397986350980190E-006
  0.20560000000000000         -3.8295690834628488E-006
  0.20670000000000005         -4.7994514462567016E-006
  0.20780000000000004         -5.9896520487112257E-006
  0.20890000000000003         -7.4485458751495534E-006
  0.21000000000000002         -9.2338599747932858E-006
  0.21110000000000001         -1.1414034990097314E-005
  0.21220000000000000         -1.4069836247047404E-005
  0.21330000000000005         -1.7296252022061625E-005
  0.21440000000000003         -2.1204698419407559E-005
  0.21550000000000002         -2.5925513738466895E-005
  0.21660000000000001         -3.1610738360613784E-005
  0.21770000000000000         -3.8437118391276124E-005
  0.21880000000000005         -4.6609359560473003E-005
  0.21990000000000004         -5.6363615382435767E-005
  0.22100000000000003         -6.7971247577313743E-005
  0.22210000000000002         -8.1742881667718167E-005
  0.22320000000000001         -9.8032795966840073E-005
  0.22430000000000000         -1.1724361368846021E-004
  0.22540000000000004         -1.3983122982688193E-004
  0.22650000000000003         -1.6630991317457975E-004
  0.22760000000000002         -1.9725735190640346E-004
  0.22870000000000001         -2.3331947270135620E-004
  0.22980000000000000         -2.7521510889893055E-004
  0.23090000000000005         -3.2374014437218596E-004
  0.23200000000000004         -3.7977114998624309E-004
  0.23310000000000003         -4.4426845416355545E-004
  0.23420000000000002         -5.1827851821964650E-004
  0.23530000000000001         -6.0293548761750993E-004
  0.23640000000000000         -6.9946155376668091E-004
  0.23750000000000004         -8.0916588924640962E-004
  0.23860000000000003         -9.3344229549664282E-004
  0.23970000000000002         -1.0737640843176274E-003
  0.24080000000000001         -1.2316772643410875E-003
  0.24190000000000000         -1.4087906421449809E-003
  0.24300000000000005         -1.6067632884381147E-003
  0.24410000000000004         -1.8272892807526019E-003
  0.24520000000000003         -2.0720793290334317E-003
  0.24630000000000002         -2.3428389794528277E-003
  0.24740000000000001         -2.6412433368811898E-003
  0.24850000000000005         -2.9689090487493765E-003
  0.24960000000000004         -3.3273609460118280E-003
  0.25070000000000003         -3.7179975632270577E-003
  0.25180000000000002         -4.1420504241018764E-003
  0.25290000000000001         -4.6005421918425531E-003
  0.25400000000000000         -5.0942405901358958E-003
  0.25510000000000005         -5.6236114470123617E-003
  0.25620000000000004         -6.1887701804487615E-003
  0.25730000000000003         -6.7894312990706513E-003
  0.25840000000000002         -7.4248610400428766E-003
  0.25950000000000001         -8.0938280864697749E-003
  0.26060000000000005         -8.7945580030405444E-003
  0.26170000000000004         -9.5246915358844133E-003
  0.26280000000000003         -1.0281241422270927E-002
  0.26390000000000002         -1.1060563557833218E-002
  0.26500000000000001         -1.1858325799387344E-002
  0.26610000000000000         -1.2669491319974812E-002
  0.26720000000000005         -1.3488308156873092E-002
  0.26830000000000004         -1.4308311214618508E-002
  0.26940000000000003         -1.5122339928661972E-002
  0.27050000000000002         -1.5922560578089839E-002
  0.27160000000000001         -1.6700511274969583E-002
  0.27270000000000005         -1.7447159467705982E-002
  0.27380000000000004         -1.8152966833188768E-002
  0.27490000000000003         -1.8807972947886716E-002
  0.27600000000000002         -1.9401902707560793E-002
  0.27710000000000001         -1.9924270064185842E-002
  0.27820000000000000         -2.0364510661641411E-002
  0.27930000000000005         -2.0712114705116472E-002
  0.28040000000000004         -2.0956784602738723E-002
  0.28150000000000003         -2.1088588075850529E-002
  0.28260000000000002         -2.1098125898046285E-002
  0.28370000000000001         -2.0976689021816413E-002
  0.28480000000000005         -2.0716443076387214E-002
  0.28590000000000004         -2.0310577871668484E-002
  0.28700000000000003         -1.9753473953978272E-002
  0.28810000000000002         -1.9040850939354946E-002
  0.28920000000000001         -1.8169900678216049E-002
  0.29030000000000000         -1.7139414329524233E-002
  0.29140000000000005         -1.5949882852281418E-002
  0.29250000000000004         -1.4603582853329390E-002
  0.29360000000000003         -1.3104630318831134E-002
  0.29470000000000002         -1.1459015275625681E-002
  0.29580000000000001         -9.6746045476718574E-003
  0.29690000000000005         -7.7611124069690632E-003
  0.29800000000000004         -5.7300420794557973E-003
  0.29910000000000003         -3.5946002177794879E-003
  0.30020000000000002         -1.3695748032194880E-003
  0.30130000000000001          9.2881009825265164E-004
  0.30240000000000000          3.2830704574138558E-003
  0.30350000000000005          5.6746602884488037E-003
  0.30460000000000004          8.0841935140449628E-003
  0.30570000000000003          1.0491681619926210E-002
  0.30680000000000002          1.2876788646737563E-002
  0.30790000000000001          1.5219091837395029E-002
  0.30900000000000005          1.7498352766282046E-002
  0.31010000000000004          1.9694784611956517E-002
  0.31120000000000003          2.1789322862879913E-002
  0.31230000000000002          2.3763875857057921E-002
  0.31340000000000001          2.5601571037580026E-002
  0.31450000000000006          2.7286980858235357E-002
  0.31560000000000005          2.8806318160066402E-002
  0.31670000000000004          3.0147618404407481E-002
  0.31780000000000003          3.1300878544907776E-002
  0.31890000000000002          3.2258182821153690E-002
  0.32000000000000001          3.3013778583220646E-002
  0.32110000000000005          3.3564135446544643E-002
  0.32220000000000004          3.3907951058219379E-002
  0.32330000000000003          3.4046133341676318E-002
  0.32440000000000002          3.3981751686039251E-002
  0.32550000000000001          3.3719939167360269E-002
  0.32660000000000006          3.3267790646059073E-002
  0.32770000000000005          3.2634213124869235E-002
  0.32880000000000004          3.1829751639864595E-002
  0.32990000000000003          3.0866427831589993E-002
  0.33100000000000002          2.9757521292385562E-002
  0.33210000000000001          2.8517365233291139E-002
  0.33320000000000005          2.7161117583723682E-002
  0.33430000000000004          2.5704545450701916E-002
  0.33540000000000003          2.4163791725329602E-002
  0.33650000000000002          2.2555148704903320E-002
  0.33760000000000001          2.0894847670638705E-002
  0.33870000000000006          1.9198857994888231E-002
  0.33980000000000005          1.7482695389366115E-002
  0.34090000000000004          1.5761253738887128E-002
  0.34200000000000003          1.4048653843648645E-002
  0.34310000000000002          1.2358112135119044E-002
  0.34420000000000001          1.0701826470379689E-002
  0.34530000000000005          9.0908844642543056E-003
  0.34640000000000004          7.5351921082511646E-003
  0.34750000000000003          6.0434311452689628E-003
  0.34860000000000002          4.6230286280413693E-003
  0.34970000000000001          3.2801566545979247E-003
  0.35080000000000006          2.0197449937650689E-003
  0.35190000000000005          8.4551142436678430E-004
  0.35300000000000004         -2.3999218267905967E-004
  0.35410000000000003         -1.2353222272131494E-003
  0.35520000000000002         -2.1400719604013135E-003
  0.35630000000000001         -2.9547912382966932E-003
  0.35740000000000005         -3.6808985709814979E-003
  0.35850000000000004         -4.3205873726579131E-003
  0.35960000000000003         -4.8767316840256604E-003
  0.36070000000000002         -5.3527893510820273E-003
  0.36180000000000001         -5.7527034839001418E-003
  0.36290000000000006         -6.0808092650838910E-003
  0.36400000000000005         -6.3417426390684093E-003
  0.36510000000000004         -6.5403514234857020E-003
  0.36620000000000003         -6.6816154323318111E-003
  0.36730000000000002         -6.7705703966168219E-003
  0.36840000000000006         -6.8122398871808595E-003
  0.36950000000000005         -6.8115732217498143E-003
  0.37060000000000004         -6.7733907603185197E-003
  0.37170000000000003         -6.7023366813744210E-003
  0.37280000000000002         -6.6028429953452501E-003
  0.37390000000000001         -6.4790979259838431E-003
  0.37500000000000006         -6.3350249329809163E-003
  0.37610000000000005         -6.1742645479249047E-003
  0.37720000000000004         -6.0001642283843224E-003
  0.37830000000000003         -5.8157714147566014E-003
  0.37940000000000002         -5.6238340794495098E-003
  0.38050000000000006         -5.4268062875101469E-003
  0.38160000000000005         -5.2268593853698510E-003
  0.38270000000000004         -5.0258957812431698E-003
  0.38380000000000003         -4.8255646423618790E-003
  0.38490000000000002         -4.6272774668492112E-003
  0.38600000000000001         -4.4322214952341342E-003
  0.38710000000000000         -4.2413792354263555E-003
  0.38819999999999999         -4.0555466961500345E-003
  0.38930000000000009         -3.8753550534222254E-003
  0.39040000000000008         -3.7012912864856961E-003
  0.39150000000000007         -3.5337197490836886E-003
  0.39260000000000006         -3.3728976590834889E-003
  0.39370000000000005         -3.2189877739837594E-003
  0.39480000000000004         -3.0720712165606826E-003
  0.39590000000000003         -2.9321581389490691E-003
  0.39700000000000002         -2.7992000488593636E-003
  0.39810000000000001         -2.6731001219341926E-003
  0.39920000000000000         -2.5537232210614993E-003
  0.40029999999999999         -2.4409036867951697E-003
  0.40140000000000009         -2.3344513103770474E-003
  0.40250000000000008         -2.2341548390733311E-003
  0.40360000000000007         -2.1397862019701527E-003
  0.40470000000000006         -2.0511019491032787E-003
  0.40580000000000005         -1.9678468978982983E-003
  0.40690000000000004         -1.8897556052423223E-003
  0.40800000000000003         -1.8165549200503169E-003
  0.40910000000000002         -1.7479662732227150E-003
  0.41020000000000001         -1.6837082614867074E-003
  0.41130000000000000         -1.6234996009447176E-003
  0.41239999999999999         -1.5670601519437838E-003
  0.41350000000000009         -1.5141126544715778E-003
  0.41460000000000008         -1.4643825163412831E-003
  0.41570000000000007         -1.4175989422985967E-003
  0.41680000000000006         -1.3734974129349800E-003
  0.41790000000000005         -1.3318244500914126E-003
  0.41900000000000004         -1.2923417394981674E-003
  0.42010000000000003         -1.2548304183822192E-003
  0.42120000000000002         -1.2190925555034136E-003
  0.42230000000000001         -1.1849506511580059E-003
  0.42340000000000000         -1.1522471164281470E-003
  0.42449999999999999         -1.1208442995516371E-003
  0.42560000000000009         -1.0906260364605654E-003
  0.42670000000000008         -1.0615004650321195E-003
  0.42780000000000007         -1.0334014494889337E-003
  0.42890000000000006         -1.0062881121403484E-003
  0.43000000000000005         -9.8014250213895350E-004
  0.43110000000000004         -9.5496530540492650E-004
  0.43220000000000003         -9.3077309805527676E-004
  0.43330000000000002         -9.0759672972534188E-004
  0.43440000000000001         -8.8548219268123592E-004
  0.43550000000000000         -8.6449216366785760E-004
  0.43659999999999999         -8.4470686826373551E-004
  0.43770000000000009         -8.2622366559378393E-004
  0.43880000000000008         -8.0915519652206597E-004
  0.43990000000000007         -7.9362769493156367E-004
  0.44100000000000006         -7.7978052547365937E-004
  0.44210000000000005         -7.6776759297474497E-004
  0.44320000000000004         -7.5776126225773313E-004
  0.44430000000000003         -7.4995798652153427E-004
  0.44540000000000002         -7.4458458181403332E-004
  0.44650000000000001         -7.4190509304832572E-004
  0.44760000000000000         -7.4222737697145452E-004
  0.44869999999999999         -7.4590966620605430E-004
  0.44980000000000009         -7.5336766144452156E-004
  0.45090000000000008         -7.6508274470488168E-004
  0.45200000000000007         -7.8161195291416726E-004
  0.45310000000000006         -8.0359963796450187E-004
  0.45420000000000005         -8.3178949313615614E-004
  0.45530000000000004         -8.6703675149213671E-004
  0.45640000000000003         -9.1031855708921354E-004
  0.45750000000000002         -9.6274274381979129E-004
  0.45860000000000001         -1.0255550985294247E-003
  0.45970000000000000         -1.1001466635836015E-003
  0.46079999999999999         -1.1880615789864272E-003
  0.46190000000000009         -1.2910056901057451E-003
  0.46300000000000008         -1.4108552449717516E-003
  0.46410000000000007         -1.5496633413095836E-003
  0.46520000000000006         -1.7096624075231886E-003
  0.46630000000000005         -1.8932639474130630E-003
  0.46740000000000004         -2.1030533890921510E-003
  0.46850000000000003         -2.3417826485096732E-003
  0.46960000000000002         -2.6123594086138323E-003
  0.47070000000000001         -2.9178345785078313E-003
  0.47180000000000000         -3.2613845193636293E-003
  0.47289999999999999         -3.6462892542952659E-003
  0.47400000000000009         -4.0759045941293707E-003
  0.47510000000000008         -4.5536280443745627E-003
  0.47620000000000007         -5.0828569737626445E-003
  0.47730000000000006         -5.6669405448412109E-003
  0.47840000000000005         -6.3091260068609822E-003