 -0.119999997         0.00000000    
 -0.119000003         0.00000000    
 -0.118000001         0.00000000    
 -0.116999999         0.00000000    
 -0.115999997         0.00000000    
 -0.115000002         0.00000000    
 -0.114000000         0.00000000    
 -0.112999998         0.00000000    
 -0.112000003         0.00000000    
 -0.111000001         0.00000000    
 -0.109999999         0.00000000    
 -0.108999997         3.32825672E-37
 -0.108000003        -5.74306503E-37
 -0.107000001        -4.85314644E-34
 -0.105999999        -8.98316971E-33
 -0.104999997        -8.48380604E-32
 -0.104000002        -5.28851429E-31
 -0.103000000        -2.38887122E-30
 -0.101999998        -8.04067100E-30
 -0.101000004        -1.93922729E-29
 -0.100000001        -2.55673700E-29
  -9.89999995E-02     3.52508194E-29
  -9.79999974E-02     3.48299303E-28
  -9.70000029E-02     1.27741117E-27
  -9.60000008E-02     3.18779077E-27
  -9.49999988E-02     5.57284508E-27
  -9.39999968E-02     4.94629308E-27
  -9.30000022E-02    -8.26597731E-27
  -9.20000002E-02    -5.10137365E-26
  -9.09999982E-02    -1.39566183E-25
  -9.00000036E-02    -2.60217603E-25
  -8.90000015E-02    -3.10497674E-25
  -8.79999995E-02    -2.71359708E-26
  -8.69999975E-02     1.02700924E-24
  -8.60000029E-02     3.26801999E-24
  -8.50000009E-02     6.49963799E-24
  -8.39999989E-02     8.85628974E-24
  -8.29999968E-02     5.63648887E-24
  -8.20000023E-02    -1.08350574E-23
  -8.10000002E-02    -4.83021394E-23
  -7.99999982E-02    -1.06430564E-22
  -7.90000036E-02    -1.63018964E-22
  -7.80000016E-02    -1.59166736E-22
  -7.69999996E-02     3.92116250E-24
  -7.59999976E-02     4.35871878E-22
  -7.50000030E-02     1.17487657E-21
  -7.40000010E-02     2.04907885E-21
  -7.29999989E-02     2.52263935E-21
  -7.19999969E-02     1.63408490E-21
  -7.10000023E-02    -1.80366692E-21
  -7.00000003E-02    -8.57050314E-21
  -6.89999983E-02    -1.79319008E-20
  -6.80000037E-02    -2.63254237E-20
  -6.70000017E-02    -2.65655548E-20
  -6.59999996E-02    -8.71816781E-21
  -6.49999976E-02     3.61437764E-20
  -6.40000030E-02     1.08811319E-19
  -6.30000010E-02     1.92722821E-19
  -6.19999990E-02     2.46603789E-19
  -6.10000007E-02     2.05523945E-19
  -5.99999987E-02    -2.22497731E-21
  -5.90000004E-02    -4.18078149E-19
  -5.79999983E-02    -1.00005909E-18
  -5.70000000E-02    -1.57088784E-18
  -5.60000017E-02    -1.79875677E-18
  -5.49999997E-02    -1.24948423E-18
  -5.40000014E-02     4.60372178E-19
  -5.29999994E-02     3.41286118E-18
  -5.20000011E-02     7.10021728E-18
  -5.09999990E-02     1.02241997E-17
  -5.00000007E-02     1.07548758E-17
  -4.89999987E-02     6.40866493E-18
  -4.80000004E-02    -4.39799110E-18
  -4.69999984E-02    -2.12655000E-17
  -4.60000001E-02    -4.06076661E-17
  -4.50000018E-02    -5.51665478E-17
  -4.39999998E-02    -5.49458130E-17
  -4.30000015E-02    -3.00244692E-17
  -4.19999994E-02     2.48884005E-17
  -4.10000011E-02     1.05185895E-16
  -3.99999991E-02     1.92333707E-16
  -3.90000008E-02     2.53581521E-16
  -3.79999988E-02     2.47650384E-16
  -3.70000005E-02     1.37234002E-16
  -3.59999985E-02    -9.33281614E-17
  -3.50000001E-02    -4.19878652E-16
  -3.40000018E-02    -7.66986534E-16
  -3.29999998E-02    -1.01119069E-15
  -3.20000015E-02    -1.00478161E-15
  -3.09999995E-02    -6.20505791E-16
  -2.99999993E-02     1.90429921E-16
  -2.89999992E-02     1.34313146E-15
  -2.80000009E-02     2.58844460E-15
  -2.70000007E-02     3.52880808E-15
  -2.60000005E-02     3.69409872E-15
  -2.50000004E-02     2.67477801E-15
  -2.40000002E-02     2.88384702E-16
  -2.30000000E-02    -3.26505578E-15
  -2.19999999E-02    -7.31539412E-15
  -2.09999997E-02    -1.07564799E-14
  -1.99999996E-02    -1.22345947E-14
  -1.89999994E-02    -1.04850050E-14
  -1.79999992E-02    -4.76168211E-15
  -1.70000009E-02     4.74121398E-15
  -1.60000008E-02     1.66069381E-14
  -1.49999997E-02     2.81830206E-14
  -1.40000004E-02     3.59288608E-14
  -1.30000003E-02     3.61399550E-14
  -1.20000001E-02     2.59629693E-14
  -1.09999999E-02     4.50853911E-15
  -9.99999978E-03    -2.62180414E-14
  -8.99999961E-03    -6.08855685E-14
  -8.00000038E-03    -9.11872303E-14
  -7.00000022E-03    -1.07133384E-13
  -6.00000005E-03    -9.92445058E-14
  -4.99999989E-03    -6.13430408E-14
  -4.00000019E-03     6.62221073E-15
  -3.00000003E-03     9.64867224E-14
  -2.00000009E-03     1.91342005E-13
  -1.00000005E-03     2.67241904E-13
   0.00000000         2.97418990E-13
   1.00000005E-03     2.58671285E-13
   2.00000009E-03     1.38849693E-13
   3.00000003E-03    -5.62925019E-14
   4.00000019E-03    -2.99009651E-13
   4.99999989E-03    -5.40245854E-13
   6.00000005E-03    -7.16367991E-13
   7.00000022E-03    -7.61893586E-13
   8.00000038E-03    -6.26442745E-13
   8.99999961E-03    -2.92439141E-13
   9.99999978E-03     2.11091005E-13
   1.09999999E-02     8.03434955E-13
   1.20000001E-02     1.35947829E-12
   1.30000003E-02     1.73053119E-12
   1.40000004E-02     1.77647220E-12
   1.49999997E-02     1.40342176E-12
   1.60000008E-02     5.98387117E-13
   1.70000009E-02    -5.48721333E-13
   1.79999992E-02    -1.84401474E-12
   1.89999994E-02    -3.01408724E-12
   1.99999996E-02    -3.75503925E-12
   2.09999997E-02    -3.79878160E-12
   2.19999999E-02    -2.98380418E-12
   2.30000000E-02    -1.31430511E-12
   2.40000002E-02     1.00836115E-12
   2.50000004E-02     3.59407577E-12
   2.60000005E-02     5.91710448E-12
   2.70000007E-02     7.40950183E-12
   2.80000009E-02     7.58052475E-12
   2.89999992E-02     6.13978833E-12
   2.99999993E-02     3.09753590E-12
   3.09999995E-02    -1.18388166E-12
   3.20000015E-02    -6.00689073E-12
   3.29999998E-02    -1.04319791E-11
   3.40000018E-02    -1.34402342E-11
   3.50000001E-02    -1.41416471E-11
   3.59999985E-02    -1.19914842E-11
   3.70000005E-02    -6.96831004E-12
   3.79999988E-02     3.32762951E-13
   3.90000008E-02     8.72763493E-12
   3.99999991E-02     1.66068114E-11
   4.10000011E-02     2.22217592E-11
   4.19999994E-02     2.40496650E-11
   4.30000015E-02     2.11657098E-11
   4.39999998E-02     1.35374437E-11
   4.50000018E-02     2.15967695E-12
   4.60000001E-02    -1.10269996E-11
   4.69999984E-02    -2.34475651E-11
   4.80000004E-02    -3.23930466E-11
   4.89999987E-02    -3.56165895E-11
   5.00000007E-02    -3.18942303E-11
   5.09999990E-02    -2.14103214E-11
   5.20000011E-02    -5.85275535E-12
   5.29999994E-02     1.18380574E-11
   5.40000014E-02     2.80420270E-11
   5.49999997E-02     3.92452772E-11
   5.60000017E-02     4.28647950E-11
   5.70000000E-02     3.79101230E-11
   5.79999983E-02     2.53031675E-11
   5.90000004E-02     7.74883283E-12
   5.99999987E-02    -1.08440895E-11
   6.10000007E-02    -2.62761132E-11
   6.19999990E-02    -3.50929077E-11
   6.30000010E-02    -3.54843238E-11
   6.40000030E-02    -2.78035112E-11
   6.49999976E-02    -1.45445019E-11
   6.59999996E-02     2.53443534E-13
   6.70000017E-02     1.20582069E-11
   6.80000037E-02     1.71082870E-11
   6.89999983E-02     1.35661473E-11
   7.00000003E-02     2.24119876E-12
   7.10000023E-02    -1.33549508E-11
   7.19999969E-02    -2.77083703E-11
   7.29999989E-02    -3.46594732E-11
   7.40000010E-02    -2.91390523E-11
   7.50000030E-02    -8.87674222E-12
   7.59999976E-02     2.43700459E-11
   7.69999996E-02     6.44601802E-11
   7.80000016E-02     1.01619858E-10
   7.90000036E-02     1.24298308E-10
   7.99999982E-02     1.21855789E-10
   8.10000002E-02     8.75641087E-11
   8.20000023E-02     2.12337214E-11
   8.29999968E-02    -6.92521804E-11
   8.39999989E-02    -1.68086642E-10
   8.50000009E-02    -2.53668253E-10
   8.60000029E-02    -3.02588954E-10
   8.69999975E-02    -2.94886809E-10
   8.79999995E-02    -2.19547491E-10
   8.90000015E-02    -7.89787125E-11
   9.00000036E-02     1.08821702E-10
   9.09999982E-02     3.11372983E-10
   9.20000002E-02     4.86455765E-10
   9.30000022E-02     5.90041183E-10
   9.39999968E-02     5.86097004E-10
   9.49999988E-02     4.56271104E-10
   9.60000008E-02     2.07129494E-10
   9.70000029E-02    -1.27177560E-10
   9.79999974E-02    -4.88198204E-10
   9.89999995E-02    -8.02574007E-10
  0.100000001        -9.96268623E-10
  0.101000004        -1.01100539E-09
  0.101999998        -8.19390611E-10
  0.103000000        -4.35033953E-10
  0.104000002         8.53163512E-11
  0.104999997         6.49089837E-10
  0.105999999         1.14408349E-09
  0.107000001         1.46080659E-09
  0.108000003         1.51654700E-09
  0.108999997         1.27587807E-09
  0.109999999         7.62646835E-10
  0.111000001         5.99880146E-11
  0.112000003        -7.02659597E-10
  0.112999998        -1.37369671E-09
  0.114000000        -1.81017867E-09
  0.115000002        -1.90899896E-09
  0.115999997        -1.63162339E-09
  0.116999999        -1.01653852E-09
  0.118000001        -1.75912437E-10
  0.119000003         7.23802018E-10
  0.119999997         1.49411961E-09
  0.120999999         1.96347849E-09
  0.122000001         2.01496619E-09
  0.123000003         1.61470359E-09
  0.123999998         8.24318891E-10
  0.125000000        -2.06058420E-10
  0.126000002        -1.26394084E-09
  0.127000004        -2.11536944E-09
  0.128000006        -2.55279686E-09
  0.128999993        -2.44028686E-09
  0.129999995        -1.74634895E-09
  0.130999997        -5.56754365E-10
  0.131999999         9.36516642E-10
  0.133000001         2.46915910E-09
  0.134000003         3.75520770E-09
  0.135000005         4.54437687E-09
  0.136000007         4.67385863E-09
  0.136999995         4.10283629E-09
  0.137999997         2.92119684E-09
  0.138999999         1.32938038E-09
  0.140000001        -4.07046091E-10
  0.141000003        -2.01814965E-09
  0.142000005        -3.29130301E-09
  0.143000007        -4.11804191E-09
  0.143999994        -4.51290871E-09
  0.144999996        -4.59724214E-09
  0.145999998        -4.54946258E-09
  0.147000000        -4.53252635E-09
  0.148000002        -4.61655514E-09
  0.149000004        -4.71818407E-09
  0.150000006        -4.57646365E-09
  0.150999993        -3.77822795E-09
  0.151999995        -1.83477711E-09
  0.152999997         1.70100700E-09
  0.153999999         7.09932069E-09
  0.155000001         1.43291263E-08
  0.156000003         2.29745716E-08
  0.157000005         3.22151159E-08
  0.158000007         4.08794492E-08
  0.158999994         4.75668926E-08
  0.159999996         5.08137923E-08
  0.160999998         4.92702164E-08
  0.162000000         4.18472368E-08
  0.163000003         2.77987375E-08
  0.164000005         6.71328904E-09
  0.165000007        -2.15908376E-08
  0.165999994        -5.72552743E-08
  0.166999996        -1.00626721E-07
  0.167999998        -1.52518268E-07
  0.169000000        -2.14445819E-07
  0.170000002        -2.88805921E-07
  0.171000004        -3.78976637E-07
  0.172000006        -4.89342256E-07
  0.172999993        -6.25262260E-07
  0.173999995        -7.93021343E-07
  0.174999997        -9.99805479E-07
  0.175999999        -1.25374891E-06
  0.177000001        -1.56408953E-06
  0.178000003        -1.94144991E-06
  0.179000005        -2.39824908E-06
  0.180000007        -2.94922302E-06
  0.180999994        -3.61202319E-06
  0.181999996        -4.40784925E-06
  0.182999998        -5.36207745E-06
  0.184000000        -6.50485572E-06
  0.185000002        -7.87164845E-06
  0.186000004        -9.50375579E-06
  0.187000006        -1.14488184E-05
  0.187999994        -1.37613879E-05
  0.188999996        -1.65035981E-05
  0.189999998        -1.97460085E-05
  0.191000000        -2.35686657E-05
  0.192000002        -2.80623863E-05
  0.193000004        -3.33302778E-05
  0.194000006        -3.94894196E-05
  0.194999993        -4.66726633E-05
  0.195999995        -5.50304721E-05
  0.196999997        -6.47327033E-05
  0.197999999        -7.59703325E-05
  0.199000001        -8.89570001E-05
  0.200000003        -1.03930506E-04
  0.201000005        -1.21154204E-04
  0.202000007        -1.40918361E-04
  0.202999994        -1.63541568E-04
  0.203999996        -1.89372135E-04
  0.204999998        -2.18789573E-04
  0.206000000        -2.52206024E-04
  0.207000002        -2.90067343E-04
  0.208000004        -3.32854339E-04
  0.209000006        -3.81083024E-04
  0.209999993        -4.35304624E-04
  0.210999995        -4.96104883E-04
  0.211999997        -5.64102374E-04
  0.213000000        -6.39946200E-04
  0.214000002        -7.24313082E-04
  0.215000004        -8.17903201E-04
  0.216000006        -9.21436236E-04
  0.216999993        -1.03564560E-03
  0.217999995        -1.16127229E-03
  0.218999997        -1.29905785E-03
  0.219999999        -1.44973642E-03
  0.221000001        -1.61402544E-03
  0.222000003        -1.79261505E-03
  0.223000005        -1.98615668E-03
  0.224000007        -2.19524954E-03
  0.224999994        -2.42042844E-03
  0.225999996        -2.66214716E-03
  0.226999998        -2.92076310E-03
  0.228000000        -3.19652213E-03
  0.229000002        -3.48954066E-03
  0.230000004        -3.79979005E-03
  0.231000006        -4.12707916E-03
  0.231999993        -4.47103847E-03
  0.232999995        -4.83110454E-03
  0.233999997        -5.20650437E-03
  0.234999999        -5.59624331E-03
  0.236000001        -5.99909108E-03
  0.237000003        -6.41357293E-03
  0.238000005        -6.83795940E-03
  0.238999993        -7.27026351E-03
  0.239999995        -7.70823332E-03
  0.240999997        -8.14935751E-03
  0.241999999        -8.59086215E-03
  0.243000001        -9.02972650E-03
  0.244000003        -9.46268719E-03
  0.245000005        -9.88625921E-03
  0.246000007        -1.02967536E-02
  0.246999994        -1.06903035E-02
  0.247999996        -1.10628894E-02
  0.248999998        -1.14103742E-02
  0.250000000        -1.17285419E-02
  0.250999987        -1.20131336E-02
  0.252000004        -1.22598950E-02
  0.252999991        -1.24646183E-02
  0.254000008        -1.26231993E-02
  0.254999995        -1.27316844E-02
  0.256000012        -1.27863185E-02
  0.256999999        -1.27836037E-02
  0.257999986        -1.27203474E-02
  0.259000003        -1.25937145E-02
  0.259999990        -1.24012800E-02
  0.261000007        -1.21410741E-02
  0.261999995        -1.18116261E-02
  0.263000011        -1.14120040E-02
  0.263999999        -1.09418510E-02
  0.264999986        -1.04014138E-02
  0.266000003        -9.79156606E-03
  0.266999990        -9.11381934E-03
  0.268000007        -8.37034080E-03
  0.268999994        -7.56394211E-03
  0.270000011        -6.69807894E-03
  0.270999998        -5.77683095E-03
  0.272000015        -4.80487803E-03
  0.273000002        -3.78747075E-03
  0.273999989        -2.73039076E-03
  0.275000006        -1.63990399E-03
  0.275999993        -5.22706949E-04
  0.277000010         6.14133605E-04
  0.277999997         1.76324730E-03
  0.279000014         2.91703246E-03
  0.280000001         4.06773109E-03
  0.280999988         5.20750927E-03
  0.282000005         6.32853620E-03
  0.282999992         7.42306700E-03
  0.284000009         8.48352257E-03
  0.284999996         9.50256828E-03
  0.286000013         1.04731927E-02
  0.287000000         1.13887778E-02
  0.287999988         1.22431722E-02
  0.289000005         1.30307535E-02
  0.289999992         1.37464823E-02
  0.291000009         1.43859591E-02
  0.291999996         1.49454633E-02
  0.293000013         1.54219959E-02
  0.294000000         1.58132985E-02
  0.294999987         1.61178801E-02
  0.296000004         1.63350161E-02
  0.296999991         1.64647605E-02
  0.298000008         1.65079255E-02
  0.298999995         1.64660625E-02
  0.300000012         1.63414385E-02
  0.300999999         1.61370002E-02
  0.301999986         1.58563256E-02
  0.303000003         1.55035825E-02
  0.303999990         1.50834704E-02
  0.305000007         1.46011580E-02
  0.305999994         1.40622212E-02
  0.307000011         1.34725710E-02
  0.307999998         1.28383869E-02
  0.308999985         1.21660354E-02
  0.310000002         1.14620002E-02
  0.310999990         1.07328119E-02
  0.312000006         9.98497196E-03
  0.312999994         9.22488514E-03
  0.314000010         8.45879130E-03
  0.314999998         7.69270258E-03
  0.316000015         6.93234475E-03
  0.317000002         6.18310412E-03
  0.317999989         5.44998143E-03
  0.319000006         4.73755226E-03
  0.319999993         4.04993724E-03
  0.321000010         3.39077460E-03
  0.321999997         2.76320498E-03
  0.323000014         2.16985797E-03
  0.324000001         1.61284744E-03
  0.324999988         1.09377434E-03
  0.326000005         6.13735465E-04
  0.326999992         1.73339227E-04
  0.328000009        -2.27271710E-04
  0.328999996        -5.88393130E-04
  0.330000013        -9.10726783E-04
  0.331000000        -1.19534426E-03
  0.331999987        -1.44364650E-03
  0.333000004        -1.65732123E-03
  0.333999991        -1.83829758E-03
  0.335000008        -1.98869966E-03
  0.335999995        -2.11080047E-03
  0.337000012        -2.20697629E-03
  0.338000000        -2.27966346E-03
  0.338999987        -2.33131833E-03
  0.340000004        -2.36437749E-03
  0.340999991        -2.38122465E-03
  0.342000008        -2.38415645E-03
  0.342999995        -2.37535289E-03
  0.344000012        -2.35685217E-03
  0.344999999        -2.33052601E-03
  0.345999986        -2.29806500E-03
  0.347000003        -2.26096460E-03
  0.347999990        -2.22051935E-03
  0.349000007        -2.17782077E-03
  0.349999994        -2.13376083E-03
  0.351000011        -2.08903779E-03
  0.351999998        -2.04416667E-03
  0.352999985        -1.99949229E-03
  0.354000002        -1.95520488E-03
  0.354999989        -1.91135763E-03
  0.356000006        -1.86788547E-03
  0.356999993        -1.82462623E-03
  0.358000010        -1.78134034E-03
  0.358999997        -1.73773209E-03
  0.360000014        -1.69346994E-03
  0.361000001        -1.64820661E-03
  0.361999989        -1.60160020E-03
  0.363000005        -1.55333290E-03
  0.363999993        -1.50312972E-03
  0.365000010        -1.45077298E-03
  0.365999997        -1.39611517E-03
  0.367000014        -1.33908773E-03
  0.368000001        -1.27970590E-03
  0.368999988        -1.21807156E-03
  0.370000005        -1.15437212E-03
  0.370999992        -1.08887849E-03
  0.372000009        -1.02194166E-03
  0.372999996        -9.53985553E-04
  0.374000013        -8.85499816E-04
  0.375000000        -8.17028864E-04
  0.375999987        -7.49159197E-04
  0.377000004        -6.82505372E-04
  0.377999991        -6.17694808E-04
  0.379000008        -5.55352191E-04
  0.379999995        -4.96084394E-04
  0.381000012        -4.40465141E-04
  0.381999999        -3.89021123E-04
  0.382999986        -3.42217856E-04
  0.384000003        -3.00447282E-04
  0.384999990        -2.64016446E-04
  0.386000007        -2.33138737E-04
  0.386999995        -2.07926874E-04
  0.388000011        -1.88388862E-04
  0.388999999        -1.74425964E-04
  0.389999986        -1.65832491E-04
  0.391000003        -1.62297714E-04
  0.391999990        -1.63409422E-04
  0.393000007        -1.68659855E-04
  0.393999994        -1.77454189E-04
  0.395000011        -1.89121653E-04
  0.395999998        -2.02928612E-04
  0.397000015        -2.18093162E-04
  0.398000002        -2.33799685E-04
  0.398999989        -2.49212724E-04
  0.400000006        -2.63489375E-04
  0.400999993        -2.75790691E-04
  0.402000010        -2.85291928E-04
  0.402999997        -2.91192904E-04
  0.404000014        -2.92728248E-04
  0.405000001        -2.89177173E-04
  0.405999988        -2.79872766E-04
  0.407000005        -2.64208647E-04
  0.407999992        -2.41643269E-04
  0.409000009        -2.11700288E-04
  0.409999996        -1.73965338E-04
  0.411000013        -1.28079526E-04
  0.412000000        -7.37300579E-05
  0.412999988        -1.06384432E-05
  0.414000005         6.14527962E-05
  0.414999992         1.42794655E-04
  0.416000009         2.33646701E-04
  0.416999996         3.34292272E-04
  0.418000013         4.45052923E-04
  0.419000000         5.66302042E-04
  0.419999987         6.98477321E-04
  0.421000004         8.42092384E-04
  0.421999991         9.97747527E-04
  0.423000008         1.16613973E-03
  0.423999995         1.34807208E-03
  0.425000012         1.54446089E-03
  0.425999999         1.75633898E-03
  0.426999986         1.98485516E-03
  0.428000003         2.23126682E-03
  0.428999990         2.49692751E-03
  0.430000007         2.78326683E-03
  0.430999994         3.09176650E-03
  0.432000011         3.42393108E-03
  0.432999998         3.78125557E-03
  0.433999985         4.16519167E-03
  0.435000002         4.57710866E-03
  0.435999990         5.01825335E-03
  0.437000006         5.48970932E-03
  0.437999994         5.99234970E-03
  0.439000010         6.52679289E-03
  0.439999998         7.09335646E-03
  0.441000015         7.69200921E-03
  0.442000002         8.32232647E-03
  0.442999989         8.98344815E-03
  0.444000006         9.67403501E-03
  0.444999993         1.03922375E-02
  0.446000010         1.11356564E-02
  0.446999997         1.19013255E-02
  0.448000014         1.26856938E-02
  0.449000001         1.34846214E-02
  0.449999988         1.42933773E-02
  0.451000005         1.51066566E-02
  0.451999992         1.59185976E-02
  0.453000009         1.67228132E-02
  0.453999996         1.75124332E-02
  0.455000013         1.82801448E-02
  0.456000000         1.90182608E-02
  0.456999987         1.97187793E-02
  0.458000004         2.03734655E-02
  0.458999991         2.09739283E-02
  0.460000008         2.15117261E-02
  0.460999995         2.19784547E-02
  0.462000012         2.23658439E-02
  0.463000000         2.26658825E-02
  0.463999987         2.28709020E-02
  0.465000004         2.29737069E-02
  0.465999991         2.29676664E-02
  0.467000008         2.28468273E-02
  0.467999995         2.26060115E-02
  0.469000012         2.22409144E-02
  0.469999999         2.17481833E-02
  0.470999986         2.11254936E-02
  0.472000003         2.03716159E-02
  0.472999990         1.94864646E-02
  0.474000007         1.84711423E-02
  0.474999994         1.73279624E-02
  0.476000011         1.60604734E-02
  0.476999998         1.46734454E-02
  0.477999985         1.31728575E-02
  0.479000002         1.15658632E-02
  0.479999989         9.86074004E-03
  0.481000006         8.06682557E-03
  0.481999993         6.19443925E-03
  0.483000010         4.25479515E-03
  0.483999997         2.25989544E-03
  0.485000014         2.22417963E-04
  0.486000001        -1.84440857E-03
  0.486999989        -3.92693654E-03
  0.488000005        -6.01123972E-03
  0.488999993        -8.08325596E-03
  0.490000010        -1.01289311E-02
  0.490999997        -1.21343639E-02
  0.492000014        -1.40859513E-02
  0.493000001        -1.59705263E-02
  0.493999988        -1.77754946E-02
  0.495000005        -1.94889586E-02
  0.495999992        -2.10998449E-02
  0.497000009        -2.25979984E-02
  0.497999996        -2.39742938E-02
  0.499000013        -2.52207089E-02
  0.500000000        -2.63303965E-02
  0.500999987        -2.72977371E-02
  0.501999974        -2.81183850E-02
  0.503000021        -2.87892837E-02
  0.504000008        -2.93086842E-02
  0.504999995        -2.96761431E-02
  0.505999982        -2.98924856E-02
  0.507000029        -2.99597792E-02
  0.508000016        -2.98812892E-02
  0.509000003        -2.96613965E-02
  0.509999990        -2.93055438E-02
  0.510999978        -2.88201328E-02
  0.512000024        -2.82124467E-02
  0.513000011        -2.74905395E-02
  0.513999999        -2.66631395E-02
  0.514999986        -2.57395376E-02
  0.515999973        -2.47294717E-02
  0.517000020        -2.36430243E-02
  0.518000007        -2.24905014E-02
  0.518999994        -2.12823283E-02
  0.519999981        -2.00289376E-02
  0.521000028        -1.87406689E-02
  0.522000015        -1.74276698E-02
  0.523000002        -1.60998087E-02
  0.523999989        -1.47665832E-02
  0.524999976        -1.34370551E-02
  0.526000023        -1.21197775E-02
  0.527000010        -1.08227422E-02
  0.527999997        -9.55333002E-03
  0.528999984        -8.31827708E-03
  0.529999971        -7.12364772E-03
  0.531000018        -5.97480964E-03
  0.532000005        -4.87643015E-03
  0.532999992        -3.83246853E-03
  0.533999979        -2.84618465E-03
  0.535000026        -1.92015013E-03
  0.536000013        -1.05626730E-03
  0.537000000        -2.55795807E-04
  0.537999988         4.80616582E-04
  0.538999975         1.15289877E-03
  0.540000021         1.76151691E-03
  0.541000009         2.30743201E-03
  0.541999996         2.79205525E-03
  0.542999983         3.21720284E-03
  0.544000030         3.58504569E-03
  0.545000017         3.89806484E-03
  0.546000004         4.15900024E-03
  0.546999991         4.37080581E-03
  0.547999978         4.53660311E-03
  0.549000025         4.65963641E-03
  0.550000012         4.74323379E-03
  0.550999999         4.79076523E-03
  0.551999986         4.80560958E-03
  0.552999973         4.79111960E-03
  0.554000020         4.75059217E-03
  0.555000007         4.68723988E-03
  0.555999994         4.60416544E-03
  0.556999981         4.50433791E-03
  0.558000028         4.39057639E-03
  0.559000015         4.26552957E-03
  0.560000002         4.13166545E-03
  0.560999990         3.99126019E-03
  0.561999977         3.84639343E-03
  0.563000023         3.69894365E-03
  0.564000010         3.55058769E-03
  0.564999998         3.40280263E-03
  0.565999985         3.25686764E-03
  0.566999972         3.11386958E-03
  0.568000019         2.97470973E-03
  0.569000006         2.84011243E-03
  0.569999993         2.71063438E-03
  0.570999980         2.58667814E-03
  0.572000027         2.46850448E-03
  0.573000014         2.35624542E-03
  0.574000001         2.24991958E-03
  0.574999988         2.14944617E-03
  0.575999975         2.05465942E-03
  0.577000022         1.96532370E-03
  0.578000009         1.88114680E-03
  0.578999996         1.80179405E-03
  0.579999983         1.72690197E-03
  0.580999970         1.65608968E-03
  0.582000017         1.58897112E-03
  0.583000004         1.52516540E-03
  0.583999991         1.46430661E-03
  0.584999979         1.40605250E-03
  0.586000025         1.35009293E-03
  0.587000012         1.29615550E-03
  0.588000000         1.24401029E-03
  0.588999987         1.19347277E-03
  0.589999974         1.14440406E-03
  0.591000021         1.09671045E-03
  0.592000008         1.05034024E-03
  0.592999995         1.00528169E-03
  0.593999982         9.61559068E-04
  0.595000029         9.19229467E-04
  0.596000016         8.78379389E-04
  0.597000003         8.39120767E-04
  0.597999990         8.01586139E-04
  0.598999977         7.65923003E-04
  0.600000024         7.32287997E-04
  0.601000011         7.00839330E-04
  0.601999998         6.71730493E-04
  0.602999985         6.45103224E-04
  0.603999972         6.21082087E-04
  0.605000019         5.99769526E-04
  0.606000006         5.81242843E-04
  0.606999993         5.65551221E-04
  0.607999980         5.52714802E-04
  0.609000027         5.42723748E-04
  0.610000014         5.35538304E-04
  0.611000001         5.31088852E-04
  0.611999989         5.29276265E-04
  0.612999976         5.29972545E-04
  0.614000022         5.33021521E-04
  0.615000010         5.38240303E-04
  0.615999997         5.45421382E-04
  0.616999984         5.54335478E-04
  0.617999971         5.64735383E-04
  0.619000018         5.76360500E-04
  0.620000005         5.88940922E-04
  0.620999992         6.02202374E-04
  0.621999979         6.15869998E-04
  0.623000026         6.29671675E-04
  0.624000013         6.43340929E-04
  0.625000000         6.56618737E-04
  0.625999987         6.69255678E-04
  0.626999974         6.81012752E-04
  0.628000021         6.91662659E-04
  0.629000008         7.00990728E-04
  0.629999995         7.08795676E-04
  0.630999982         7.14889960E-04
  0.632000029         7.19101052E-04
  0.633000016         7.21271324E-04
  0.634000003         7.21258577E-04
  0.634999990         7.18935626E-04
  0.635999978         7.14189198E-04
  0.637000024         7.06918305E-04
  0.638000011         6.97032490E-04
  0.638999999         6.84449682E-04
  0.639999986         6.69095083E-04
  0.640999973         6.50900358E-04
  0.642000020         6.29804446E-04
  0.643000007         6.05754263E-04
  0.643999994         5.78706327E-04
  0.644999981         5.48627926E-04
  0.646000028         5.15497639E-04
  0.647000015         4.79306036E-04
  0.648000002         4.40055621E-04
  0.648999989         3.97761673E-04
  0.649999976         3.52453411E-04
  0.651000023         3.04175977E-04
  0.652000010         2.52992933E-04
  0.652999997         1.98988957E-04
  0.653999984         1.42272023E-04
  0.654999971         8.29754135E-05
  0.656000018         2.12588657E-05
  0.657000005        -4.26906881E-05
  0.657999992        -1.08658729E-04
  0.658999979        -1.76403060E-04
  0.660000026        -2.45653995E-04
  0.661000013        -3.16115009E-04
  0.662000000        -3.87463777E-04
  0.662999988        -4.59353643E-04
  0.663999975        -5.31415455E-04
  0.665000021        -6.03259599E-04
  0.666000009        -6.74478128E-04
  0.666999996        -7.44647637E-04
  0.667999983        -8.13332561E-04
  0.669000030        -8.80089181E-04
  0.670000017        -9.44470754E-04
  0.671000004        -1.00603385E-03
  0.671999991        -1.06434396E-03
  0.672999978        -1.11898186E-03
  0.674000025        -1.16954837E-03
  0.675000012        -1.21566968E-03
  0.675999999        -1.25699956E-03
  0.676999986        -1.29322440E-03
  0.677999973        -1.32406550E-03
  0.679000020        -1.34928338E-03
  0.680000007        -1.36868155E-03
  0.680999994        -1.38211064E-03
  0.681999981        -1.38947123E-03
  0.683000028        -1.39071629E-03
  0.684000015        -1.38585328E-03
  0.685000002        -1.37494423E-03
  0.685999990        -1.35810580E-03
  0.686999977        -1.33550947E-03
  0.688000023        -1.30737934E-03
  0.689000010        -1.27399142E-03