 -0.119999997         0.00000000    
 -0.119000003         0.00000000    
 -0.118000001         0.00000000    
 -0.116999999         0.00000000    
 -0.115999997         0.00000000    
 -0.115000002         0.00000000    
 -0.114000000         0.00000000    
 -0.112999998         0.00000000    
 -0.112000003         0.00000000    
 -0.111000001         0.00000000    
 -0.109999999         0.00000000    
 -0.108999997        -1.89380793E-38
 -0.108000003        -3.47462728E-35
 -0.107000001        -7.48879303E-34
 -0.105999999        -8.25117174E-33
 -0.104999997        -6.10766058E-32
 -0.104000002        -3.36622579E-31
 -0.103000000        -1.44496966E-30
 -0.101999998        -4.88137138E-30
 -0.101000004        -1.25682329E-29
 -0.100000001        -2.10475826E-29
  -9.89999995E-02     5.94904243E-31
  -9.79999974E-02     1.64198540E-28
  -9.70000029E-02     7.42180167E-28
  -9.60000008E-02     2.17715691E-27
  -9.49999988E-02     4.71986611E-27
  -9.39999968E-02     7.13729223E-27
  -9.30000022E-02     3.99037893E-27
  -9.20000002E-02    -1.78354502E-26
  -9.09999982E-02    -7.93864625E-26
  -9.00000036E-02    -1.97508855E-25
  -8.90000015E-02    -3.47675554E-25
  -8.79999995E-02    -3.96684376E-25
  -8.69999975E-02    -3.18323217E-26
  -8.60000029E-02     1.22516331E-24
  -8.50000009E-02     3.76281209E-24
  -8.39999989E-02     7.22650547E-24
  -8.29999968E-02     9.50301447E-24
  -8.20000023E-02     5.86640593E-24
  -8.10000002E-02    -1.04809858E-23
  -7.99999982E-02    -4.47463362E-23
  -7.90000036E-02    -9.26321369E-23
  -7.80000016E-02    -1.29709634E-22
  -7.69999996E-02    -1.04595913E-22
  -7.59999976E-02     5.20479823E-23
  -7.50000030E-02     3.89311111E-22
  -7.40000010E-02     8.64643655E-22
  -7.29999989E-02     1.26029044E-21
  -7.19999969E-02     1.14536676E-21
  -7.10000023E-02    -2.86599257E-23
  -7.00000003E-02    -2.62209751E-21
  -6.89999983E-02    -6.30134801E-21
  -6.80000037E-02    -9.51812174E-21
  -6.70000017E-02    -9.36727033E-21
  -6.59999996E-02    -2.32854473E-21
  -6.49999976E-02     1.37728981E-20
  -6.40000030E-02     3.68452320E-20
  -6.30000010E-02     5.78656459E-20
  -6.19999990E-02     6.06334116E-20
  -6.10000007E-02     2.63137397E-20
  -5.99999987E-02    -5.61606651E-20
  -5.90000004E-02    -1.75940851E-19
  -5.79999983E-02    -2.88824845E-19
  -5.70000000E-02    -3.18416740E-19
  -5.60000017E-02    -1.79176148E-19
  -5.49999997E-02     1.76648620E-19
  -5.40000014E-02     7.00355989E-19
  -5.29999994E-02     1.20516245E-18
  -5.20000011E-02     1.38027772E-18
  -5.09999990E-02     8.91348321E-19
  -5.00000007E-02    -4.35174809E-19
  -4.89999987E-02    -2.40018118E-18
  -4.80000004E-02    -4.30348158E-18
  -4.69999984E-02    -5.03076649E-18
  -4.60000001E-02    -3.44102110E-18
  -4.50000018E-02     9.88810774E-19
  -4.39999998E-02     7.48601680E-18
  -4.30000015E-02     1.36505175E-17
  -4.19999994E-02     1.58691854E-17
  -4.10000011E-02     1.06705091E-17
  -3.99999991E-02    -3.22393292E-18
  -3.90000008E-02    -2.29378011E-17
  -3.79999988E-02    -4.07421557E-17
  -3.70000005E-02    -4.57164990E-17
  -3.59999985E-02    -2.81132551E-17
  -3.50000001E-02     1.45761814E-17
  -3.40000018E-02     7.23410606E-17
  -3.29999998E-02     1.21499293E-16
  -3.20000015E-02     1.30444093E-16
  -3.09999995E-02     7.26700667E-17
  -2.99999993E-02    -5.63157994E-17
  -2.89999992E-02    -2.25350495E-16
  -2.80000009E-02    -3.66085019E-16
  -2.70000007E-02    -3.90181201E-16
  -2.60000005E-02    -2.25095644E-16
  -2.50000004E-02     1.41396957E-16
  -2.40000002E-02     6.26661497E-16
  -2.30000000E-02     1.05043933E-15
  -2.19999999E-02     1.17895689E-15
  -2.09999997E-02     8.13954722E-16
  -1.99999996E-02    -9.81897467E-17
  -1.89999994E-02    -1.38158178E-15
  -1.79999992E-02    -2.61972658E-15
  -1.70000009E-02    -3.25093956E-15
  -1.60000008E-02    -2.76444280E-15
  -1.49999997E-02    -9.42394669E-16
  -1.40000004E-02     1.94620685E-15
  -1.30000003E-02     5.10161676E-15
  -1.20000001E-02     7.36417475E-15
  -1.09999999E-02     7.58667760E-15
  -9.99999978E-03     5.10133428E-15
  -8.99999961E-03     1.04536220E-16
  -8.00000038E-03    -6.22423188E-15
  -7.00000022E-03    -1.19774126E-14
  -6.00000005E-03    -1.51139663E-14
  -4.99999989E-03    -1.42012163E-14
  -4.00000019E-03    -9.01020032E-15
  -3.00000003E-03    -6.87426847E-16
  -2.00000009E-03     8.62148674E-15
  -1.00000005E-03     1.65777968E-14
   0.00000000         2.15362379E-14
   1.00000005E-03     2.30666638E-14
   2.00000009E-03     2.17858382E-14
   3.00000003E-03     1.85031722E-14
   4.00000019E-03     1.30990740E-14
   4.99999989E-03     3.85225248E-15
   6.00000005E-03    -1.20886679E-14
   7.00000022E-03    -3.68277288E-14
   8.00000038E-03    -6.89282683E-14
   8.99999961E-03    -1.00968936E-13
   9.99999978E-03    -1.19108662E-13
   1.09999999E-02    -1.05989531E-13
   1.20000001E-02    -4.71552966E-14
   1.30000003E-02     6.05285746E-14
   1.40000004E-02     2.01566533E-13
   1.49999997E-02     3.39466926E-13
   1.60000008E-02     4.22360850E-13
   1.70000009E-02     3.97233976E-13
   1.79999992E-02     2.29937082E-13
   1.89999994E-02    -7.51747433E-14
   1.99999996E-02    -4.63832586E-13
   2.09999997E-02    -8.35501644E-13
   2.19999999E-02    -1.06487941E-12
   2.30000000E-02    -1.03792788E-12
   2.40000002E-02    -6.92912199E-13
   2.50000004E-02    -5.30359685E-14
   2.60000005E-02     7.62358655E-13
   2.70000007E-02     1.55579033E-12
   2.80000009E-02     2.09767251E-12
   2.89999992E-02     2.18943461E-12
   2.99999993E-02     1.72566714E-12
   3.09999995E-02     7.35724144E-13
   3.20000015E-02    -6.09637937E-13
   3.29999998E-02    -2.03054977E-12
   3.40000018E-02    -3.20101606E-12
   3.50000001E-02    -3.82484105E-12
   3.59999985E-02    -3.70344770E-12
   3.70000005E-02    -2.77869091E-12
   3.79999988E-02    -1.14349784E-12
   3.90000008E-02     9.75792472E-13
   3.99999991E-02     3.25401750E-12
   4.10000011E-02     5.30671947E-12
   4.19999994E-02     6.72879677E-12
   4.30000015E-02     7.13581234E-12
   4.39999998E-02     6.21800051E-12
   4.50000018E-02     3.81525887E-12
   4.60000001E-02     9.35833764E-15
   4.69999984E-02    -4.78937202E-12
   4.80000004E-02    -9.80117810E-12
   4.89999987E-02    -1.39277513E-11
   5.00000007E-02    -1.59263349E-11
   5.09999990E-02    -1.47029767E-11
   5.20000011E-02    -9.67220748E-12
   5.29999994E-02    -1.08518197E-12
   5.40000014E-02     9.79392435E-12
   5.49999997E-02     2.07672560E-11
   5.60000017E-02     2.90838239E-11
   5.70000000E-02     3.20771951E-11
   5.79999983E-02     2.79215453E-11
   5.90000004E-02     1.62999475E-11
   5.99999987E-02    -1.23273147E-12
   6.10000007E-02    -2.13520243E-11
   6.19999990E-02    -3.95726993E-11
   6.30000010E-02    -5.12582962E-11
   6.40000030E-02    -5.27935265E-11
   6.49999976E-02    -4.26094889E-11
   6.59999996E-02    -2.17678132E-11
   6.70000017E-02     6.08477461E-12
   6.80000037E-02     3.54130718E-11
   6.89999983E-02     5.99838304E-11
   7.00000003E-02     7.42565592E-11
   7.10000023E-02     7.46294693E-11
   7.19999969E-02     6.02424846E-11
   7.29999989E-02     3.31666292E-11
   7.40000010E-02    -2.02579880E-12
   7.50000030E-02    -3.91672181E-11
   7.59999976E-02    -7.16438089E-11
   7.69999996E-02    -9.35423405E-11
   7.80000016E-02    -1.00602665E-10
   7.90000036E-02    -9.08691039E-11
   7.99999982E-02    -6.50094978E-11
   8.10000002E-02    -2.63096246E-11
   8.20000023E-02     1.96515634E-11
   8.29999968E-02     6.56590962E-11
   8.39999989E-02     1.03863675E-10
   8.50000009E-02     1.27086883E-10
   8.60000029E-02     1.30279468E-10
   8.69999975E-02     1.11847441E-10
   8.79999995E-02     7.44626236E-11
   8.90000015E-02     2.49805749E-11
   9.00000036E-02    -2.67555041E-11
   9.09999982E-02    -7.01494834E-11
   9.20000002E-02    -9.66838762E-11
   9.30000022E-02    -1.02590846E-10
   9.39999968E-02    -9.04737327E-11
   9.49999988E-02    -6.91375499E-11
   9.60000008E-02    -5.13251074E-11
   9.70000029E-02    -4.96915287E-11
   9.79999974E-02    -7.20021612E-11
   9.89999995E-02    -1.16985241E-10
  0.100000001        -1.72324335E-10
  0.101000004        -2.15853724E-10
  0.101999998        -2.20190546E-10
  0.103000000        -1.60011032E-10
  0.104000002        -2.02601356E-11
  0.104999997         1.96925004E-10
  0.105999999         4.68696026E-10
  0.107000001         7.52760854E-10
  0.108000003         9.93623961E-10
  0.108999997         1.13265797E-09
  0.109999999         1.11979570E-09
  0.111000001         9.24142429E-10
  0.112000003         5.41054479E-10
  0.112999998        -5.85339503E-12
  0.114000000        -6.67996491E-10
  0.115000002        -1.37930423E-09
  0.115999997        -2.06585216E-09
  0.116999999        -2.65527578E-09
  0.118000001        -3.08397019E-09
  0.119000003        -3.30097727E-09
  0.119999997        -3.26857741E-09
  0.120999999        -2.96061975E-09
  0.122000001        -2.36021092E-09
  0.123000003        -1.45849843E-09
  0.123999998        -2.55897831E-10
  0.125000000         1.23355270E-09
  0.126000002         2.97480152E-09
  0.127000004         4.90214491E-09
  0.128000006         6.90872382E-09
  0.128999993         8.83700402E-09
  0.129999995         1.04725260E-08
  0.130999997         1.15435483E-08
  0.131999999         1.17294450E-08
  0.133000001         1.06804450E-08
  0.134000003         8.05055489E-09
  0.135000005         3.54383833E-09
  0.136000007        -3.02799186E-09
  0.136999995        -1.16812977E-08
  0.137999997        -2.21964420E-08
  0.138999999        -3.40618662E-08
  0.140000001        -4.64336445E-08
  0.141000003        -5.81153898E-08
  0.142000005        -6.75590854E-08
  0.143000007        -7.28820950E-08
  0.143999994        -7.18913071E-08
  0.144999996        -6.21015346E-08
  0.145999998        -4.07350420E-08
  0.147000000        -4.69058792E-09
  0.148000002         4.95251840E-08
  0.149000004         1.25905970E-07
  0.150000006         2.29091356E-07
  0.150999993         3.64544604E-07
  0.151999995         5.38756922E-07
  0.152999997         7.59477757E-07
  0.153999999         1.03597381E-06
  0.155000001         1.37932682E-06
  0.156000003         1.80278619E-06
  0.157000005         2.32219395E-06
  0.158000007         2.95649988E-06
  0.158999994         3.72838599E-06
  0.159999996         4.66500387E-06
  0.160999998         5.79883954E-06
  0.162000000         7.16870227E-06
  0.163000003         8.82084169E-06
  0.164000005         1.08101940E-05
  0.165000007         1.32017703E-05
  0.165999994         1.60721866E-05
  0.166999996         1.95113662E-05
  0.167999998         2.36244359E-05
  0.169000000         2.85338356E-05
  0.170000002         3.43816573E-05
  0.171000004         4.13322705E-05
  0.172000006         4.95752211E-05
  0.172999993         5.93284130E-05
  0.173999995         7.08416701E-05
  0.174999997         8.44005481E-05
  0.175999999         1.00330537E-04
  0.177000001         1.19001503E-04
  0.178000003         1.40832548E-04
  0.179000005         1.66296988E-04
  0.180000007         1.95927758E-04
  0.180999994         2.30322941E-04
  0.181999996         2.70151475E-04
  0.182999998         3.16159043E-04
  0.184000000         3.69173882E-04
  0.185000002         4.30112588E-04
  0.186000004         4.99986054E-04
  0.187000006         5.79904590E-04
  0.187999994         6.71083399E-04
  0.188999996         7.74846878E-04
  0.189999998         8.92632408E-04
  0.191000000         1.02599349E-03
  0.192000002         1.17660163E-03
  0.193000004         1.34624611E-03
  0.194000006         1.53683359E-03
  0.194999993         1.75038446E-03
  0.195999995         1.98902772E-03
  0.196999997         2.25499435E-03
  0.197999999         2.55060568E-03
  0.199000001         2.87826196E-03
  0.200000003         3.24042607E-03
  0.201000005         3.63960327E-03
  0.202000007         4.07832023E-03
  0.202999994         4.55909641E-03
  0.203999996         5.08441729E-03
  0.204999998         5.65669686E-03
  0.206000000         6.27824338E-03
  0.207000002         6.95121568E-03
  0.208000004         7.67758023E-03
  0.209000006         8.45905766E-03
  0.209999993         9.29707754E-03
  0.210999995         1.01927193E-02
  0.211999997         1.11466572E-02
  0.213000000         1.21591054E-02
  0.214000002         1.32297520E-02
  0.215000004         1.43577093E-02
  0.216000006         1.55414492E-02
  0.216999993         1.67787503E-02
  0.217999995         1.80666447E-02
  0.218999997         1.94013659E-02
  0.219999999         2.07783114E-02
  0.221000001         2.21920051E-02
  0.222000003         2.36360580E-02
  0.223000005         2.51031630E-02
  0.224000007         2.65850816E-02
  0.224999994         2.80726459E-02
  0.225999996         2.95557696E-02
  0.226999998         3.10234856E-02
  0.228000000         3.24639790E-02
  0.229000002         3.38646658E-02
  0.230000004         3.52122374E-02
  0.231000006         3.64927799E-02
  0.231999993         3.76918651E-02
  0.232999995         3.87946777E-02
  0.233999997         3.97861451E-02
  0.234999999         4.06510979E-02
  0.236000001         4.13744226E-02
  0.237000003         4.19412442E-02
  0.238000005         4.23370972E-02
  0.238999993         4.25481200E-02
  0.239999995         4.25612666E-02
  0.240999997         4.23644707E-02
  0.241999999         4.19468768E-02
  0.243000001         4.12989967E-02
  0.244000003         4.04129215E-02
  0.245000005         3.92824784E-02
  0.246000007         3.79034020E-02
  0.246999994         3.62734571E-02
  0.247999996         3.43925878E-02
  0.248999998         3.22630033E-02
  0.250000000         2.98892558E-02
  0.250999987         2.72782985E-02
  0.252000004         2.44394951E-02
  0.252999991         2.13846099E-02
  0.254000008         1.81277636E-02
  0.254999995         1.46853579E-02
  0.256000012         1.10759670E-02
  0.256999999         7.32020568E-03
  0.257999986         3.44054936E-03
  0.259000003        -5.38855733E-04
  0.259999990        -4.59242379E-03
  0.261000007        -8.69337749E-03
  0.261999995        -1.28140179E-02
  0.263000011        -1.69260111E-02
  0.263999999        -2.10006889E-02
  0.264999986        -2.50093527E-02
  0.266000003        -2.89235916E-02
  0.266999990        -3.27155888E-02
  0.268000007        -3.63584347E-02
  0.268999994        -3.98264267E-02
  0.270000011        -4.30953391E-02
  0.270999998        -4.61427011E-02
  0.272000015        -4.89480421E-02
  0.273000002        -5.14931008E-02
  0.273999989        -5.37620261E-02
  0.275000006        -5.57415225E-02
  0.275999993        -5.74209727E-02
  0.277000010        -5.87925315E-02
  0.277999997        -5.98511845E-02
  0.279000014        -6.05947375E-02
  0.280000001        -6.10238127E-02
  0.280999988        -6.11417964E-02
  0.282000005        -6.09547235E-02
  0.282999992        -6.04711957E-02
  0.284000009        -5.97021878E-02
  0.284999996        -5.86608984E-02
  0.286000013        -5.73625304E-02
  0.287000000        -5.58240674E-02
  0.287999988        -5.40640503E-02
  0.289000005        -5.21023199E-02
  0.289999992        -4.99597602E-02
  0.291000009        -4.76580374E-02
  0.291999996        -4.52193432E-02
  0.293000013        -4.26661223E-02
  0.294000000        -4.00208421E-02
  0.294999987        -3.73057351E-02
  0.296000004        -3.45425867E-02
  0.296999991        -3.17525193E-02
  0.298000008        -2.89558135E-02
  0.298999995        -2.61717271E-02
  0.300000012        -2.34183576E-02
  0.300999999        -2.07125135E-02
  0.301999986        -1.80696025E-02
  0.303000003        -1.55035621E-02
  0.303999990        -1.30267944E-02
  0.305000007        -1.06501384E-02
  0.305999994        -8.38286057E-03
  0.307000011        -6.23265933E-03
  0.307999998        -4.20569722E-03
  0.308999985        -2.30664364E-03
  0.310000002        -5.38733555E-04
  0.310999990         1.09616062E-03
  0.312000006         2.59744539E-03
  0.312999994         3.96571308E-03
  0.314000010         5.20263938E-03
  0.314999998         6.31087925E-03
  0.316000015         7.29395589E-03
  0.317000002         8.15615151E-03
  0.317999989         8.90240166E-03
  0.319000006         9.53818392E-03
  0.319999993         1.00694122E-02
  0.321000010         1.05023384E-02
  0.321999997         1.08434577E-02
  0.323000014         1.10994130E-02
  0.324000001         1.12769166E-02
  0.324999988         1.13826767E-02
  0.326000005         1.14233242E-02
  0.326999992         1.14053590E-02
  0.328000009         1.13350954E-02
  0.328999996         1.12186186E-02
  0.330000013         1.10617438E-02
  0.331000000         1.08699910E-02
  0.331999987         1.06485579E-02
  0.333000004         1.04023032E-02
  0.333999991         1.01357391E-02
  0.335000008         9.85302310E-03
  0.335999995         9.55795683E-03
  0.337000012         9.25399177E-03
  0.338000000         8.94423760E-03
  0.338999987         8.63146689E-03
  0.340000004         8.31812993E-03
  0.340999991         8.00637342E-03
  0.342000008         7.69805117E-03
  0.342999995         7.39474641E-03
  0.344000012         7.09778722E-03
  0.344999999         6.80826884E-03
  0.345999986         6.52707322E-03
  0.347000003         6.25488814E-03
  0.347999990         5.99222910E-03
  0.349000007         5.73945697E-03
  0.349999994         5.49679575E-03
  0.351000011         5.26435021E-03
  0.351999998         5.04212314E-03
  0.352999985         4.83002607E-03
  0.354000002         4.62789880E-03
  0.354999989         4.43551783E-03
  0.356000006         4.25261306E-03
  0.356999993         4.07887809E-03
  0.358000010         3.91397951E-03
  0.358999997         3.75756645E-03
  0.360000014         3.60927870E-03
  0.361000001         3.46875214E-03
  0.361999989         3.33562586E-03
  0.363000005         3.20954481E-03
  0.363999993         3.09016532E-03
  0.365000010         2.97715655E-03
  0.365999997         2.87020276E-03
  0.367000014         2.76900339E-03
  0.368000001         2.67327344E-03
  0.368999988         2.58274470E-03
  0.370000005         2.49716640E-03
  0.370999992         2.41630548E-03
  0.372000009         2.33994867E-03
  0.372999996         2.26790179E-03
  0.374000013         2.19998858E-03
  0.375000000         2.13604956E-03
  0.375999987         2.07593921E-03
  0.377000004         2.01952574E-03
  0.377999991         1.96668878E-03
  0.379000008         1.91732089E-03
  0.379999995         1.87132740E-03
  0.381000012         1.82862906E-03
  0.381999999         1.78916217E-03
  0.382999986         1.75288029E-03
  0.384000003         1.71975465E-03
  0.384999990         1.68977596E-03
  0.386000007         1.66295515E-03
  0.386999995         1.63932529E-03
  0.388000011         1.61894318E-03
  0.388999999         1.60189031E-03
  0.389999986         1.58827414E-03
  0.391000003         1.57822785E-03
  0.391999990         1.57190987E-03
  0.393000007         1.56950334E-03
  0.393999994         1.57121592E-03
  0.395000011         1.57727790E-03
  0.395999998         1.58794085E-03
  0.397000015         1.60347519E-03
  0.398000002         1.62416522E-03
  0.398999989         1.65030535E-03
  0.400000006         1.68219244E-03
  0.400999993         1.72012008E-03
  0.402000010         1.76436978E-03
  0.402999997         1.81520265E-03
  0.404000014         1.87284953E-03
  0.405000001         1.93750067E-03
  0.405999988         2.00929353E-03
  0.407000005         2.08830251E-03
  0.407999992         2.17452552E-03
  0.409000009         2.26787478E-03
  0.409999996         2.36816402E-03
  0.411000013         2.47509941E-03
  0.412000000         2.58826977E-03
  0.412999988         2.70713586E-03
  0.414000005         2.83102249E-03
  0.414999992         2.95911031E-03
  0.416000009         3.09042912E-03
  0.416999996         3.22385551E-03
  0.418000013         3.35810939E-03
  0.419000000         3.49175627E-03
  0.419999987         3.62320920E-03
  0.421000004         3.75073589E-03
  0.421999991         3.87246674E-03
  0.423000008         3.98640381E-03
  0.423999995         4.09043627E-03
  0.425000012         4.18235641E-03
  0.425999999         4.25987877E-03
  0.426999986         4.32066107E-03
  0.428000003         4.36233077E-03
  0.428999990         4.38250694E-03
  0.430000007         4.37883288E-03
  0.430999994         4.34900215E-03
  0.432000011         4.29078983E-03
  0.432999998         4.20208694E-03
  0.433999985         4.08093026E-03
  0.435000002         3.92553490E-03
  0.435999990         3.73432809E-03
  0.437000006         3.50597803E-03
  0.437999994         3.23942234E-03
  0.439000010         2.93389661E-03
  0.439999998         2.58895895E-03
  0.441000015         2.20451201E-03
  0.442000002         1.78082415E-03
  0.442999989         1.31854333E-03
  0.444000006         8.18709726E-04
  0.444999993         2.82761088E-04
  0.446000010        -2.87466595E-04
  0.446999997        -8.89743387E-04
  0.448000014        -1.52145466E-03
  0.449000001        -2.17961380E-03
  0.449999988        -2.86087929E-03
  0.451000005        -3.56157683E-03
  0.451999992        -4.27772617E-03
  0.453000009        -5.00507280E-03
  0.453999996        -5.73912356E-03
  0.455000013        -6.47518644E-03
  0.456000000        -7.20841810E-03
  0.456999987        -7.93386903E-03
  0.458000004        -8.64653010E-03
  0.458999991        -9.34138708E-03
  0.460000008        -1.00134667E-02
  0.460999995        -1.06578888E-02
  0.462000012        -1.12699168E-02
  0.463000000        -1.18450075E-02
  0.463999987        -1.23788603E-02
  0.465000004        -1.28674638E-02
  0.465999991        -1.33071337E-02
  0.467000008        -1.36945602E-02
  0.467999995        -1.40268384E-02
  0.469000012        -1.43014938E-02
  0.469999999        -1.45165157E-02
  0.470999986        -1.46703692E-02
  0.472000003        -1.47620104E-02
  0.472999990        -1.47909001E-02
  0.474000007        -1.47570008E-02
  0.474999994        -1.46607822E-02
  0.476000011        -1.45032108E-02
  0.476999998        -1.42857358E-02
  0.477999985        -1.40102739E-02
  0.479000002        -1.36791794E-02
  0.479999989        -1.32952156E-02
  0.481000006        -1.28615182E-02
  0.481999993        -1.23815611E-02
  0.483000010        -1.18591143E-02
  0.483999997        -1.12982020E-02
  0.485000014        -1.07030626E-02
  0.486000001        -1.00781014E-02
  0.486999989        -9.42784827E-03
  0.488000005        -8.75690859E-03
  0.488999993        -8.06992222E-03
  0.490000010        -7.37151317E-03
  0.490999997        -6.66624540E-03
  0.492000014        -5.95858088E-03
  0.493000001        -5.25284046E-03
  0.493999988        -4.55316808E-03
  0.495000005        -3.86349973E-03
  0.495999992        -3.18753486E-03
  0.497000009        -2.52871402E-03
  0.497999996        -1.89019681E-03
  0.499000013        -1.27484393E-03
  0.500000000        -6.85202132E-04
  0.500999987        -1.23493912E-04
  0.501999974         4.08389489E-04
  0.503000021         9.08889459E-04
  0.504000008         1.37677672E-03
  0.504999995         1.81114348E-03
  0.505999982         2.21139356E-03
  0.507000029         2.57722964E-03
  0.508000016         2.90863984E-03
  0.509000003         3.20588285E-03
  0.509999990         3.46947182E-03
  0.510999978         3.70015437E-03
  0.512000024         3.89889302E-03
  0.513000011         4.06684075E-03
  0.513999999         4.20531584E-03
  0.514999986         4.31577675E-03
  0.515999973         4.39979555E-03
  0.517000020         4.45903465E-03
  0.518000007         4.49522538E-03
  0.518999994         4.51014470E-03
  0.519999981         4.50559985E-03
  0.521000028         4.48340643E-03
  0.522000015         4.44537075E-03
  0.523000002         4.39327210E-03
  0.523999989         4.32884693E-03
  0.524999976         4.25377255E-03
  0.526000023         4.16965457E-03
  0.527000010         4.07801429E-03
  0.527999997         3.98028223E-03
  0.528999984         3.87779227E-03
  0.529999971         3.77177354E-03
  0.531000018         3.66335106E-03
  0.532000005         3.55354301E-03
  0.532999992         3.44325881E-03
  0.533999979         3.33329942E-03
  0.535000026         3.22435866E-03
  0.536000013         3.11702467E-03
  0.537000000         3.01178521E-03
  0.537999988         2.90903240E-03
  0.538999975         2.80907075E-03
  0.540000021         2.71212519E-03
  0.541000009         2.61834939E-03
  0.541999996         2.52783205E-03
  0.542999983         2.44060368E-03
  0.544000030         2.35664286E-03
  0.545000017         2.27588066E-03
  0.546000004         2.19820696E-03
  0.546999991         2.12347647E-03
  0.547999978         2.05151737E-03
  0.549000025         1.98213779E-03
  0.550000012         1.91513496E-03
  0.550999999         1.85030035E-03
  0.551999986         1.78742455E-03
  0.552999973         1.72629987E-03
  0.554000020         1.66672096E-03
  0.555000007         1.60848512E-03
  0.555999994         1.55139284E-03
  0.556999981         1.49524747E-03
  0.558000028         1.43985706E-03
  0.559000015         1.38503499E-03
  0.560000002         1.33060128E-03
  0.560999990         1.27638248E-03
  0.561999977         1.22221024E-03
  0.563000023         1.16791890E-03
  0.564000010         1.11334294E-03
  0.564999998         1.05831376E-03
  0.565999985         1.00265793E-03
  0.566999972         9.46195854E-04
  0.568000019         8.88742972E-04
  0.569000006         8.30109930E-04
  0.569999993         7.70104525E-04
  0.570999980         7.08532345E-04
  0.572000027         6.45197637E-04
  0.573000014         5.79903717E-04
  0.574000001         5.12454077E-04
  0.574999988         4.42654564E-04
  0.575999975         3.70317197E-04
  0.577000022         2.95265403E-04
  0.578000009         2.17340275E-04
  0.578999996         1.36407252E-04
  0.579999983         5.23623421E-05
  0.580999970        -3.48622052E-05
  0.582000017        -1.25292863E-04
  0.583000004        -2.18909801E-04
  0.583999991        -3.15641577E-04
  0.584999979        -4.15359362E-04
  0.586000025        -5.17870649E-04
  0.587000012        -6.22913416E-04
  0.588000000        -7.30150321E-04
  0.588999987        -8.39165237E-04
  0.589999974        -9.49460140E-04
  0.591000021        -1.06045441E-03
  0.592000008        -1.17148494E-03
  0.592999995        -1.28180766E-03
  0.593999982        -1.39059988E-03
  0.595000029        -1.49696332E-03
  0.596000016        -1.59992883E-03
  0.597000003        -1.69846159E-03
  0.597999990        -1.79146836E-03
  0.598999977        -1.87780627E-03
  0.600000024        -1.95629243E-03
  0.601000011        -2.02571624E-03
  0.601999998        -2.08485243E-03
  0.602999985        -2.13247631E-03
  0.603999972        -2.16737902E-03
  0.605000019        -2.18838383E-03
  0.606000006        -2.19436246E-03
  0.606999993        -2.18424993E-03
  0.607999980        -2.15706136E-03
  0.609000027        -2.11190502E-03
  0.610000014        -2.04799860E-03
  0.611000001        -1.96468434E-03
  0.611999989        -1.86144514E-03
  0.612999976        -1.73791801E-03
  0.614000022        -1.59390888E-03
  0.615000010        -1.42940274E-03
  0.615999997        -1.24457153E-03
  0.616999984        -1.03977893E-03
  0.617999971        -8.15582462E-04
  0.619000018        -5.72734454E-04
  0.620000005        -3.12180520E-04
  0.620999992        -3.50576738E-05
  0.621999979         2.57310021E-04
  0.623000026         5.63418085E-04
  0.624000013         8.81591230E-04
  0.625000000         1.20999676E-03
  0.625999987         1.54666137E-03
  0.626999974         1.88948913E-03
  0.628000021         2.23628338E-03
  0.629000008         2.58476776E-03
  0.629999995         2.93260859E-03
  0.630999982         3.27743730E-03
  0.632000029         3.61687434E-03
  0.633000016         3.94855207E-03
  0.634000003         4.27014008E-03
  0.634999990         4.57936805E-03
  0.635999978         4.87405248E-03
  0.637000024         5.15211793E-03
  0.638000011         5.41162118E-03
  0.638999999         5.65076945E-03
  0.639999986         5.86794131E-03
  0.640999973         6.06170110E-03
  0.642000020         6.23081019E-03
  0.643000007         6.37423946E-03
  0.643999994         6.49117492E-03
  0.644999981         6.58102427E-03
  0.646000028         6.64341962E-03
  0.647000015         6.67821895E-03
  0.648000002         6.68550236E-03
  0.648999989         6.66557113E-03
  0.649999976         6.61893561E-03
  0.651000023         6.54631061E-03
  0.652000010         6.44859765E-03
  0.652999997         6.32687192E-03
  0.653999984         6.18236745E-03
  0.654999971         6.01645699E-03
  0.656000018         5.83063997E-03
  0.657000005         5.62651874E-03
  0.657999992         5.40578598E-03
  0.658999979         5.17020188E-03
  0.660000026         4.92157694E-03
  0.661000013         4.66175284E-03
  0.662000000         4.39258479E-03
  0.662999988         4.11592051E-03
  0.663999975         3.83358542E-03
  0.665000021         3.54736880E-03
  0.666000009         3.25900712E-03
  0.666999996         2.97017326E-03
  0.667999983         2.68246513E-03
  0.669000030         2.39739730E-03
  0.670000017         2.11639144E-03
  0.671000004         1.84076955E-03
  0.671999991         1.57174864E-03
  0.672999978         1.31043536E-03
  0.674000025         1.05782342E-03
  0.675000012         8.14792060E-04
  0.675999999         5.82106353E-04
  0.676999986         3.60419101E-04
  0.677999973         1.50273874E-04
  0.679000020        -4.78911388E-05
  0.680000007        -2.33738814E-04
  0.680999994        -4.07028885E-04
  0.681999981        -5.67613461E-04
  0.683000028        -7.15432747E-04
  0.684000015        -8.50509910E-04
  0.685000002        -9.72945360E-04
  0.685999990        -1.08291046E-03
  0.686999977        -1.18064019E-03
  0.688000023        -1.26642501E-03
  0.689000010        -1.34060392E-03