-0.1200000E+00  0.0000000E+00
-0.1189000E+00  0.0000000E+00
-0.1178000E+00  0.0000000E+00
-0.1167000E+00  0.0000000E+00
-0.1156000E+00  0.0000000E+00
-0.1145000E+00  0.0000000E+00
-0.1134000E+00  0.0000000E+00
-0.1123000E+00  0.0000000E+00
-0.1112000E+00  0.0000000E+00
-0.1101000E+00  0.0000000E+00
-0.1090000E+00  0.0000000E+00
-0.1079000E+00  0.0000000E+00
-0.1068000E+00  0.0000000E+00
-0.1057000E+00  0.0000000E+00
-0.1046000E+00  0.0000000E+00
-0.1035000E+00  0.0000000E+00
-0.1024000E+00  0.0000000E+00
-0.1013000E+00  0.0000000E+00
-0.1002000E+00  0.0000000E+00
-0.9910000E-01  0.0000000E+00
-0.9800000E-01  0.0000000E+00
-0.9690000E-01  0.0000000E+00
-0.9580000E-01  0.0000000E+00
-0.9470000E-01  0.0000000E+00
-0.9360000E-01  0.0000000E+00
-0.9250000E-01  0.0000000E+00
-0.9140000E-01  0.0000000E+00
-0.9030000E-01  0.0000000E+00
-0.8920000E-01  0.0000000E+00
-0.8810000E-01  0.0000000E+00
-0.8700000E-01  0.0000000E+00
-0.8590000E-01  0.0000000E+00
-0.8480000E-01  0.0000000E+00
-0.8370000E-01  0.0000000E+00
-0.8260000E-01  0.0000000E+00
-0.8150000E-01  0.0000000E+00
-0.8040000E-01  0.0000000E+00
-0.7930000E-01  0.0000000E+00
-0.7820000E-01  0.0000000E+00
-0.7710000E-01  0.0000000E+00
-0.7600000E-01  0.0000000E+00
-0.7490000E-01  0.0000000E+00
-0.7380000E-01  0.0000000E+00
-0.7270000E-01  0.0000000E+00
-0.7160000E-01  0.0000000E+00
-0.7050000E-01  0.0000000E+00
-0.6940000E-01 -0.0000000E+00
-0.6830000E-01 -0.3148305E-37
-0.6720000E-01 -0.5588398E-37
-0.6610000E-01  0.0000000E+00
-0.6500000E-01  0.2522884E-36
-0.6390000E-01  0.5710664E-36
-0.6280000E-01  0.5027499E-36
-0.6170000E-01 -0.8422428E-36
-0.6060000E-01 -0.4025622E-35
-0.5950000E-01 -0.7273248E-35
-0.5840000E-01 -0.4298999E-35
-0.5730000E-01  0.1437173E-34
-0.5620000E-01  0.5088638E-34
-0.5510000E-01  0.7931605E-34
-0.5400000E-01  0.2997483E-34
-0.5290000E-01 -0.1824655E-33
-0.5180000E-01 -0.5443502E-33
-0.5070000E-01 -0.7605442E-33
-0.4960000E-01 -0.1730592E-33
-0.4850000E-01  0.1888779E-32
-0.4740000E-01  0.5063645E-32
-0.4630000E-01  0.6562564E-32
-0.4520000E-01  0.9314564E-33
-0.4410000E-01 -0.1659383E-31
-0.4300000E-01 -0.4181777E-31
-0.4190000E-01 -0.5201208E-31
-0.4080000E-01 -0.6565343E-32
-0.3970000E-01  0.1261571E-30
-0.3860000E-01  0.3104522E-30
-0.3750000E-01  0.3828373E-30
-0.3640000E-01  0.6732885E-31
-0.3530000E-01 -0.8376732E-30
-0.3420000E-01 -0.2085557E-29
-0.3310000E-01 -0.2622958E-29
-0.3200000E-01 -0.7207700E-30
-0.3090000E-01  0.4870124E-29
-0.2980000E-01  0.1271844E-28
-0.2870000E-01  0.1668648E-28
-0.2760000E-01  0.6727890E-29
-0.2650000E-01 -0.2467120E-28
-0.2540000E-01 -0.7049264E-28
-0.2430000E-01 -0.9821013E-28
-0.2320000E-01 -0.5353573E-28
-0.2210000E-01  0.1069556E-27
-0.2100000E-01  0.3548946E-27
-0.1990000E-01  0.5330975E-27
-0.1880000E-01  0.3684694E-27
-0.1770000E-01 -0.3771623E-27
-0.1660000E-01 -0.1618179E-26
-0.1550000E-01 -0.2662236E-26
-0.1440000E-01 -0.2230916E-26
-0.1330000E-01  0.9032565E-27
-0.1220000E-01  0.6637023E-26
-0.1110000E-01  0.1220275E-25
-0.1000000E-01  0.1203919E-25
-0.8900000E-02  0.2411630E-27
-0.7800000E-02 -0.2414484E-25
-0.6700000E-02 -0.5118049E-25
-0.5600000E-02 -0.5844066E-25
-0.4500000E-02 -0.1951274E-25
-0.3400000E-02  0.7557332E-25
-0.2300000E-02  0.1954567E-24
-0.1200000E-02  0.2566386E-24
-0.1000000E-03  0.1495653E-24
 0.1000000E-02 -0.1881271E-24
 0.2100000E-02 -0.6738718E-24
 0.3200000E-02 -0.1022341E-23
 0.4300000E-02 -0.8130280E-24
 0.5400000E-02  0.2669691E-24
 0.6500000E-02  0.2064299E-23
 0.7600000E-02  0.3693196E-23
 0.8700000E-02  0.3663681E-23
 0.9800000E-02  0.6194566E-24
 0.1090000E-01 -0.5436253E-23
 0.1200000E-01 -0.1205069E-22
 0.1310000E-01 -0.1436793E-22
 0.1420000E-01 -0.7156271E-23
 0.1530000E-01  0.1130327E-22
 0.1640000E-01  0.3517806E-22
 0.1750000E-01  0.4999769E-22
 0.1860000E-01  0.3755369E-22
 0.1970000E-01 -0.1270978E-22
 0.2080000E-01 -0.9003621E-22
 0.2190000E-01 -0.1553959E-21
 0.2300000E-01 -0.1512569E-21
 0.2410000E-01 -0.3216424E-22
 0.2520000E-01  0.1929115E-21
 0.2630000E-01  0.4304724E-21
 0.2740000E-01  0.5153072E-21
 0.2850000E-01  0.2847664E-21
 0.2960000E-01 -0.3007424E-21
 0.3070000E-01 -0.1050157E-20
 0.3180000E-01 -0.1533798E-20
 0.3290000E-01 -0.1242690E-20
 0.3400000E-01  0.9734698E-22
 0.3510000E-01  0.2188730E-20
 0.3620000E-01  0.4029150E-20
 0.3730000E-01  0.4197189E-20
 0.3840000E-01  0.1598313E-20
 0.3950000E-01 -0.3588383E-20
 0.4060000E-01 -0.9310142E-20
 0.4170000E-01 -0.1199794E-19
 0.4280000E-01 -0.8162525E-20
 0.4390000E-01  0.3194091E-20
 0.4500000E-01  0.1856359E-19
 0.4610000E-01  0.2989530E-19
 0.4720000E-01  0.2759961E-19
 0.4830000E-01  0.6135246E-20
 0.4940000E-01 -0.3025364E-19
 0.5050000E-01 -0.6541042E-19
 0.5160000E-01 -0.7595862E-19
 0.5270000E-01 -0.4304903E-19
 0.5380000E-01  0.3317521E-19
 0.5490000E-01  0.1246037E-18
 0.5600000E-01  0.1801395E-18
 0.5710000E-01  0.1478896E-18
 0.5820000E-01  0.8068075E-20
 0.5930000E-01 -0.1998154E-18
 0.6040000E-01 -0.3755717E-18
 0.6150000E-01 -0.3950737E-18
 0.6260000E-01 -0.1782745E-18
 0.6370000E-01  0.2413729E-18
 0.6480000E-01  0.6896387E-18
 0.6590000E-01  0.9014262E-18
 0.6700000E-01  0.6484842E-18
 0.6810000E-01 -0.1034807E-18
 0.6920000E-01 -0.1094950E-17
 0.7030000E-01 -0.1815466E-17
 0.7140000E-01 -0.1719113E-17
 0.7250000E-01 -0.5462975E-18
 0.7360000E-01  0.1406489E-17
 0.7470000E-01  0.3255571E-17
 0.7580000E-01  0.3847099E-17
 0.7690000E-01  0.2357536E-17
 0.7800000E-01 -0.1085539E-17
 0.7910000E-01 -0.5134070E-17
 0.8020000E-01 -0.7592360E-17
 0.8130000E-01 -0.6434525E-17
 0.8240000E-01 -0.1077432E-17
 0.8350000E-01  0.6770470E-17
 0.8460000E-01  0.1334093E-16
 0.8570000E-01  0.1434557E-16
 0.8680000E-01  0.7339792E-17
 0.8790000E-01 -0.6227146E-17
 0.8900000E-01 -0.2059845E-16
 0.9010000E-01 -0.2770466E-16
 0.9120000E-01 -0.2115166E-16
 0.9230000E-01 -0.4725574E-18
 0.9340000E-01  0.2677857E-16
 0.9450000E-01  0.4697951E-16
 0.9560000E-01  0.4651276E-16
 0.9670000E-01  0.1963093E-16
 0.9780000E-01 -0.2595000E-16
 0.9890000E-01 -0.6964369E-16
 0.1000000E+00 -0.8619239E-16
 0.1011000E+00 -0.5885407E-16
 0.1022000E+00  0.8678780E-17
 0.1033000E+00  0.8887504E-16
 0.1044000E+00  0.1397529E-15
 0.1055000E+00  0.1250671E-15
 0.1066000E+00  0.3651183E-16
 0.1077000E+00 -0.9433220E-16
 0.1088000E+00 -0.2038536E-15
 0.1099000E+00 -0.2246446E-15
 0.1110000E+00 -0.1230733E-15
 0.1121000E+00  0.7303915E-16
 0.1132000E+00  0.2750231E-15
 0.1143000E+00  0.3689548E-15
 0.1154000E+00  0.2745112E-15
 0.1165000E+00 -0.8860371E-18
 0.1176000E+00 -0.3447427E-15
 0.1187000E+00 -0.5778123E-15
 0.1198000E+00 -0.5396570E-15
 0.1209000E+00 -0.1841292E-15
 0.1220000E+00  0.3669953E-15
 0.1231000E+00  0.8523754E-15
 0.1242000E+00  0.9845207E-15
 0.1253000E+00  0.6040759E-15
 0.1264000E+00 -0.2021608E-15
 0.1275000E+00 -0.1093433E-14
 0.1286000E+00 -0.1605970E-14
 0.1297000E+00 -0.1379990E-14
 0.1308000E+00 -0.3776087E-15
 0.1319000E+00  0.1030388E-14
 0.1330000E+00  0.2183277E-14
 0.1341000E+00  0.2430287E-14
 0.1352000E+00  0.1482391E-14
 0.1363000E+00 -0.3670315E-15
 0.1374000E+00 -0.2298253E-14
 0.1385000E+00 -0.3318038E-14
 0.1396000E+00 -0.2768792E-14
 0.1407000E+00 -0.7408850E-15
 0.1418000E+00  0.1857664E-14
 0.1429000E+00  0.3674164E-14
 0.1440000E+00  0.3597823E-14
 0.1451000E+00  0.1431040E-14
 0.1462000E+00 -0.1836648E-14
 0.1473000E+00 -0.4383059E-14
 0.1484000E+00 -0.4457648E-14
 0.1495000E+00 -0.1431244E-14
 0.1506000E+00  0.3576219E-14
 0.1517000E+00  0.7935958E-14
 0.1528000E+00  0.8670952E-14
 0.1539000E+00  0.4088476E-14
 0.1550000E+00 -0.4917437E-14
 0.1561000E+00 -0.1468113E-13
 0.1572000E+00 -0.2004220E-13
 0.1583000E+00 -0.1671565E-13
 0.1594000E+00 -0.3737752E-14
 0.1605000E+00  0.1526132E-13
 0.1616000E+00  0.3282855E-13
 0.1627000E+00  0.4048437E-13
 0.1638000E+00  0.3250797E-13
 0.1649000E+00  0.9033752E-14
 0.1660000E+00 -0.2310741E-13
 0.1671000E+00 -0.5246456E-13
 0.1682000E+00 -0.6729449E-13
 0.1693000E+00 -0.6034822E-13
 0.1704000E+00 -0.3198795E-13
 0.1715000E+00  0.9802671E-14
 0.1726000E+00  0.5251364E-13
 0.1737000E+00  0.8381969E-13
 0.1748000E+00  0.9566038E-13
 0.1759000E+00  0.8586361E-13
 0.1770000E+00  0.5691852E-13
 0.1781000E+00  0.1319121E-13
 0.1792000E+00 -0.4116135E-13
 0.1803000E+00 -0.1017581E-12
 0.1814000E+00 -0.1609784E-12
 0.1825000E+00 -0.2044946E-12
 0.1836000E+00 -0.2107848E-12
 0.1847000E+00 -0.1564212E-12
 0.1858000E+00 -0.2720705E-13
 0.1869000E+00  0.1684998E-12
 0.1880000E+00  0.3908152E-12
 0.1891000E+00  0.5704133E-12
 0.1902000E+00  0.6250476E-12
 0.1913000E+00  0.4879430E-12
 0.1924000E+00  0.1392903E-12
 0.1935000E+00 -0.3714695E-12
 0.1946000E+00 -0.9236930E-12
 0.1957000E+00 -0.1348965E-11
 0.1968000E+00 -0.1476058E-11
 0.1979000E+00 -0.1185288E-11
 0.1990000E+00 -0.4558466E-12
 0.2001000E+00  0.6090179E-12
 0.2012000E+00  0.1787839E-11
 0.2023000E+00  0.2778303E-11
 0.2034000E+00  0.3259289E-11
 0.2045000E+00  0.2966372E-11
 0.2056000E+00  0.1768231E-11
 0.2067000E+00 -0.2689522E-12
 0.2078000E+00 -0.2843151E-11
 0.2089000E+00 -0.5420271E-11
 0.2100000E+00 -0.7296374E-11
 0.2111000E+00 -0.7728486E-11
 0.2122000E+00 -0.6127977E-11
 0.2133000E+00 -0.2285064E-11
 0.2144000E+00  0.3434842E-11
 0.2155000E+00  0.9999950E-11
 0.2166000E+00  0.1579766E-10
 0.2177000E+00  0.1893226E-10
 0.2188000E+00  0.1770672E-10
 0.2199000E+00  0.1118710E-10
 0.2210000E+00 -0.3094434E-12
 0.2221000E+00 -0.1497794E-10
 0.2232000E+00 -0.2967247E-10
 0.2243000E+00 -0.4047378E-10
 0.2254000E+00 -0.4359010E-10
 0.2265000E+00 -0.3638959E-10
 0.2276000E+00 -0.1829785E-10
 0.2287000E+00  0.8695977E-11
 0.2298000E+00  0.4009573E-10
 0.2309000E+00  0.6955242E-10
 0.2320000E+00  0.9000627E-10
 0.2331000E+00  0.9509390E-10
 0.2342000E+00  0.8054685E-10
 0.2353000E+00  0.4532073E-10
 0.2364000E+00 -0.7744347E-11
 0.2375000E+00 -0.7185113E-10
 0.2386000E+00 -0.1368052E-09
 0.2397000E+00 -0.1901920E-09
 0.2408000E+00 -0.2191027E-09
 0.2419000E+00 -0.2122759E-09
 0.2430000E+00 -0.1624312E-09
 0.2441000E+00 -0.6846610E-10
 0.2452000E+00  0.6291161E-10
 0.2463000E+00  0.2165763E-09
 0.2474000E+00  0.3697912E-09
 0.2485000E+00  0.4946210E-09
 0.2496000E+00  0.5618304E-09
 0.2507000E+00  0.5457994E-09
 0.2518000E+00  0.4296800E-09
 0.2529000E+00  0.2098580E-09
 0.2540000E+00 -0.1011724E-09
 0.2551000E+00 -0.4741606E-09
 0.2562000E+00 -0.8649167E-09
 0.2573000E+00 -0.1218388E-08
 0.2584000E+00 -0.1474437E-08
 0.2595000E+00 -0.1574578E-08
 0.2606000E+00 -0.1469000E-08
 0.2617000E+00 -0.1123390E-08
 0.2628000E+00 -0.5253527E-09
 0.2639000E+00  0.3096150E-09
 0.2650000E+00  0.1332736E-08
 0.2661000E+00  0.2457665E-08
 0.2672000E+00  0.3558418E-08
 0.2683000E+00  0.4471226E-08
 0.2694000E+00  0.5002397E-08
 0.2705000E+00  0.4943966E-08
 0.2716000E+00  0.4098009E-08
 0.2727000E+00  0.2308765E-08
 0.2738000E+00 -0.5002590E-09
 0.2749000E+00 -0.4288971E-08
 0.2760000E+00 -0.8868994E-08
 0.2771000E+00 -0.1388326E-07
 0.2782000E+00 -0.1880092E-07
 0.2793000E+00 -0.2292850E-07
 0.2804000E+00 -0.2543487E-07
 0.2815000E+00 -0.2538382E-07
 0.2826000E+00 -0.2176610E-07
 0.2837000E+00 -0.1352195E-07
 0.2848000E+00  0.4537014E-09
 0.2859000E+00  0.2132867E-07
 0.2870000E+00  0.5037630E-07
 0.2881000E+00  0.8904372E-07
 0.2892000E+00  0.1390449E-06
 0.2903000E+00  0.2024780E-06
 0.2914000E+00  0.2819666E-06
 0.2925000E+00  0.3808273E-06
 0.2936000E+00  0.5032639E-06
 0.2947000E+00  0.6545898E-06
 0.2958000E+00  0.8414768E-06
 0.2969000E+00  0.1072231E-05
 0.2980000E+00  0.1357089E-05
 0.2991000E+00  0.1708547E-05
 0.3002000E+00  0.2141711E-05
 0.3013000E+00  0.2674700E-05
 0.3024000E+00  0.3329106E-05
 0.3035000E+00  0.4130548E-05
 0.3046000E+00  0.5109320E-05
 0.3057000E+00  0.6301164E-05
 0.3068000E+00  0.7748177E-05
 0.3079000E+00  0.9499834E-05
 0.3090000E+00  0.1161413E-04
 0.3101000E+00  0.1415884E-04
 0.3112000E+00  0.1721282E-04
 0.3123000E+00  0.2086745E-04
 0.3134000E+00  0.2522813E-04
 0.3145000E+00  0.3041589E-04
 0.3156000E+00  0.3656913E-04
 0.3167000E+00  0.4384544E-04
 0.3178000E+00  0.5242358E-04
 0.3189000E+00  0.6250549E-04
 0.3200000E+00  0.7431849E-04
 0.3211000E+00  0.8811733E-04
 0.3222000E+00  0.1041863E-03
 0.3233000E+00  0.1228412E-03
 0.3244000E+00  0.1444312E-03
 0.3255000E+00  0.1693401E-03
 0.3266000E+00  0.1979880E-03
 0.3277000E+00  0.2308315E-03
 0.3288000E+00  0.2683649E-03
 0.3299000E+00  0.3111191E-03
 0.3310000E+00  0.3596611E-03
 0.3321000E+00  0.4145923E-03
 0.3332000E+00  0.4765456E-03
 0.3343000E+00  0.5461818E-03
 0.3354000E+00  0.6241848E-03
 0.3365000E+00  0.7112554E-03
 0.3376000E+00  0.8081042E-03
 0.3387000E+00  0.9154428E-03
 0.3398000E+00  0.1033974E-02
 0.3409000E+00  0.1164380E-02
 0.3420000E+00  0.1307309E-02
 0.3431000E+00  0.1463361E-02
 0.3442000E+00  0.1633071E-02
 0.3453000E+00  0.1816891E-02
 0.3464000E+00  0.2015173E-02
 0.3475000E+00  0.2228143E-02
 0.3486000E+00  0.2455888E-02
 0.3497000E+00  0.2698329E-02
 0.3508000E+00  0.2955200E-02
 0.3519000E+00  0.3226029E-02
 0.3530000E+00  0.3510117E-02
 0.3541000E+00  0.3806516E-02
 0.3552000E+00  0.4114016E-02
 0.3563000E+00  0.4431126E-02
 0.3574000E+00  0.4756062E-02
 0.3585000E+00  0.5086741E-02
 0.3596000E+00  0.5420770E-02
 0.3607000E+00  0.5755452E-02
 0.3618000E+00  0.6087780E-02
 0.3629000E+00  0.6414455E-02
 0.3640000E+00  0.6731900E-02
 0.3651000E+00  0.7036280E-02
 0.3662000E+00  0.7323531E-02
 0.3673000E+00  0.7589393E-02
 0.3684000E+00  0.7829456E-02
 0.3695000E+00  0.8039199E-02
 0.3706000E+00  0.8214052E-02
 0.3717000E+00  0.8349451E-02
 0.3728000E+00  0.8440903E-02
 0.3739000E+00  0.8484056E-02
 0.3750000E+00  0.8474770E-02
 0.3761000E+00  0.8409184E-02
 0.3772000E+00  0.8283800E-02
 0.3783000E+00  0.8095546E-02
 0.3794000E+00  0.7841850E-02
 0.3805000E+00  0.7520711E-02
 0.3816000E+00  0.7130762E-02
 0.3827000E+00  0.6671323E-02
 0.3838000E+00  0.6142450E-02
 0.3849000E+00  0.5544974E-02
 0.3860000E+00  0.4880537E-02
 0.3871000E+00  0.4151599E-02
 0.3882000E+00  0.3361453E-02
 0.3893000E+00  0.2514219E-02
 0.3904000E+00  0.1614815E-02
 0.3915000E+00  0.6689270E-03
 0.3926000E+00 -0.3170374E-03
 0.3937000E+00 -0.1336014E-02
 0.3948000E+00 -0.2380354E-02
 0.3959000E+00 -0.3441906E-02
 0.3970000E+00 -0.4512111E-02
 0.3981000E+00 -0.5582112E-02
 0.3992000E+00 -0.6642858E-02
 0.4003000E+00 -0.7685226E-02
 0.4014000E+00 -0.8700137E-02
 0.4025000E+00 -0.9678680E-02
 0.4036000E+00 -0.1061223E-01
 0.4047000E+00 -0.1149255E-01
 0.4058000E+00 -0.1231195E-01
 0.4069000E+00 -0.1306332E-01
 0.4080000E+00 -0.1374029E-01
 0.4091000E+00 -0.1433727E-01
 0.4102000E+00 -0.1484954E-01
 0.4113000E+00 -0.1527330E-01
 0.4124000E+00 -0.1560574E-01
 0.4135000E+00 -0.1584502E-01
 0.4146000E+00 -0.1599032E-01
 0.4157000E+00 -0.1604182E-01
 0.4168000E+00 -0.1600070E-01
 0.4179000E+00 -0.1586909E-01
 0.4190000E+00 -0.1565002E-01
 0.4201000E+00 -0.1534737E-01
 0.4212000E+00 -0.1496580E-01
 0.4223000E+00 -0.1451064E-01
 0.4234000E+00 -0.1398786E-01
 0.4245000E+00 -0.1340392E-01
 0.4256000E+00 -0.1276569E-01
 0.4267000E+00 -0.1208037E-01
 0.4278000E+00 -0.1135532E-01
 0.4289000E+00 -0.1059804E-01
 0.4300000E+00 -0.9816023E-02
 0.4311000E+00 -0.9016655E-02
 0.4322000E+00 -0.8207155E-02
 0.4333000E+00 -0.7394476E-02
 0.4344000E+00 -0.6585228E-02
 0.4355000E+00 -0.5785617E-02
 0.4366000E+00 -0.5001391E-02
 0.4377000E+00 -0.4237797E-02
 0.4388000E+00 -0.3499545E-02
 0.4399000E+00 -0.2790784E-02
 0.4410000E+00 -0.2115086E-02
 0.4421000E+00 -0.1475440E-02
 0.4432000E+00 -0.8742567E-03
 0.4443000E+00 -0.3133777E-03
 0.4454000E+00  0.2058996E-03
 0.4465000E+00  0.6827976E-03
 0.4476000E+00  0.1117027E-02
 0.4487000E+00  0.1508750E-02
 0.4498000E+00  0.1858544E-02
 0.4509000E+00  0.2167360E-02
 0.4520000E+00  0.2436473E-02
 0.4531000E+00  0.2667439E-02
 0.4542000E+00  0.2862050E-02
 0.4553000E+00  0.3022285E-02
 0.4564000E+00  0.3150270E-02
 0.4575000E+00  0.3248241E-02
 0.4586000E+00  0.3318502E-02
 0.4597000E+00  0.3363393E-02
 0.4608000E+00  0.3385257E-02
 0.4619000E+00  0.3386410E-02
 0.4630000E+00  0.3369115E-02
 0.4641000E+00  0.3335560E-02
 0.4652000E+00  0.3287846E-02
 0.4663000E+00  0.3227964E-02
 0.4674000E+00  0.3157791E-02
 0.4685000E+00  0.3079079E-02
 0.4696000E+00  0.2993449E-02
 0.4707000E+00  0.2902386E-02
 0.4718000E+00  0.2807243E-02
 0.4729000E+00  0.2709234E-02
 0.4740000E+00  0.2609447E-02
 0.4751000E+00  0.2508844E-02
 0.4762000E+00  0.2408269E-02
 0.4773000E+00  0.2308454E-02
 0.4784000E+00  0.2210028E-02
 0.4795000E+00  0.2113521E-02
 0.4806000E+00  0.2019373E-02
 0.4817000E+00  0.1927940E-02
 0.4828000E+00  0.1839503E-02
 0.4839000E+00  0.1754277E-02
 0.4850000E+00  0.1672420E-02
 0.4861000E+00  0.1594038E-02
 0.4872000E+00  0.1519189E-02
 0.4883000E+00  0.1447894E-02
 0.4894000E+00  0.1380132E-02
 0.4905000E+00  0.1315854E-02
 0.4916000E+00  0.1254988E-02
 0.4927000E+00  0.1197440E-02
 0.4938000E+00  0.1143105E-02
 0.4949000E+00  0.1091865E-02
 0.4960000E+00  0.1043593E-02
 0.4971000E+00  0.9981502E-03
 0.4982000E+00  0.9553916E-03
 0.4993000E+00  0.9151686E-03
 0.5004000E+00  0.8773337E-03
 0.5015000E+00  0.8417448E-03
 0.5026000E+00  0.8082656E-03
 0.5037000E+00  0.7767657E-03
 0.5048000E+00  0.7471178E-03
 0.5059000E+00  0.7191970E-03
 0.5070000E+00  0.6928815E-03
 0.5081000E+00  0.6680551E-03
 0.5092000E+00  0.6446104E-03
 0.5103000E+00  0.6224496E-03
 0.5114000E+00  0.6014839E-03
 0.5125000E+00  0.5816313E-03
 0.5136000E+00  0.5628143E-03
 0.5147000E+00  0.5449580E-03
 0.5158000E+00  0.5279918E-03
 0.5169000E+00  0.5118494E-03
 0.5180000E+00  0.4964701E-03
 0.5191000E+00  0.4817981E-03
 0.5202000E+00  0.4677811E-03
 0.5213000E+00  0.4543686E-03
 0.5224000E+00  0.4415113E-03
 0.5235000E+00  0.4291615E-03
 0.5246000E+00  0.4172739E-03
 0.5257000E+00  0.4058072E-03
 0.5268000E+00  0.3947239E-03
 0.5279000E+00  0.3839903E-03
 0.5290000E+00  0.3735755E-03
 0.5301000E+00  0.3634518E-03
 0.5312000E+00  0.3535942E-03
 0.5323000E+00  0.3439815E-03
 0.5334000E+00  0.3345962E-03
 0.5345000E+00  0.3254248E-03
 0.5356000E+00  0.3164579E-03
 0.5367000E+00  0.3076901E-03
 0.5378000E+00  0.2991197E-03
 0.5389000E+00  0.2907491E-03
 0.5400000E+00  0.2825836E-03
 0.5411000E+00  0.2746306E-03
 0.5422000E+00  0.2668987E-03
 0.5433000E+00  0.2593969E-03
 0.5444000E+00  0.2521339E-03
 0.5455000E+00  0.2451187E-03
 0.5466000E+00  0.2383601E-03
 0.5477000E+00  0.2318653E-03
 0.5488000E+00  0.2256386E-03
 0.5499000E+00  0.2196801E-03
 0.5510000E+00  0.2139842E-03
 0.5521000E+00  0.2085400E-03
 0.5532000E+00  0.2033323E-03
 0.5543000E+00  0.1983414E-03
 0.5554000E+00  0.1935431E-03
 0.5565000E+00  0.1889072E-03
 0.5576000E+00  0.1843951E-03
 0.5587000E+00  0.1799588E-03
 0.5598000E+00  0.1755406E-03
 0.5609000E+00  0.1710743E-03
 0.5620000E+00  0.1664864E-03
 0.5631000E+00  0.1616965E-03
 0.5642000E+00  0.1566166E-03
 0.5653000E+00  0.1511498E-03
 0.5664000E+00  0.1451886E-03
 0.5675000E+00  0.1386142E-03
 0.5686000E+00  0.1312957E-03
 0.5697000E+00  0.1230903E-03
 0.5708000E+00  0.1138424E-03
 0.5719000E+00  0.1033825E-03
 0.5730000E+00  0.9152552E-04
 0.5741000E+00  0.7806941E-04
 0.5752000E+00  0.6279488E-04
 0.5763000E+00  0.4546557E-04
 0.5774000E+00  0.2582851E-04
 0.5785000E+00  0.3614209E-05
 0.5796000E+00 -0.2146372E-04
 0.5807000E+00 -0.4970899E-04
 0.5818000E+00 -0.8144246E-04
 0.5829000E+00 -0.1170010E-03
 0.5840000E+00 -0.1567350E-03
 0.5851000E+00 -0.2010059E-03
 0.5862000E+00 -0.2501821E-03
 0.5873000E+00 -0.3046355E-03
 0.5884000E+00 -0.3647367E-03
 0.5895000E+00 -0.4308490E-03
 0.5906000E+00 -0.5033209E-03
 0.5917000E+00 -0.5824775E-03
 0.5928000E+00 -0.6686113E-03
 0.5939000E+00 -0.7619720E-03
 0.5950000E+00 -0.8627577E-03
 0.5961000E+00 -0.9711038E-03
 0.5972000E+00 -0.1087072E-02
 0.5983000E+00 -0.1210640E-02
 0.5994000E+00 -0.1341684E-02
 0.6005000E+00 -0.1479974E-02
 0.6016000E+00 -0.1625153E-02
 0.6027000E+00 -0.1776730E-02
 0.6038000E+00 -0.1934067E-02
 0.6049000E+00 -0.2096368E-02
 0.6060000E+00 -0.2262663E-02
 0.6071000E+00 -0.2431804E-02
 0.6082000E+00 -0.2602450E-02
 0.6093000E+00 -0.2773065E-02
 0.6104000E+00 -0.2941908E-02
 0.6115000E+00 -0.3107033E-02
 0.6126000E+00 -0.3266287E-02
 0.6137000E+00 -0.3417304E-02
 0.6148000E+00 -0.3557515E-02
 0.6159000E+00 -0.3684140E-02
 0.6170000E+00 -0.3794204E-02
 0.6181000E+00 -0.3884537E-02
 0.6192000E+00 -0.3951792E-02
 0.6203000E+00 -0.3992453E-02
 0.6214000E+00 -0.4002849E-02
 0.6225000E+00 -0.3979172E-02
 0.6236000E+00 -0.3917492E-02
 0.6247000E+00 -0.3813778E-02
 0.6258000E+00 -0.3663918E-02
 0.6269000E+00 -0.3463739E-02
 0.6280000E+00 -0.3209035E-02
 0.6291000E+00 -0.2895589E-02
 0.6302000E+00 -0.2519198E-02
 0.6313000E+00 -0.2075705E-02
 0.6324000E+00 -0.1561026E-02
 0.6335000E+00 -0.9711828E-03
 0.6346000E+00 -0.3023362E-03
 0.6357000E+00  0.4491807E-03
 0.6368000E+00  0.1286823E-02
 0.6379000E+00  0.2213791E-02
 0.6390000E+00  0.3232984E-02
 0.6401000E+00  0.4346948E-02
 0.6412000E+00  0.5557818E-02
 0.6423000E+00  0.6867257E-02
 0.6434000E+00  0.8276388E-02
 0.6445000E+00  0.9785722E-02
 0.6456000E+00  0.1139508E-01
 0.6467000E+00  0.1310352E-01
 0.6478000E+00  0.1490923E-01
 0.6489000E+00  0.1680944E-01
 0.6500000E+00  0.1880033E-01
 0.6511000E+00  0.2087695E-01
 0.6522000E+00  0.2303310E-01
 0.6533000E+00  0.2526125E-01
 0.6544000E+00  0.2755248E-01
 0.6555000E+00  0.2989642E-01
 0.6566000E+00  0.3228113E-01
 0.6577000E+00  0.3469315E-01
 0.6588000E+00  0.3711740E-01
 0.6599000E+00  0.3953721E-01
 0.6610000E+00  0.4193440E-01
 0.6621000E+00  0.4428926E-01
 0.6632000E+00  0.4658069E-01
 0.6643000E+00  0.4878634E-01
 0.6654000E+00  0.5088273E-01
 0.6665000E+00  0.5284548E-01
 0.6676000E+00  0.5464954E-01
 0.6687000E+00  0.5626942E-01
 0.6698000E+00  0.5767955E-01
 0.6709000E+00  0.5885457E-01
 0.6720000E+00  0.5976968E-01
 0.6731000E+00  0.6040102E-01
 0.6742000E+00  0.6072608E-01
 0.6753000E+00  0.6072406E-01
 0.6764000E+00  0.6037627E-01
 0.6775000E+00  0.5966652E-01
 0.6786000E+00  0.5858148E-01
 0.6797000E+00  0.5711104E-01
 0.6808000E+00  0.5524863E-01
 0.6819000E+00  0.5299145E-01
 0.6830000E+00  0.5034075E-01
 0.6841000E+00  0.4730196E-01
 0.6852000E+00  0.4388484E-01
 0.6863000E+00  0.4010350E-01
 0.6874000E+00  0.3597639E-01
 0.6885000E+00  0.3152625E-01
 0.6896000E+00  0.2677989E-01
 0.6907000E+00  0.2176801E-01
 0.6918000E+00  0.1652486E-01
 0.6929000E+00  0.1108795E-01
 0.6940000E+00  0.5497574E-02
 0.6951000E+00 -0.2036146E-03
 0.6962000E+00 -0.5971132E-02
 0.6973000E+00 -0.1175921E-01
 0.6984000E+00 -0.1752137E-01
 0.6995000E+00 -0.2321103E-01
 0.7006000E+00 -0.2878208E-01
 0.7017000E+00 -0.3418946E-01
 0.7028000E+00 -0.3938978E-01
 0.7039000E+00 -0.4434183E-01
 0.7050000E+00 -0.4900712E-01
 0.7061000E+00 -0.5335033E-01
 0.7072000E+00 -0.5733979E-01
 0.7083000E+00 -0.6094781E-01
 0.7094000E+00 -0.6415094E-01
 0.7105000E+00 -0.6693027E-01
 0.7116000E+00 -0.6927159E-01
 0.7127000E+00 -0.7116542E-01
 0.7138000E+00 -0.7260706E-01
 0.7149000E+00 -0.7359654E-01
 0.7160000E+00 -0.7413847E-01
 0.7171000E+00 -0.7424192E-01
 0.7182000E+00 -0.7392011E-01
 0.7193000E+00 -0.7319016E-01
 0.7204000E+00 -0.7207268E-01
 0.7215000E+00 -0.7059146E-01
 0.7226000E+00 -0.6877296E-01
 0.7237000E+00 -0.6664593E-01
 0.7248000E+00 -0.6424095E-01
 0.7259000E+00 -0.6159001E-01
 0.7270000E+00 -0.5872595E-01
 0.7281000E+00 -0.5568212E-01
 0.7292000E+00 -0.5249186E-01
 0.7303000E+00 -0.4918814E-01
 0.7314000E+00 -0.4580314E-01
 0.7325000E+00 -0.4236788E-01
 0.7336000E+00 -0.3891198E-01
 0.7347000E+00 -0.3546333E-01
 0.7358000E+00 -0.3204791E-01
 0.7369000E+00 -0.2868952E-01
 0.7380000E+00 -0.2540969E-01
 0.7391000E+00 -0.2222754E-01
 0.7402000E+00 -0.1915973E-01
 0.7413000E+00 -0.1622044E-01
 0.7424000E+00 -0.1342138E-01
 0.7435000E+00 -0.1077187E-01
 0.7446000E+00 -0.8278893E-02
 0.7457000E+00 -0.5947182E-02
 0.7468000E+00 -0.3779380E-02
 0.7479000E+00 -0.1776164E-02
 0.7490000E+00  0.6357722E-04
 0.7501000E+00  0.1742559E-02
 0.7512000E+00  0.3264912E-02
 0.7523000E+00  0.4635988E-02
 0.7534000E+00  0.5862175E-02
 0.7545000E+00  0.6950707E-02
 0.7556000E+00  0.7909484E-02
 0.7567000E+00  0.8746888E-02
 0.7578000E+00  0.9471606E-02
 0.7589000E+00  0.1009247E-01
 0.7600000E+00  0.1061831E-01
 0.7611000E+00  0.1105783E-01
 0.7622000E+00  0.1141946E-01
 0.7633000E+00  0.1171129E-01
 0.7644000E+00  0.1194099E-01
 0.7655000E+00  0.1211566E-01
 0.7666000E+00  0.1224185E-01
 0.7677000E+00  0.1232548E-01
 0.7688000E+00  0.1237180E-01
 0.7699000E+00  0.1238540E-01
 0.7710000E+00  0.1237020E-01
 0.7721000E+00  0.1232948E-01
 0.7732000E+00  0.1226583E-01
 0.7743000E+00  0.1218128E-01
 0.7754000E+00  0.1207724E-01
 0.7765000E+00  0.1195461E-01
 0.7776000E+00  0.1181384E-01
 0.7787000E+00  0.1165496E-01
 0.7798000E+00  0.1147765E-01
 0.7809000E+00  0.1128135E-01
 0.7820000E+00  0.1106526E-01
 0.7831000E+00  0.1082843E-01
 0.7842000E+00  0.1056984E-01
 0.7853000E+00  0.1028850E-01
 0.7864000E+00  0.9983429E-02
 0.7875000E+00  0.9653813E-02
 0.7886000E+00  0.9299002E-02
 0.7897000E+00  0.8918566E-02
 0.7908000E+00  0.8512340E-02
 0.7919000E+00  0.8080456E-02
 0.7930000E+00  0.7623376E-02
 0.7941000E+00  0.7141907E-02
 0.7952000E+00  0.6637219E-02
 0.7963000E+00  0.6110851E-02
 0.7974000E+00  0.5564700E-02
 0.7985000E+00  0.5001007E-02
 0.7996000E+00  0.4422334E-02
 0.8007000E+00  0.3831531E-02
 0.8018000E+00  0.3231709E-02
 0.8029000E+00  0.2626192E-02
 0.8040000E+00  0.2018484E-02
 0.8051000E+00  0.1412217E-02
 0.8062000E+00  0.8111033E-03
 0.8073000E+00  0.2188822E-03
 0.8084000E+00 -0.3607376E-03
 0.8095000E+00 -0.9241356E-03
 0.8106000E+00 -0.1467834E-02
 0.8117000E+00 -0.1988546E-02
 0.8128000E+00 -0.2483221E-02
 0.8139000E+00 -0.2949074E-02
 0.8150000E+00 -0.3383625E-02
 0.8161000E+00 -0.3784724E-02
 0.8172000E+00 -0.4150588E-02
 0.8183000E+00 -0.4479818E-02
 0.8194000E+00 -0.4771419E-02
 0.8205000E+00 -0.5024803E-02
 0.8216000E+00 -0.5239779E-02
 0.8227000E+00 -0.5416537E-02
 0.8238000E+00 -0.5555631E-02
 0.8249000E+00 -0.5657955E-02
 0.8260000E+00 -0.5724723E-02
 0.8271000E+00 -0.5757450E-02
 0.8282000E+00 -0.5757912E-02
 0.8293000E+00 -0.5728109E-02
 0.8304000E+00 -0.5670222E-02
 0.8315000E+00 -0.5586561E-02
 0.8326000E+00 -0.5479521E-02
 0.8337000E+00 -0.5351544E-02
 0.8348000E+00 -0.5205080E-02
 0.8359000E+00 -0.5042553E-02
 0.8370000E+00 -0.4866324E-02
 0.8381000E+00 -0.4678656E-02
 0.8392000E+00 -0.4481681E-02
 0.8403000E+00 -0.4277370E-02
 0.8414000E+00 -0.4067512E-02
 0.8425000E+00 -0.3853694E-02
 0.8436000E+00 -0.3637295E-02
 0.8447000E+00 -0.3419481E-02
 0.8458000E+00 -0.3201209E-02
 0.8469000E+00 -0.2983225E-02
 0.8480000E+00 -0.2766080E-02
 0.8491000E+00 -0.2550134E-02
 0.8502000E+00 -0.2335571E-02
 0.8513000E+00 -0.2122418E-02
 0.8524000E+00 -0.1910561E-02
 0.8535000E+00 -0.1699774E-02
 0.8546000E+00 -0.1489749E-02
 0.8557000E+00 -0.1280122E-02
 0.8568000E+00 -0.1070510E-02
 0.8579000E+00 -0.8605300E-03
 0.8590000E+00 -0.6498257E-03
 0.8601000E+00 -0.4380845E-03
 0.8612000E+00 -0.2250568E-03
 0.8623000E+00 -0.1057684E-04
 0.8634000E+00  0.2054166E-03
 0.8645000E+00  0.4228609E-03
 0.8656000E+00  0.6415579E-03
 0.8667000E+00  0.8611687E-03
 0.8678000E+00  0.1081217E-02
 0.8689000E+00  0.1301095E-02
 0.8700000E+00  0.1520075E-02
 0.8711000E+00  0.1737312E-02
 0.8722000E+00  0.1951853E-02
 0.8733000E+00  0.2162647E-02
 0.8744000E+00  0.2368557E-02
 0.8755000E+00  0.2568389E-02
 0.8766000E+00  0.2760909E-02
 0.8777000E+00  0.2944878E-02
 0.8788000E+00  0.3119077E-02
 0.8799000E+00  0.3282327E-02
 0.8810000E+00  0.3433508E-02
 0.8821000E+00  0.3571576E-02
 0.8832000E+00  0.3695580E-02
 0.8843000E+00  0.3804680E-02
 0.8854000E+00  0.3898173E-02
 0.8865000E+00  0.3975505E-02
 0.8876000E+00  0.4036295E-02
 0.8887000E+00  0.4080333E-02
 0.8898000E+00  0.4107590E-02
 0.8909000E+00  0.4118212E-02
 0.8920000E+00  0.4112510E-02
 0.8931000E+00  0.4090962E-02
 0.8942000E+00  0.4054204E-02
 0.8953000E+00  0.4003029E-02
 0.8964000E+00  0.3938379E-02
 0.8975000E+00  0.3861327E-02
 0.8986000E+00  0.3773064E-02
 0.8997000E+00  0.3674870E-02
 0.9008000E+00  0.3568093E-02
 0.9019000E+00  0.3454132E-02
 0.9030000E+00  0.3334417E-02
 0.9041000E+00  0.3210397E-02
 0.9052000E+00  0.3083519E-02
 0.9063000E+00  0.2955214E-02
 0.9074000E+00  0.2826866E-02
 0.9085000E+00  0.2699794E-02
 0.9096000E+00  0.2575229E-02
 0.9107000E+00  0.2454299E-02
 0.9118000E+00  0.2338020E-02
 0.9129000E+00  0.2227294E-02
 0.9140000E+00  0.2122895E-02
 0.9151000E+00  0.2025466E-02
 0.9162000E+00  0.1935510E-02
 0.9173000E+00  0.1853378E-02
 0.9184000E+00  0.1779274E-02
 0.9195000E+00  0.1713248E-02
 0.9206000E+00  0.1655207E-02
 0.9217000E+00  0.1604924E-02
 0.9228000E+00  0.1562041E-02
 0.9239000E+00  0.1526084E-02
 0.9250000E+00  0.1496467E-02
 0.9261000E+00  0.1472503E-02
 0.9272000E+00  0.1453422E-02
 0.9283000E+00  0.1438380E-02
 0.9294000E+00  0.1426485E-02
 0.9305000E+00  0.1416811E-02
 0.9316000E+00  0.1408413E-02
 0.9327000E+00  0.1400351E-02
 0.9338000E+00  0.1391701E-02
 0.9349000E+00  0.1381572E-02
 0.9360000E+00  0.1369125E-02
 0.9371000E+00  0.1353579E-02
 0.9382000E+00  0.1334234E-02
 0.9393000E+00  0.1310477E-02
 0.9404000E+00  0.1281799E-02
 0.9415000E+00  0.1247802E-02
 0.9426000E+00  0.1208209E-02
 0.9437000E+00  0.1162865E-02
 0.9448000E+00  0.1111742E-02
 0.9459000E+00  0.1054926E-02
 0.9470000E+00  0.9926262E-03
 0.9481000E+00  0.9251580E-03
 0.9492000E+00  0.8529472E-03
 0.9503000E+00  0.7765205E-03
 0.9514000E+00  0.6964977E-03
 0.9525000E+00  0.6135797E-03
 0.9536000E+00  0.5285339E-03
 0.9547000E+00  0.4421789E-03
 0.9558000E+00  0.3553698E-03
 0.9569000E+00  0.2689852E-03
 0.9580000E+00  0.1839156E-03
 0.9591000E+00  0.1010508E-03
 0.9602000E+00  0.2126643E-04
 0.9613000E+00 -0.5459069E-04
 0.9624000E+00 -0.1257169E-03
 0.9635000E+00 -0.1913636E-03
 0.9646000E+00 -0.2508454E-03
 0.9657000E+00 -0.3035454E-03
 0.9668000E+00 -0.3489188E-03
 0.9679000E+00 -0.3864957E-03
 0.9690000E+00 -0.4158857E-03
 0.9701000E+00 -0.4367826E-03
 0.9712000E+00 -0.4489681E-03
 0.9723000E+00 -0.4523139E-03
 0.9734000E+00 -0.4467805E-03
 0.9745000E+00 -0.4324143E-03
 0.9756000E+00 -0.4093442E-03
 0.9767000E+00 -0.3777785E-03
 0.9778000E+00 -0.3380036E-03
 0.9789000E+00 -0.2903822E-03