-0.1200000E+00  0.0000000E+00
-0.1189000E+00  0.0000000E+00
-0.1178000E+00  0.0000000E+00
-0.1167000E+00  0.0000000E+00
-0.1156000E+00  0.0000000E+00
-0.1145000E+00  0.0000000E+00
-0.1134000E+00  0.0000000E+00
-0.1123000E+00  0.0000000E+00
-0.1112000E+00  0.0000000E+00
-0.1101000E+00  0.0000000E+00
-0.1090000E+00  0.0000000E+00
-0.1079000E+00  0.0000000E+00
-0.1068000E+00  0.0000000E+00
-0.1057000E+00  0.0000000E+00
-0.1046000E+00  0.0000000E+00
-0.1035000E+00  0.0000000E+00
-0.1024000E+00  0.0000000E+00
-0.1013000E+00  0.0000000E+00
-0.1002000E+00  0.0000000E+00
-0.9910000E-01  0.0000000E+00
-0.9800000E-01  0.0000000E+00
-0.9690000E-01  0.0000000E+00
-0.9580000E-01  0.0000000E+00
-0.9470000E-01  0.0000000E+00
-0.9360000E-01  0.0000000E+00
-0.9250000E-01  0.0000000E+00
-0.9140000E-01  0.0000000E+00
-0.9030000E-01  0.0000000E+00
-0.8920000E-01  0.0000000E+00
-0.8810000E-01  0.0000000E+00
-0.8700000E-01  0.0000000E+00
-0.8590000E-01  0.0000000E+00
-0.8480000E-01  0.0000000E+00
-0.8370000E-01  0.0000000E+00
-0.8260000E-01  0.0000000E+00
-0.8150000E-01  0.0000000E+00
-0.8040000E-01  0.0000000E+00
-0.7930000E-01  0.0000000E+00
-0.7820000E-01  0.0000000E+00
-0.7710000E-01  0.0000000E+00
-0.7600000E-01  0.0000000E+00
-0.7490000E-01  0.0000000E+00
-0.7380000E-01  0.0000000E+00
-0.7270000E-01  0.0000000E+00
-0.7160000E-01  0.0000000E+00
-0.7050000E-01  0.0000000E+00
-0.6940000E-01  0.0000000E+00
-0.6830000E-01  0.0000000E+00
-0.6720000E-01  0.0000000E+00
-0.6610000E-01  0.0000000E+00
-0.6500000E-01  0.0000000E+00
-0.6390000E-01  0.0000000E+00
-0.6280000E-01  0.0000000E+00
-0.6170000E-01  0.0000000E+00
-0.6060000E-01  0.0000000E+00
-0.5950000E-01  0.0000000E+00
-0.5840000E-01  0.0000000E+00
-0.5730000E-01  0.0000000E+00
-0.5620000E-01  0.0000000E+00
-0.5510000E-01  0.0000000E+00
-0.5400000E-01  0.0000000E+00
-0.5290000E-01  0.0000000E+00
-0.5180000E-01  0.0000000E+00
-0.5070000E-01  0.0000000E+00
-0.4960000E-01  0.0000000E+00
-0.4850000E-01  0.0000000E+00
-0.4740000E-01  0.0000000E+00
-0.4630000E-01  0.0000000E+00
-0.4520000E-01  0.0000000E+00
-0.4410000E-01  0.0000000E+00
-0.4300000E-01  0.0000000E+00
-0.4190000E-01  0.0000000E+00
-0.4080000E-01  0.0000000E+00
-0.3970000E-01  0.0000000E+00
-0.3860000E-01  0.0000000E+00
-0.3750000E-01  0.0000000E+00
-0.3640000E-01  0.0000000E+00
-0.3530000E-01  0.0000000E+00
-0.3420000E-01  0.0000000E+00
-0.3310000E-01  0.0000000E+00
-0.3200000E-01  0.0000000E+00
-0.3090000E-01  0.0000000E+00
-0.2980000E-01  0.0000000E+00
-0.2870000E-01  0.0000000E+00
-0.2760000E-01  0.0000000E+00
-0.2650000E-01  0.0000000E+00
-0.2540000E-01  0.0000000E+00
-0.2430000E-01  0.0000000E+00
-0.2320000E-01  0.0000000E+00
-0.2210000E-01  0.0000000E+00
-0.2100000E-01  0.0000000E+00
-0.1990000E-01  0.0000000E+00
-0.1880000E-01  0.0000000E+00
-0.1770000E-01  0.0000000E+00
-0.1660000E-01  0.0000000E+00
-0.1550000E-01  0.0000000E+00
-0.1440000E-01  0.0000000E+00
-0.1330000E-01  0.0000000E+00
-0.1220000E-01  0.0000000E+00
-0.1110000E-01  0.0000000E+00
-0.1000000E-01  0.0000000E+00
-0.8900000E-02  0.0000000E+00
-0.7800000E-02  0.0000000E+00
-0.6700000E-02  0.0000000E+00
-0.5600000E-02  0.0000000E+00
-0.4500000E-02  0.0000000E+00
-0.3400000E-02  0.0000000E+00
-0.2300000E-02  0.0000000E+00
-0.1200000E-02  0.0000000E+00
-0.1000000E-03  0.0000000E+00
 0.1000000E-02  0.0000000E+00
 0.2100000E-02  0.0000000E+00
 0.3200000E-02  0.0000000E+00
 0.4300000E-02  0.0000000E+00
 0.5400000E-02  0.0000000E+00
 0.6500000E-02  0.0000000E+00
 0.7600000E-02  0.0000000E+00
 0.8700000E-02  0.0000000E+00
 0.9800000E-02  0.0000000E+00
 0.1090000E-01  0.0000000E+00
 0.1200000E-01  0.0000000E+00
 0.1310000E-01  0.0000000E+00
 0.1420000E-01  0.0000000E+00
 0.1530000E-01  0.0000000E+00
 0.1640000E-01  0.0000000E+00
 0.1750000E-01  0.0000000E+00
 0.1860000E-01  0.0000000E+00
 0.1970000E-01  0.0000000E+00
 0.2080000E-01  0.0000000E+00
 0.2190000E-01  0.0000000E+00
 0.2300000E-01  0.0000000E+00
 0.2410000E-01  0.0000000E+00
 0.2520000E-01  0.0000000E+00
 0.2630000E-01  0.0000000E+00
 0.2740000E-01  0.0000000E+00
 0.2850000E-01  0.0000000E+00
 0.2960000E-01  0.0000000E+00
 0.3070000E-01  0.0000000E+00
 0.3180000E-01  0.0000000E+00
 0.3290000E-01  0.0000000E+00
 0.3400000E-01  0.0000000E+00
 0.3510000E-01  0.0000000E+00
 0.3620000E-01  0.0000000E+00
 0.3730000E-01  0.0000000E+00
 0.3840000E-01  0.0000000E+00
 0.3950000E-01  0.0000000E+00
 0.4060000E-01  0.0000000E+00
 0.4170000E-01  0.0000000E+00
 0.4280000E-01  0.0000000E+00
 0.4390000E-01  0.0000000E+00
 0.4500000E-01  0.0000000E+00
 0.4610000E-01  0.0000000E+00
 0.4720000E-01  0.0000000E+00
 0.4830000E-01  0.0000000E+00
 0.4940000E-01  0.0000000E+00
 0.5050000E-01  0.0000000E+00
 0.5160000E-01  0.0000000E+00
 0.5270000E-01  0.0000000E+00
 0.5380000E-01  0.0000000E+00
 0.5490000E-01  0.0000000E+00
 0.5600000E-01  0.0000000E+00
 0.5710000E-01  0.0000000E+00
 0.5820000E-01  0.0000000E+00
 0.5930000E-01  0.0000000E+00
 0.6040000E-01  0.0000000E+00
 0.6150000E-01  0.0000000E+00
 0.6260000E-01  0.0000000E+00
 0.6370000E-01  0.0000000E+00
 0.6480000E-01  0.0000000E+00
 0.6590000E-01  0.0000000E+00
 0.6700000E-01  0.0000000E+00
 0.6810000E-01  0.0000000E+00
 0.6920000E-01  0.0000000E+00
 0.7030000E-01  0.0000000E+00
 0.7140000E-01  0.0000000E+00
 0.7250000E-01  0.0000000E+00
 0.7360000E-01  0.0000000E+00
 0.7470000E-01  0.0000000E+00
 0.7580000E-01  0.0000000E+00
 0.7690000E-01  0.0000000E+00
 0.7800000E-01  0.0000000E+00
 0.7910000E-01  0.0000000E+00
 0.8020000E-01  0.0000000E+00
 0.8130000E-01  0.0000000E+00
 0.8240000E-01  0.0000000E+00
 0.8350000E-01  0.0000000E+00
 0.8460000E-01  0.0000000E+00
 0.8570000E-01  0.0000000E+00
 0.8680000E-01  0.0000000E+00
 0.8790000E-01  0.0000000E+00
 0.8900000E-01  0.0000000E+00
 0.9010000E-01  0.0000000E+00
 0.9120000E-01  0.0000000E+00
 0.9230000E-01  0.0000000E+00
 0.9340000E-01  0.0000000E+00
 0.9450000E-01  0.0000000E+00
 0.9560000E-01  0.0000000E+00
 0.9670000E-01  0.0000000E+00
 0.9780000E-01  0.0000000E+00
 0.9890000E-01  0.0000000E+00
 0.1000000E+00  0.0000000E+00
 0.1011000E+00  0.0000000E+00
 0.1022000E+00  0.0000000E+00
 0.1033000E+00  0.0000000E+00
 0.1044000E+00  0.0000000E+00
 0.1055000E+00  0.0000000E+00
 0.1066000E+00  0.0000000E+00
 0.1077000E+00  0.0000000E+00
 0.1088000E+00  0.0000000E+00
 0.1099000E+00  0.0000000E+00
 0.1110000E+00  0.0000000E+00
 0.1121000E+00  0.0000000E+00
 0.1132000E+00  0.0000000E+00
 0.1143000E+00  0.0000000E+00
 0.1154000E+00  0.0000000E+00
 0.1165000E+00  0.0000000E+00
 0.1176000E+00  0.0000000E+00
 0.1187000E+00  0.0000000E+00
 0.1198000E+00  0.0000000E+00
 0.1209000E+00  0.0000000E+00
 0.1220000E+00  0.0000000E+00
 0.1231000E+00  0.0000000E+00
 0.1242000E+00  0.0000000E+00
 0.1253000E+00  0.0000000E+00
 0.1264000E+00  0.0000000E+00
 0.1275000E+00  0.0000000E+00
 0.1286000E+00  0.0000000E+00
 0.1297000E+00  0.0000000E+00
 0.1308000E+00  0.0000000E+00
 0.1319000E+00  0.0000000E+00
 0.1330000E+00  0.0000000E+00
 0.1341000E+00  0.0000000E+00
 0.1352000E+00  0.0000000E+00
 0.1363000E+00  0.0000000E+00
 0.1374000E+00  0.0000000E+00
 0.1385000E+00  0.0000000E+00
 0.1396000E+00  0.0000000E+00
 0.1407000E+00  0.0000000E+00
 0.1418000E+00  0.0000000E+00
 0.1429000E+00  0.0000000E+00
 0.1440000E+00  0.0000000E+00
 0.1451000E+00  0.0000000E+00
 0.1462000E+00  0.0000000E+00
 0.1473000E+00  0.0000000E+00
 0.1484000E+00  0.0000000E+00
 0.1495000E+00  0.0000000E+00
 0.1506000E+00  0.0000000E+00
 0.1517000E+00  0.0000000E+00
 0.1528000E+00  0.0000000E+00
 0.1539000E+00  0.0000000E+00
 0.1550000E+00  0.0000000E+00
 0.1561000E+00  0.0000000E+00
 0.1572000E+00  0.0000000E+00
 0.1583000E+00  0.0000000E+00
 0.1594000E+00  0.0000000E+00
 0.1605000E+00  0.0000000E+00
 0.1616000E+00  0.0000000E+00
 0.1627000E+00  0.0000000E+00
 0.1638000E+00  0.0000000E+00
 0.1649000E+00  0.0000000E+00
 0.1660000E+00  0.0000000E+00
 0.1671000E+00  0.0000000E+00
 0.1682000E+00  0.0000000E+00
 0.1693000E+00  0.0000000E+00
 0.1704000E+00  0.0000000E+00
 0.1715000E+00  0.0000000E+00
 0.1726000E+00  0.0000000E+00
 0.1737000E+00  0.0000000E+00
 0.1748000E+00  0.0000000E+00
 0.1759000E+00  0.0000000E+00
 0.1770000E+00  0.0000000E+00
 0.1781000E+00  0.0000000E+00
 0.1792000E+00  0.0000000E+00
 0.1803000E+00  0.0000000E+00
 0.1814000E+00  0.0000000E+00
 0.1825000E+00  0.0000000E+00
 0.1836000E+00  0.0000000E+00
 0.1847000E+00  0.0000000E+00
 0.1858000E+00  0.0000000E+00
 0.1869000E+00  0.0000000E+00
 0.1880000E+00  0.0000000E+00
 0.1891000E+00  0.0000000E+00
 0.1902000E+00  0.0000000E+00
 0.1913000E+00  0.0000000E+00
 0.1924000E+00  0.0000000E+00
 0.1935000E+00  0.0000000E+00
 0.1946000E+00  0.0000000E+00
 0.1957000E+00  0.0000000E+00
 0.1968000E+00  0.0000000E+00
 0.1979000E+00  0.0000000E+00
 0.1990000E+00  0.0000000E+00
 0.2001000E+00  0.3126139E-37
 0.2012000E+00  0.7536407E-37
 0.2023000E+00  0.7588765E-37
 0.2034000E+00 -0.0000000E+00
 0.2045000E+00 -0.1342925E-36
 0.2056000E+00 -0.2371739E-36
 0.2067000E+00 -0.1568453E-36
 0.2078000E+00  0.1236685E-36
 0.2089000E+00  0.5182944E-36
 0.2100000E+00  0.7225748E-36
 0.2111000E+00  0.4545563E-36
 0.2122000E+00 -0.3154991E-36
 0.2133000E+00 -0.1268645E-35
 0.2144000E+00 -0.1787855E-35
 0.2155000E+00 -0.1332315E-35
 0.2166000E+00  0.2082366E-36
 0.2177000E+00  0.2295641E-35
 0.2188000E+00  0.3852114E-35
 0.2199000E+00  0.3716141E-35
 0.2210000E+00  0.1284366E-35
 0.2221000E+00 -0.2950306E-35
 0.2232000E+00 -0.7274786E-35
 0.2243000E+00 -0.9234909E-35
 0.2254000E+00 -0.6676746E-35
 0.2265000E+00  0.9293488E-36
 0.2276000E+00  0.1147862E-34
 0.2287000E+00  0.2022357E-34
 0.2298000E+00  0.2126904E-34
 0.2309000E+00  0.1043183E-34
 0.2320000E+00 -0.1148264E-34
 0.2331000E+00 -0.3680163E-34
 0.2342000E+00 -0.5230468E-34
 0.2353000E+00 -0.4439239E-34
 0.2364000E+00 -0.7008551E-35
 0.2375000E+00  0.5132281E-34
 0.2386000E+00  0.1059423E-33
 0.2397000E+00  0.1233658E-33
 0.2408000E+00  0.7704622E-34
 0.2419000E+00 -0.3397868E-34
 0.2430000E+00 -0.1734358E-33
 0.2441000E+00 -0.2729991E-33
 0.2452000E+00 -0.2583884E-33
 0.2463000E+00 -0.8994021E-34
 0.2474000E+00  0.2000690E-33
 0.2485000E+00  0.4962964E-33
 0.2496000E+00  0.6325764E-33
 0.2507000E+00  0.4664645E-33
 0.2518000E+00 -0.2983865E-34
 0.2529000E+00 -0.7078513E-33
 0.2540000E+00 -0.1257345E-32
 0.2551000E+00 -0.1318649E-32
 0.2562000E+00 -0.6668075E-33
 0.2573000E+00  0.6092881E-33
 0.2584000E+00  0.2036402E-32
 0.2595000E+00  0.2876396E-32
 0.2606000E+00  0.2439948E-32
 0.2617000E+00  0.4906369E-33
 0.2628000E+00 -0.2454319E-32
 0.2639000E+00 -0.5133835E-32
 0.2650000E+00 -0.5971735E-32
 0.2661000E+00 -0.3837300E-32
 0.2672000E+00  0.1167158E-32
 0.2683000E+00  0.7321056E-32
 0.2694000E+00  0.1166024E-31
 0.2705000E+00  0.1117219E-31
 0.2716000E+00  0.4437013E-32
 0.2727000E+00 -0.7038859E-32
 0.2738000E+00 -0.1863930E-31
 0.2749000E+00 -0.2410135E-31
 0.2760000E+00 -0.1837964E-31
 0.2771000E+00 -0.8116275E-33
 0.2782000E+00  0.2305255E-31
 0.2793000E+00  0.4240338E-31
 0.2804000E+00  0.4530857E-31
 0.2815000E+00  0.2481962E-31
 0.2826000E+00 -0.1563837E-31
 0.2837000E+00 -0.6076128E-31
 0.2848000E+00 -0.8781425E-31
 0.2859000E+00 -0.7652406E-31
 0.2870000E+00 -0.2078382E-31
 0.2881000E+00  0.6359183E-31
 0.2892000E+00  0.1404907E-30
 0.2903000E+00  0.1665532E-30
 0.2914000E+00  0.1121564E-30
 0.2925000E+00 -0.1851264E-31
 0.2936000E+00 -0.1793523E-30
 0.2947000E+00 -0.2941939E-30
 0.2958000E+00 -0.2882797E-30
 0.2969000E+00 -0.1284374E-30
 0.2980000E+00  0.1468956E-30
 0.2991000E+00  0.4268036E-30
 0.3002000E+00  0.5652243E-30
 0.3013000E+00  0.4478329E-30
 0.3024000E+00  0.6160746E-31
 0.3035000E+00 -0.4689746E-30
 0.3046000E+00 -0.9078258E-30
 0.3057000E+00 -0.9992879E-30
 0.3068000E+00 -0.5966082E-30
 0.3079000E+00  0.2304357E-30
 0.3090000E+00  0.1171117E-29
 0.3101000E+00  0.1768536E-29
 0.3112000E+00  0.1617022E-29
 0.3123000E+00  0.5873206E-30
 0.3134000E+00 -0.1030277E-29
 0.3145000E+00 -0.2561674E-29
 0.3156000E+00 -0.3193450E-29
 0.3167000E+00 -0.2355423E-29
 0.3178000E+00 -0.8019208E-31
 0.3189000E+00  0.2852257E-29
 0.3200000E+00  0.5116250E-29
 0.3211000E+00  0.5375640E-29
 0.3222000E+00  0.2964725E-29
 0.3233000E+00 -0.1596293E-29
 0.3244000E+00 -0.6557614E-29
 0.3255000E+00 -0.9511048E-29
 0.3266000E+00 -0.8441781E-29
 0.3277000E+00 -0.2847830E-29
 0.3288000E+00  0.5623219E-29
 0.3299000E+00  0.1346239E-28
 0.3310000E+00  0.1659575E-28
 0.3321000E+00  0.1228387E-28
 0.3332000E+00  0.8173334E-30
 0.3343000E+00 -0.1389028E-28
 0.3354000E+00 -0.2537258E-28
 0.3365000E+00 -0.2720461E-28
 0.3376000E+00 -0.1618932E-28
 0.3387000E+00  0.5308157E-29
 0.3398000E+00  0.2923225E-28
 0.3409000E+00  0.4448462E-28
 0.3420000E+00  0.4167261E-28
 0.3431000E+00  0.1809268E-28
 0.3442000E+00 -0.1944949E-28
 0.3453000E+00 -0.5584784E-28
 0.3464000E+00 -0.7322898E-28
 0.3475000E+00 -0.5904730E-28
 0.3486000E+00 -0.1334270E-28
 0.3497000E+00  0.4856085E-28
 0.3508000E+00  0.1002072E-27
 0.3519000E+00  0.1144488E-27
 0.3530000E+00  0.7643548E-28
 0.3541000E+00 -0.6608737E-29
 0.3552000E+00 -0.1042237E-27
 0.3563000E+00 -0.1725117E-27
 0.3574000E+00 -0.1724317E-27
 0.3585000E+00 -0.8952523E-28
 0.3596000E+00  0.5410271E-28
 0.3607000E+00  0.2028439E-27
 0.3618000E+00  0.2872287E-27
 0.3629000E+00  0.2540653E-27
 0.3640000E+00  0.9480542E-28
 0.3651000E+00 -0.1416612E-27
 0.3662000E+00 -0.3608142E-27
 0.3673000E+00 -0.4579907E-27
 0.3684000E+00 -0.3652600E-27
 0.3695000E+00 -0.8974915E-28
 0.3706000E+00  0.2761132E-27
 0.3717000E+00  0.5822601E-27
 0.3728000E+00  0.6802978E-27
 0.3739000E+00  0.4922364E-27
 0.3750000E+00  0.5812253E-28
 0.3761000E+00 -0.4632770E-27
 0.3772000E+00 -0.8489424E-27
 0.3783000E+00 -0.9048837E-27
 0.3794000E+00 -0.5608925E-27
 0.3805000E+00  0.7752658E-28
 0.3816000E+00  0.7515568E-27
 0.3827000E+00  0.1147493E-26
 0.3838000E+00  0.1037228E-26
 0.3849000E+00  0.4012225E-27
 0.3860000E+00 -0.5274308E-27
 0.3871000E+00 -0.1332311E-26
 0.3882000E+00 -0.1583030E-26
 0.3893000E+00 -0.1041668E-26
 0.3904000E+00  0.1852163E-27
 0.3915000E+00  0.1630852E-26
 0.3926000E+00  0.2620913E-26
 0.3937000E+00  0.2553405E-26
 0.3948000E+00  0.1198005E-26
 0.3959000E+00 -0.1120788E-26
 0.3970000E+00 -0.3562034E-26
 0.3981000E+00 -0.5049714E-26
 0.3992000E+00 -0.4711040E-26
 0.4003000E+00 -0.2300152E-26
 0.4014000E+00  0.1585101E-26
 0.4025000E+00  0.5622281E-26
 0.4036000E+00  0.8216959E-26
 0.4047000E+00  0.8136834E-26
 0.4058000E+00  0.5073059E-26
 0.4069000E+00 -0.1272067E-27
 0.4080000E+00 -0.5699052E-26
 0.4091000E+00 -0.9617369E-26
 0.4102000E+00 -0.1042664E-25
 0.4113000E+00 -0.7887969E-26
 0.4124000E+00 -0.3130004E-26
 0.4135000E+00  0.1817097E-26
 0.4146000E+00  0.4950371E-26
 0.4157000E+00  0.5290387E-26
 0.4168000E+00  0.3462141E-26
 0.4179000E+00  0.1506959E-26
 0.4190000E+00  0.1892328E-26
 0.4201000E+00  0.6077672E-26
 0.4212000E+00  0.1328306E-25
 0.4223000E+00  0.2014081E-25
 0.4234000E+00  0.2162598E-25
 0.4245000E+00  0.1313489E-25
 0.4256000E+00 -0.6990228E-26
 0.4267000E+00 -0.3555707E-25
 0.4278000E+00 -0.6426286E-25
 0.4289000E+00 -0.8159773E-25
 0.4300000E+00 -0.7660948E-25
 0.4311000E+00 -0.4338657E-25
 0.4322000E+00  0.1538820E-25
 0.4333000E+00  0.8737062E-25
 0.4344000E+00  0.1528019E-24
 0.4355000E+00  0.1897469E-24
 0.4366000E+00  0.1808463E-24
 0.4377000E+00  0.1194077E-24
 0.4388000E+00  0.1273182E-25
 0.4399000E+00 -0.1185671E-24
 0.4410000E+00 -0.2451336E-24
 0.4421000E+00 -0.3359059E-24
 0.4432000E+00 -0.3654210E-24
 0.4443000E+00 -0.3193143E-24
 0.4454000E+00 -0.1968494E-24
 0.4465000E+00 -0.1060054E-25
 0.4476000E+00  0.2155563E-24
 0.4487000E+00  0.4487322E-24
 0.4498000E+00  0.6488708E-24
 0.4509000E+00  0.7707292E-24
 0.4520000E+00  0.7677555E-24
 0.4531000E+00  0.5998822E-24
 0.4542000E+00  0.2460562E-24
 0.4553000E+00 -0.2801848E-24
 0.4564000E+00 -0.9167608E-24
 0.4575000E+00 -0.1547498E-23
 0.4586000E+00 -0.2011651E-23
 0.4597000E+00 -0.2132119E-23
 0.4608000E+00 -0.1760386E-23
 0.4619000E+00 -0.8294303E-24
 0.4630000E+00  0.5996882E-24
 0.4641000E+00  0.2314001E-23
 0.4652000E+00  0.3961198E-23
 0.4663000E+00  0.5104475E-23
 0.4674000E+00  0.5314525E-23
 0.4685000E+00  0.4282089E-23
 0.4696000E+00  0.1925912E-23
 0.4707000E+00 -0.1532087E-23
 0.4718000E+00 -0.5548959E-23
 0.4729000E+00 -0.9314875E-23
 0.4740000E+00 -0.1188000E-22
 0.4751000E+00 -0.1233949E-22
 0.4762000E+00 -0.1004819E-22
 0.4773000E+00 -0.4826212E-23
 0.4784000E+00  0.2888343E-23
 0.4795000E+00  0.1198260E-22
 0.4806000E+00  0.2074285E-22
 0.4817000E+00  0.2707780E-22
 0.4828000E+00  0.2888531E-22
 0.4839000E+00  0.2452402E-22
 0.4850000E+00  0.1331619E-22
 0.4861000E+00 -0.4024241E-23
 0.4872000E+00 -0.2516180E-22
 0.4883000E+00 -0.4622425E-22
 0.4894000E+00 -0.6227815E-22
 0.4905000E+00 -0.6819759E-22
 0.4916000E+00 -0.5982951E-22
 0.4927000E+00 -0.3525457E-22
 0.4938000E+00  0.4140300E-23
 0.4949000E+00  0.5309438E-22
 0.4960000E+00  0.1026870E-21
 0.4971000E+00  0.1414878E-21
 0.4982000E+00  0.1576082E-21
 0.4993000E+00  0.1413881E-21
 0.5004000E+00  0.8823597E-22
 0.5015000E+00  0.9870341E-24
 0.5026000E+00 -0.1088920E-21
 0.5037000E+00 -0.2218090E-21
 0.5048000E+00 -0.3125552E-21
 0.5059000E+00 -0.3547160E-21
 0.5070000E+00 -0.3264291E-21
 0.5081000E+00 -0.2165017E-21
 0.5092000E+00 -0.2958828E-22
 0.5103000E+00  0.2109665E-21
 0.5114000E+00  0.4638240E-21
 0.5125000E+00  0.6745919E-21
 0.5136000E+00  0.7849360E-21
 0.5147000E+00  0.7448360E-21
 0.5158000E+00  0.5259978E-21
 0.5169000E+00  0.1336712E-21
 0.5180000E+00 -0.3862076E-21
 0.5191000E+00 -0.9473477E-21
 0.5202000E+00 -0.1432712E-20
 0.5213000E+00 -0.1713539E-20
 0.5224000E+00 -0.1675777E-20
 0.5235000E+00 -0.1249732E-20
 0.5246000E+00 -0.4369082E-21
 0.5257000E+00  0.6728121E-21
 0.5268000E+00  0.1900019E-20
 0.5279000E+00  0.2994856E-20
 0.5290000E+00  0.3676924E-20
 0.5301000E+00  0.3691906E-20
 0.5312000E+00  0.2875978E-20
 0.5323000E+00  0.1215057E-20
 0.5334000E+00 -0.1115950E-20
 0.5345000E+00 -0.3747752E-20
 0.5356000E+00 -0.6154507E-20
 0.5367000E+00 -0.7736563E-20
 0.5378000E+00 -0.7939886E-20
 0.5389000E+00 -0.6393546E-20
 0.5400000E+00 -0.3038024E-20
 0.5411000E+00  0.1787289E-20
 0.5422000E+00  0.7327272E-20
 0.5433000E+00  0.1248571E-19
 0.5444000E+00  0.1599613E-19
 0.5455000E+00  0.1667252E-19
 0.5466000E+00  0.1370138E-19
 0.5477000E+00  0.6917445E-20
 0.5488000E+00 -0.3004453E-20
 0.5499000E+00 -0.1450632E-19
 0.5510000E+00 -0.2529856E-19
 0.5521000E+00 -0.3271810E-19
 0.5532000E+00 -0.3425982E-19
 0.5543000E+00 -0.2819929E-19
 0.5554000E+00 -0.1418332E-19
 0.5565000E+00  0.6358027E-20
 0.5576000E+00  0.3011855E-19
 0.5587000E+00  0.5224280E-19
 0.5598000E+00  0.6709921E-19
 0.5609000E+00  0.6942762E-19
 0.5620000E+00  0.5568287E-19
 0.5631000E+00  0.2530491E-19
 0.5642000E+00 -0.1840478E-19
 0.5653000E+00 -0.6810880E-19
 0.5664000E+00 -0.1131821E-18
 0.5675000E+00 -0.1414414E-18
 0.5686000E+00 -0.1416953E-18
 0.5697000E+00 -0.1067203E-18
 0.5708000E+00 -0.3605885E-19
 0.5719000E+00  0.6207660E-19
 0.5730000E+00  0.1704909E-18
 0.5741000E+00  0.2647870E-18
 0.5752000E+00  0.3173803E-18
 0.5763000E+00  0.3033890E-18
 0.5774000E+00  0.2075027E-18
 0.5785000E+00  0.3044644E-19
 0.5796000E+00 -0.2066256E-18
 0.5807000E+00 -0.4614441E-18
 0.5818000E+00 -0.6748611E-18
 0.5829000E+00 -0.7803994E-18
 0.5840000E+00 -0.7183552E-18
 0.5851000E+00 -0.4524046E-18
 0.5862000E+00  0.1451226E-19
 0.5873000E+00  0.6290133E-18
 0.5884000E+00  0.1284835E-17
 0.5895000E+00  0.1832290E-17
 0.5906000E+00  0.2100918E-17
 0.5917000E+00  0.1933956E-17
 0.5928000E+00  0.1230079E-17
 0.5939000E+00 -0.1512976E-19
 0.5950000E+00 -0.1677722E-17
 0.5961000E+00 -0.3494244E-17
 0.5972000E+00 -0.5079638E-17
 0.5983000E+00 -0.5978897E-17
 0.5994000E+00 -0.5750877E-17
 0.6005000E+00 -0.4074943E-17
 0.6016000E+00 -0.8631892E-18
 0.6027000E+00  0.3645464E-17
 0.6038000E+00  0.8835989E-17
 0.6049000E+00  0.1373750E-16
 0.6060000E+00  0.1712973E-16
 0.6071000E+00  0.1773833E-16
 0.6082000E+00  0.1450306E-16
 0.6093000E+00  0.6881897E-17
 0.6104000E+00 -0.4864416E-17
 0.6115000E+00 -0.1947543E-16
 0.6126000E+00 -0.3465115E-16
 0.6137000E+00 -0.4722570E-16
 0.6148000E+00 -0.5358221E-16
 0.6159000E+00 -0.5029338E-16
 0.6170000E+00 -0.3491964E-16
 0.6181000E+00 -0.6843250E-17
 0.6192000E+00  0.3202743E-16
 0.6203000E+00  0.7687107E-16
 0.6214000E+00  0.1200611E-15
 0.6225000E+00  0.1518950E-15
 0.6236000E+00  0.1619803E-15
 0.6247000E+00  0.1411877E-15
 0.6258000E+00  0.8393982E-16
 0.6269000E+00 -0.9535090E-17
 0.6280000E+00 -0.1314537E-15
 0.6291000E+00 -0.2657391E-15
 0.6302000E+00 -0.3887431E-15
 0.6313000E+00 -0.4717190E-15
 0.6324000E+00 -0.4850675E-15
 0.6335000E+00 -0.4040337E-15
 0.6346000E+00 -0.2151515E-15
 0.6357000E+00  0.7762119E-16
 0.6368000E+00  0.4483801E-15
 0.6379000E+00  0.8477289E-15
 0.6390000E+00  0.1205389E-14
 0.6401000E+00  0.1437676E-14
 0.6412000E+00  0.1459807E-14
 0.6423000E+00  0.1202076E-14
 0.6434000E+00  0.6278906E-15
 0.6445000E+00 -0.2492310E-15
 0.6456000E+00 -0.1353270E-14
 0.6467000E+00 -0.2541592E-14
 0.6478000E+00 -0.3612277E-14
 0.6489000E+00 -0.4324804E-14
 0.6500000E+00 -0.4434032E-14
 0.6511000E+00 -0.3734952E-14
 0.6522000E+00 -0.2112952E-14
 0.6533000E+00  0.4081647E-15
 0.6544000E+00  0.3629905E-14
 0.6555000E+00  0.7164600E-14
 0.6566000E+00  0.1045152E-13
 0.6577000E+00  0.1280930E-13
 0.6588000E+00  0.1352535E-13
 0.6599000E+00  0.1197638E-13
 0.6610000E+00  0.7767143E-14
 0.6621000E+00  0.8674101E-15
 0.6632000E+00 -0.8277565E-14
 0.6643000E+00 -0.1869009E-13
 0.6654000E+00 -0.2888142E-13
 0.6665000E+00 -0.3696929E-13
 0.6676000E+00 -0.4089764E-13
 0.6687000E+00 -0.3874825E-13
 0.6698000E+00 -0.2911539E-13
 0.6709000E+00 -0.1149584E-13
 0.6720000E+00  0.1336899E-13
 0.6731000E+00  0.4327086E-13
 0.6742000E+00  0.7450312E-13
 0.6753000E+00  0.1020764E-12
 0.6764000E+00  0.1202115E-12
 0.6775000E+00  0.1230993E-12
 0.6786000E+00  0.1058720E-12
 0.6797000E+00  0.6567846E-13
 0.6808000E+00  0.2713315E-14
 0.6819000E+00 -0.7898061E-13
 0.6830000E+00 -0.1711286E-12
 0.6841000E+00 -0.2614304E-12
 0.6852000E+00 -0.3344775E-12
 0.6863000E+00 -0.3734211E-12
 0.6874000E+00 -0.3623155E-12
 0.6885000E+00 -0.2889389E-12
 0.6896000E+00 -0.1477600E-12
 0.6907000E+00  0.5738496E-13
 0.6918000E+00  0.3114074E-12
 0.6929000E+00  0.5873725E-12
 0.6940000E+00  0.8476160E-12
 0.6951000E+00  0.1046823E-11
 0.6962000E+00  0.1137080E-11
 0.6973000E+00  0.1074604E-11
 0.6984000E+00  0.8275435E-12
 0.6995000E+00  0.3839253E-12
 0.7006000E+00 -0.2414009E-12
 0.7017000E+00 -0.1002114E-11
 0.7028000E+00 -0.1819316E-11
 0.7039000E+00 -0.2585005E-11
 0.7050000E+00 -0.3170733E-11
 0.7061000E+00 -0.3441433E-11
 0.7072000E+00 -0.3273631E-11
 0.7083000E+00 -0.2576417E-11
 0.7094000E+00 -0.1312787E-11
 0.7105000E+00  0.4816538E-12
 0.7116000E+00  0.2685926E-11
 0.7127000E+00  0.5090011E-11
 0.7138000E+00  0.7402881E-11
 0.7149000E+00  0.9273722E-11
 0.7160000E+00  0.1032637E-10
 0.7171000E+00  0.1020524E-10
 0.7182000E+00  0.8629004E-11
 0.7193000E+00  0.5446559E-11
 0.7204000E+00  0.6883144E-12
 0.7215000E+00 -0.5395184E-11
 0.7226000E+00 -0.1231514E-10
 0.7237000E+00 -0.1935386E-10
 0.7248000E+00 -0.2560623E-10
 0.7259000E+00 -0.3005494E-10
 0.7270000E+00 -0.3167657E-10
 0.7281000E+00 -0.2957152E-10
 0.7292000E+00 -0.2310606E-10
 0.7303000E+00 -0.1205112E-10
 0.7314000E+00  0.3300063E-11
 0.7325000E+00  0.2205385E-10
 0.7336000E+00  0.4269491E-10
 0.7347000E+00  0.6313532E-10
 0.7358000E+00  0.8084181E-10
 0.7369000E+00  0.9304149E-10
 0.7380000E+00  0.9699707E-10
 0.7391000E+00  0.9033301E-10
 0.7402000E+00  0.7138487E-10
 0.7413000E+00  0.3953607E-10
 0.7424000E+00 -0.4498187E-11
 0.7435000E+00 -0.5848109E-10
 0.7446000E+00 -0.1185959E-09
 0.7457000E+00 -0.1795478E-09
 0.7468000E+00 -0.2348415E-09
 0.7479000E+00 -0.2772357E-09
 0.7490000E+00 -0.2993554E-09
 0.7501000E+00 -0.2944273E-09
 0.7512000E+00 -0.2570864E-09
 0.7523000E+00 -0.1841873E-09
 0.7534000E+00 -0.7554560E-10
 0.7545000E+00  0.6546980E-10
 0.7556000E+00  0.2315690E-09
 0.7567000E+00  0.4114623E-09
 0.7578000E+00  0.5901150E-09
 0.7589000E+00  0.7493560E-09
 0.7600000E+00  0.8688309E-09
 0.7611000E+00  0.9272590E-09
 0.7622000E+00  0.9039283E-09
 0.7633000E+00  0.7803396E-09
 0.7644000E+00  0.5418982E-09
 0.7655000E+00  0.1795507E-09
 0.7666000E+00 -0.3087360E-09
 0.7677000E+00 -0.9167382E-09
 0.7688000E+00 -0.1629049E-08
 0.7699000E+00 -0.2420500E-08
 0.7710000E+00 -0.3255924E-08
 0.7721000E+00 -0.4090224E-08
 0.7732000E+00 -0.4868639E-08
 0.7743000E+00 -0.5527061E-08
 0.7754000E+00 -0.5992211E-08
 0.7765000E+00 -0.6181436E-08
 0.7776000E+00 -0.6001889E-08
 0.7787000E+00 -0.5348820E-08
 0.7798000E+00 -0.4102733E-08
 0.7809000E+00 -0.2125123E-08
 0.7820000E+00  0.7474820E-09
 0.7831000E+00  0.4711476E-08
 0.7842000E+00  0.1000648E-07
 0.7853000E+00  0.1692840E-07
 0.7864000E+00  0.2584553E-07
 0.7875000E+00  0.3721811E-07
 0.7886000E+00  0.5162174E-07
 0.7897000E+00  0.6977506E-07
 0.7908000E+00  0.9257218E-07
 0.7919000E+00  0.1211207E-06
 0.7930000E+00  0.1567859E-06
 0.7941000E+00  0.2012421E-06
 0.7952000E+00  0.2565328E-06
 0.7963000E+00  0.3251394E-06
 0.7974000E+00  0.4100604E-06
 0.7985000E+00  0.5149026E-06
 0.7996000E+00  0.6439846E-06
 0.8007000E+00  0.8024550E-06
 0.8018000E+00  0.9964257E-06
 0.8029000E+00  0.1233123E-05
 0.8040000E+00  0.1521057E-05
 0.8051000E+00  0.1870211E-05
 0.8062000E+00  0.2292251E-05
 0.8073000E+00  0.2800758E-05
 0.8084000E+00  0.3411478E-05
 0.8095000E+00  0.4142588E-05
 0.8106000E+00  0.5014996E-05
 0.8117000E+00  0.6052645E-05
 0.8128000E+00  0.7282846E-05
 0.8139000E+00  0.8736609E-05
 0.8150000E+00  0.1044900E-04
 0.8161000E+00  0.1245948E-04
 0.8172000E+00  0.1481226E-04
 0.8183000E+00  0.1755659E-04
 0.8194000E+00  0.2074710E-04
 0.8205000E+00  0.2444407E-04
 0.8216000E+00  0.2871365E-04
 0.8227000E+00  0.3362802E-04
 0.8238000E+00  0.3926549E-04
 0.8249000E+00  0.4571047E-04
 0.8260000E+00  0.5305334E-04
 0.8271000E+00  0.6139021E-04
 0.8282000E+00  0.7082253E-04
 0.8293000E+00  0.8145648E-04
 0.8304000E+00  0.9340228E-04
 0.8315000E+00  0.1067731E-03
 0.8326000E+00  0.1216840E-03
 0.8337000E+00  0.1382504E-03
 0.8348000E+00  0.1565864E-03
 0.8359000E+00  0.1768027E-03
 0.8370000E+00  0.1990048E-03
 0.8381000E+00  0.2232901E-03
 0.8392000E+00  0.2497453E-03
 0.8403000E+00  0.2784437E-03
 0.8414000E+00  0.3094415E-03
 0.8425000E+00  0.3427750E-03
 0.8436000E+00  0.3784569E-03
 0.8447000E+00  0.4164724E-03
 0.8458000E+00  0.4567762E-03
 0.8469000E+00  0.4992886E-03
 0.8480000E+00  0.5438919E-03
 0.8491000E+00  0.5904275E-03
 0.8502000E+00  0.6386930E-03
 0.8513000E+00  0.6884388E-03
 0.8524000E+00  0.7393667E-03
 0.8535000E+00  0.7911286E-03
 0.8546000E+00  0.8433248E-03
 0.8557000E+00  0.8955047E-03
 0.8568000E+00  0.9471669E-03
 0.8579000E+00  0.9977613E-03
 0.8590000E+00  0.1046692E-02
 0.8601000E+00  0.1093319E-02
 0.8612000E+00  0.1136968E-02
 0.8623000E+00  0.1176930E-02
 0.8634000E+00  0.1212475E-02
 0.8645000E+00  0.1242852E-02
 0.8656000E+00  0.1267306E-02
 0.8667000E+00  0.1285084E-02
 0.8678000E+00  0.1295446E-02
 0.8689000E+00  0.1297676E-02
 0.8700000E+00  0.1291097E-02
 0.8711000E+00  0.1275081E-02
 0.8722000E+00  0.1249060E-02
 0.8733000E+00  0.1212541E-02
 0.8744000E+00  0.1165117E-02
 0.8755000E+00  0.1106479E-02
 0.8766000E+00  0.1036423E-02
 0.8777000E+00  0.9548644E-03
 0.8788000E+00  0.8618440E-03
 0.8799000E+00  0.7575334E-03
 0.8810000E+00  0.6422400E-03
 0.8821000E+00  0.5164102E-03
 0.8832000E+00  0.3806301E-03
 0.8843000E+00  0.2356244E-03
 0.8854000E+00  0.8225181E-04
 0.8865000E+00 -0.7850090E-04
 0.8876000E+00 -0.2455274E-03
 0.8887000E+00 -0.4176122E-03
 0.8898000E+00 -0.5934435E-03
 0.8909000E+00 -0.7716276E-03
 0.8920000E+00 -0.9507056E-03
 0.8931000E+00 -0.1129171E-02
 0.8942000E+00 -0.1305489E-02
 0.8953000E+00 -0.1478115E-02
 0.8964000E+00 -0.1645518E-02
 0.8975000E+00 -0.1806198E-02
 0.8986000E+00 -0.1958706E-02
 0.8997000E+00 -0.2101667E-02
 0.9008000E+00 -0.2233796E-02
 0.9019000E+00 -0.2353915E-02
 0.9030000E+00 -0.2460972E-02
 0.9041000E+00 -0.2554053E-02
 0.9052000E+00 -0.2632393E-02
 0.9063000E+00 -0.2695387E-02
 0.9074000E+00 -0.2742595E-02
 0.9085000E+00 -0.2773750E-02
 0.9096000E+00 -0.2788758E-02
 0.9107000E+00 -0.2787693E-02
 0.9118000E+00 -0.2770800E-02
 0.9129000E+00 -0.2738485E-02
 0.9140000E+00 -0.2691307E-02
 0.9151000E+00 -0.2629969E-02
 0.9162000E+00 -0.2555302E-02
 0.9173000E+00 -0.2468256E-02
 0.9184000E+00 -0.2369882E-02
 0.9195000E+00 -0.2261312E-02
 0.9206000E+00 -0.2143750E-02
 0.9217000E+00 -0.2018445E-02
 0.9228000E+00 -0.1886680E-02
 0.9239000E+00 -0.1749752E-02
 0.9250000E+00 -0.1608955E-02
 0.9261000E+00 -0.1465563E-02
 0.9272000E+00 -0.1320819E-02
 0.9283000E+00 -0.1175917E-02
 0.9294000E+00 -0.1031992E-02
 0.9305000E+00 -0.8901047E-03
 0.9316000E+00 -0.7512394E-03
 0.9327000E+00 -0.6162909E-03
 0.9338000E+00 -0.4860611E-03
 0.9349000E+00 -0.3612549E-03
 0.9360000E+00 -0.2424780E-03
 0.9371000E+00 -0.1302356E-03
 0.9382000E+00 -0.2493338E-04
 0.9393000E+00  0.7312057E-04
 0.9404000E+00  0.1637120E-03
 0.9415000E+00  0.2467156E-03
 0.9426000E+00  0.3220901E-03
 0.9437000E+00  0.3898717E-03
 0.9448000E+00  0.4501673E-03
 0.9459000E+00  0.5031481E-03
 0.9470000E+00  0.5490410E-03
 0.9481000E+00  0.5881217E-03
 0.9492000E+00  0.6207061E-03
 0.9503000E+00  0.6471432E-03
 0.9514000E+00  0.6678083E-03
 0.9525000E+00  0.6830954E-03
 0.9536000E+00  0.6934113E-03
 0.9547000E+00  0.6991691E-03
 0.9558000E+00  0.7007829E-03
 0.9569000E+00  0.6986622E-03
 0.9580000E+00  0.6932086E-03
 0.9591000E+00  0.6848109E-03
 0.9602000E+00  0.6738427E-03
 0.9613000E+00  0.6606597E-03
 0.9624000E+00  0.6455979E-03
 0.9635000E+00  0.6289716E-03
 0.9646000E+00  0.6110719E-03
 0.9657000E+00  0.5921668E-03
 0.9668000E+00  0.5725003E-03
 0.9679000E+00  0.5522929E-03
 0.9690000E+00  0.5317419E-03
 0.9701000E+00  0.5110223E-03
 0.9712000E+00  0.4902884E-03
 0.9723000E+00  0.4696741E-03
 0.9734000E+00  0.4492946E-03
 0.9745000E+00  0.4292476E-03
 0.9756000E+00  0.4096145E-03
 0.9767000E+00  0.3904619E-03
 0.9778000E+00  0.3718435E-03
 0.9789000E+00  0.3538014E-03