-0.1200000E+00  0.0000000E+00
-0.1189000E+00  0.0000000E+00
-0.1178000E+00  0.0000000E+00
-0.1167000E+00  0.0000000E+00
-0.1156000E+00  0.0000000E+00
-0.1145000E+00  0.0000000E+00
-0.1134000E+00  0.0000000E+00
-0.1123000E+00  0.0000000E+00
-0.1112000E+00  0.0000000E+00
-0.1101000E+00  0.0000000E+00
-0.1090000E+00  0.0000000E+00
-0.1079000E+00  0.0000000E+00
-0.1068000E+00  0.0000000E+00
-0.1057000E+00  0.0000000E+00
-0.1046000E+00  0.0000000E+00
-0.1035000E+00  0.0000000E+00
-0.1024000E+00  0.0000000E+00
-0.1013000E+00  0.0000000E+00
-0.1002000E+00  0.0000000E+00
-0.9910000E-01  0.0000000E+00
-0.9800000E-01  0.0000000E+00
-0.9690000E-01  0.0000000E+00
-0.9580000E-01  0.0000000E+00
-0.9470000E-01  0.0000000E+00
-0.9360000E-01  0.0000000E+00
-0.9250000E-01  0.0000000E+00
-0.9140000E-01  0.0000000E+00
-0.9030000E-01  0.0000000E+00
-0.8920000E-01  0.0000000E+00
-0.8810000E-01  0.0000000E+00
-0.8700000E-01  0.0000000E+00
-0.8590000E-01  0.0000000E+00
-0.8480000E-01  0.0000000E+00
-0.8370000E-01  0.0000000E+00
-0.8260000E-01  0.0000000E+00
-0.8150000E-01  0.0000000E+00
-0.8040000E-01  0.0000000E+00
-0.7930000E-01  0.0000000E+00
-0.7820000E-01  0.0000000E+00
-0.7710000E-01  0.0000000E+00
-0.7600000E-01  0.0000000E+00
-0.7490000E-01  0.0000000E+00
-0.7380000E-01  0.0000000E+00
-0.7270000E-01  0.0000000E+00
-0.7160000E-01  0.0000000E+00
-0.7050000E-01  0.0000000E+00
-0.6940000E-01  0.0000000E+00
-0.6830000E-01  0.0000000E+00
-0.6720000E-01  0.0000000E+00
-0.6610000E-01  0.0000000E+00
-0.6500000E-01  0.0000000E+00
-0.6390000E-01  0.0000000E+00
-0.6280000E-01  0.0000000E+00
-0.6170000E-01  0.0000000E+00
-0.6060000E-01  0.0000000E+00
-0.5950000E-01  0.0000000E+00
-0.5840000E-01  0.0000000E+00
-0.5730000E-01  0.0000000E+00
-0.5620000E-01  0.0000000E+00
-0.5510000E-01  0.0000000E+00
-0.5400000E-01  0.0000000E+00
-0.5290000E-01  0.0000000E+00
-0.5180000E-01  0.0000000E+00
-0.5070000E-01  0.0000000E+00
-0.4960000E-01  0.0000000E+00
-0.4850000E-01  0.0000000E+00
-0.4740000E-01  0.0000000E+00
-0.4630000E-01  0.0000000E+00
-0.4520000E-01  0.0000000E+00
-0.4410000E-01  0.0000000E+00
-0.4300000E-01  0.0000000E+00
-0.4190000E-01  0.0000000E+00
-0.4080000E-01  0.0000000E+00
-0.3970000E-01  0.0000000E+00
-0.3860000E-01  0.0000000E+00
-0.3750000E-01  0.0000000E+00
-0.3640000E-01  0.0000000E+00
-0.3530000E-01  0.0000000E+00
-0.3420000E-01  0.0000000E+00
-0.3310000E-01  0.0000000E+00
-0.3200000E-01  0.0000000E+00
-0.3090000E-01  0.0000000E+00
-0.2980000E-01  0.0000000E+00
-0.2870000E-01  0.0000000E+00
-0.2760000E-01  0.0000000E+00
-0.2650000E-01  0.0000000E+00
-0.2540000E-01  0.0000000E+00
-0.2430000E-01  0.0000000E+00
-0.2320000E-01  0.0000000E+00
-0.2210000E-01  0.0000000E+00
-0.2100000E-01  0.0000000E+00
-0.1990000E-01  0.0000000E+00
-0.1880000E-01  0.0000000E+00
-0.1770000E-01  0.0000000E+00
-0.1660000E-01  0.0000000E+00
-0.1550000E-01  0.0000000E+00
-0.1440000E-01  0.0000000E+00
-0.1330000E-01  0.0000000E+00
-0.1220000E-01  0.0000000E+00
-0.1110000E-01  0.0000000E+00
-0.1000000E-01  0.0000000E+00
-0.8900000E-02  0.0000000E+00
-0.7800000E-02  0.0000000E+00
-0.6700000E-02  0.0000000E+00
-0.5600000E-02  0.0000000E+00
-0.4500000E-02  0.0000000E+00
-0.3400000E-02  0.0000000E+00
-0.2300000E-02  0.0000000E+00
-0.1200000E-02  0.0000000E+00
-0.1000000E-03  0.0000000E+00
 0.1000000E-02  0.0000000E+00
 0.2100000E-02  0.0000000E+00
 0.3200000E-02  0.0000000E+00
 0.4300000E-02  0.0000000E+00
 0.5400000E-02  0.0000000E+00
 0.6500000E-02  0.0000000E+00
 0.7600000E-02  0.0000000E+00
 0.8700000E-02  0.0000000E+00
 0.9800000E-02  0.0000000E+00
 0.1090000E-01  0.0000000E+00
 0.1200000E-01  0.0000000E+00
 0.1310000E-01  0.0000000E+00
 0.1420000E-01  0.0000000E+00
 0.1530000E-01  0.0000000E+00
 0.1640000E-01  0.0000000E+00
 0.1750000E-01  0.0000000E+00
 0.1860000E-01  0.0000000E+00
 0.1970000E-01  0.0000000E+00
 0.2080000E-01  0.0000000E+00
 0.2190000E-01  0.0000000E+00
 0.2300000E-01  0.0000000E+00
 0.2410000E-01  0.0000000E+00
 0.2520000E-01  0.0000000E+00
 0.2630000E-01  0.0000000E+00
 0.2740000E-01  0.0000000E+00
 0.2850000E-01  0.0000000E+00
 0.2960000E-01  0.0000000E+00
 0.3070000E-01  0.0000000E+00
 0.3180000E-01  0.0000000E+00
 0.3290000E-01  0.0000000E+00
 0.3400000E-01  0.0000000E+00
 0.3510000E-01  0.0000000E+00
 0.3620000E-01  0.0000000E+00
 0.3730000E-01  0.0000000E+00
 0.3840000E-01  0.0000000E+00
 0.3950000E-01  0.0000000E+00
 0.4060000E-01  0.0000000E+00
 0.4170000E-01  0.0000000E+00
 0.4280000E-01  0.0000000E+00
 0.4390000E-01  0.0000000E+00
 0.4500000E-01  0.0000000E+00
 0.4610000E-01  0.0000000E+00
 0.4720000E-01  0.0000000E+00
 0.4830000E-01  0.0000000E+00
 0.4940000E-01  0.0000000E+00
 0.5050000E-01  0.0000000E+00
 0.5160000E-01  0.0000000E+00
 0.5270000E-01  0.0000000E+00
 0.5380000E-01  0.0000000E+00
 0.5490000E-01  0.0000000E+00
 0.5600000E-01  0.0000000E+00
 0.5710000E-01  0.0000000E+00
 0.5820000E-01  0.0000000E+00
 0.5930000E-01  0.0000000E+00
 0.6040000E-01  0.0000000E+00
 0.6150000E-01  0.0000000E+00
 0.6260000E-01  0.0000000E+00
 0.6370000E-01  0.0000000E+00
 0.6480000E-01  0.0000000E+00
 0.6590000E-01  0.0000000E+00
 0.6700000E-01  0.0000000E+00
 0.6810000E-01  0.0000000E+00
 0.6920000E-01  0.0000000E+00
 0.7030000E-01  0.0000000E+00
 0.7140000E-01  0.0000000E+00
 0.7250000E-01  0.0000000E+00
 0.7360000E-01  0.0000000E+00
 0.7470000E-01  0.0000000E+00
 0.7580000E-01  0.0000000E+00
 0.7690000E-01  0.0000000E+00
 0.7800000E-01  0.0000000E+00
 0.7910000E-01  0.0000000E+00
 0.8020000E-01  0.0000000E+00
 0.8130000E-01  0.0000000E+00
 0.8240000E-01  0.0000000E+00
 0.8350000E-01  0.0000000E+00
 0.8460000E-01  0.0000000E+00
 0.8570000E-01  0.0000000E+00
 0.8680000E-01  0.0000000E+00
 0.8790000E-01  0.0000000E+00
 0.8900000E-01  0.0000000E+00
 0.9010000E-01  0.0000000E+00
 0.9120000E-01  0.0000000E+00
 0.9230000E-01  0.0000000E+00
 0.9340000E-01  0.0000000E+00
 0.9450000E-01  0.0000000E+00
 0.9560000E-01  0.0000000E+00
 0.9670000E-01  0.0000000E+00
 0.9780000E-01  0.0000000E+00
 0.9890000E-01  0.0000000E+00
 0.1000000E+00  0.0000000E+00
 0.1011000E+00  0.0000000E+00
 0.1022000E+00  0.0000000E+00
 0.1033000E+00  0.0000000E+00
 0.1044000E+00  0.0000000E+00
 0.1055000E+00 -0.0000000E+00
 0.1066000E+00 -0.0000000E+00
 0.1077000E+00  0.0000000E+00
 0.1088000E+00  0.0000000E+00
 0.1099000E+00  0.0000000E+00
 0.1110000E+00  0.0000000E+00
 0.1121000E+00 -0.0000000E+00
 0.1132000E+00 -0.0000000E+00
 0.1143000E+00 -0.3905322E-37
 0.1154000E+00 -0.1407990E-37
 0.1165000E+00  0.9784255E-37
 0.1176000E+00  0.2687666E-36
 0.1187000E+00  0.3958456E-36
 0.1198000E+00  0.3292253E-36
 0.1209000E+00 -0.2450710E-37
 0.1220000E+00 -0.6024874E-36
 0.1231000E+00 -0.1166414E-35
 0.1242000E+00 -0.1322973E-35
 0.1253000E+00 -0.6712987E-36
 0.1264000E+00  0.9127747E-36
 0.1275000E+00  0.3040798E-35
 0.1286000E+00  0.4682672E-35
 0.1297000E+00  0.4441249E-35
 0.1308000E+00  0.1184532E-35
 0.1319000E+00 -0.4999454E-35
 0.1330000E+00 -0.1212447E-34
 0.1341000E+00 -0.1632414E-34
 0.1352000E+00 -0.1309083E-34
 0.1363000E+00  0.3059810E-36
 0.1374000E+00  0.2198573E-34
 0.1385000E+00  0.4377062E-34
 0.1396000E+00  0.5236446E-34
 0.1407000E+00  0.3444456E-34
 0.1418000E+00 -0.1515285E-34
 0.1429000E+00 -0.8538249E-34
 0.1440000E+00 -0.1461312E-33
 0.1451000E+00 -0.1553642E-33
 0.1462000E+00 -0.7769524E-34
 0.1473000E+00  0.9041628E-34
 0.1484000E+00  0.3004508E-33
 0.1495000E+00  0.4516742E-33
 0.1506000E+00  0.4223174E-33
 0.1517000E+00  0.1305438E-33
 0.1528000E+00 -0.3952170E-33
 0.1539000E+00 -0.9736813E-33
 0.1550000E+00 -0.1296166E-32
 0.1561000E+00 -0.1040943E-32
 0.1572000E+00 -0.5515254E-34
 0.1583000E+00  0.1468418E-32
 0.1594000E+00  0.2926778E-32
 0.1605000E+00  0.3449580E-32
 0.1616000E+00  0.2270028E-32
 0.1627000E+00 -0.7796070E-33
 0.1638000E+00 -0.4875926E-32
 0.1649000E+00 -0.8195219E-32
 0.1660000E+00 -0.8478567E-32
 0.1671000E+00 -0.4119712E-32
 0.1682000E+00  0.4605011E-32
 0.1693000E+00  0.1480845E-31
 0.1704000E+00  0.2142148E-31
 0.1715000E+00  0.1907001E-31
 0.1726000E+00  0.4989667E-32
 0.1737000E+00 -0.1821859E-31
 0.1748000E+00 -0.4164071E-31
 0.1759000E+00 -0.5226376E-31
 0.1770000E+00 -0.3850039E-31
 0.1781000E+00  0.2654591E-32
 0.1792000E+00  0.6018275E-31
 0.1803000E+00  0.1091464E-30
 0.1814000E+00  0.1186757E-30
 0.1825000E+00  0.6670928E-31
 0.1836000E+00 -0.4394786E-31
 0.1847000E+00 -0.1767236E-30
 0.1858000E+00 -0.2675330E-30
 0.1869000E+00 -0.2489830E-30
 0.1880000E+00 -0.8639464E-31
 0.1891000E+00  0.1896297E-30
 0.1902000E+00  0.4736487E-30
 0.1913000E+00  0.6134332E-30
 0.1924000E+00  0.4751110E-30
 0.1935000E+00  0.2404227E-31
 0.1946000E+00 -0.6171052E-30
 0.1957000E+00 -0.1174077E-29
 0.1968000E+00 -0.1312192E-29
 0.1979000E+00 -0.7957527E-30
 0.1990000E+00  0.3457004E-30
 0.2001000E+00  0.1732814E-29
 0.2012000E+00  0.2710653E-29
 0.2023000E+00  0.2600676E-29
 0.2034000E+00  0.1059200E-29
 0.2045000E+00 -0.1613450E-29
 0.2056000E+00 -0.4399197E-29
 0.2067000E+00 -0.5849630E-29
 0.2078000E+00 -0.4709566E-29
 0.2089000E+00 -0.6603712E-30
 0.2100000E+00  0.5175448E-29
 0.2111000E+00  0.1032498E-28
 0.2122000E+00  0.1181176E-28
 0.2133000E+00  0.7568530E-29
 0.2144000E+00 -0.2145004E-29
 0.2155000E+00 -0.1407658E-28
 0.2166000E+00 -0.2268181E-28
 0.2177000E+00 -0.2228296E-28
 0.2188000E+00 -0.1003075E-28
 0.2199000E+00  0.1163475E-28
 0.2210000E+00  0.3449761E-28
 0.2221000E+00  0.4696824E-28
 0.2232000E+00  0.3905962E-28
 0.2243000E+00  0.8157279E-29
 0.2254000E+00 -0.3719586E-28
 0.2265000E+00 -0.7813266E-28
 0.2276000E+00 -0.9196385E-28
 0.2287000E+00 -0.6276059E-28
 0.2298000E+00  0.8212220E-29
 0.2309000E+00  0.9769696E-28
 0.2320000E+00  0.1655418E-27
 0.2331000E+00  0.1701342E-27
 0.2342000E+00  0.8937327E-28
 0.2353000E+00 -0.6195652E-28
 0.2364000E+00 -0.2284697E-27
 0.2375000E+00 -0.3301721E-27
 0.2386000E+00 -0.2958755E-27
 0.2397000E+00 -0.1021083E-27
 0.2408000E+00  0.2007555E-27
 0.2419000E+00  0.4922594E-27
 0.2430000E+00  0.6223451E-27
 0.2441000E+00  0.4786308E-27
 0.2452000E+00  0.5405577E-28
 0.2463000E+00 -0.5192919E-27
 0.2474000E+00 -0.9969151E-27
 0.2485000E+00 -0.1112861E-26
 0.2496000E+00 -0.7071009E-27
 0.2507000E+00  0.1645792E-27
 0.2518000E+00  0.1198247E-26
 0.2529000E+00  0.1924693E-26
 0.2540000E+00  0.1897674E-26
 0.2551000E+00  0.9222782E-27
 0.2562000E+00 -0.7795459E-27
 0.2573000E+00 -0.2565623E-26
 0.2584000E+00 -0.3577523E-26
 0.2595000E+00 -0.3106108E-26
 0.2606000E+00 -0.9807405E-27
 0.2617000E+00  0.2203579E-26
 0.2628000E+00  0.5175375E-26
 0.2639000E+00  0.6430544E-26
 0.2650000E+00  0.4905013E-26
 0.2661000E+00  0.6060967E-27
 0.2672000E+00 -0.5115775E-26
 0.2683000E+00 -0.9877876E-26
 0.2694000E+00 -0.1115363E-25
 0.2705000E+00 -0.7452005E-26
 0.2716000E+00  0.7101045E-27
 0.2727000E+00  0.1056191E-25
 0.2738000E+00  0.1785346E-25
 0.2749000E+00  0.1852456E-25
 0.2760000E+00  0.1068148E-25
 0.2771000E+00 -0.3991381E-26
 0.2782000E+00 -0.2019149E-25
 0.2793000E+00 -0.3066832E-25
 0.2804000E+00 -0.2920400E-25
 0.2815000E+00 -0.1378811E-25
 0.2826000E+00  0.1147664E-25
 0.2837000E+00  0.3692944E-25
 0.2848000E+00  0.5065898E-25
 0.2859000E+00  0.4361576E-25
 0.2870000E+00  0.1451554E-25
 0.2881000E+00 -0.2782708E-25
 0.2892000E+00 -0.6640408E-25
 0.2903000E+00 -0.8219502E-25
 0.2914000E+00 -0.6265652E-25
 0.2925000E+00 -0.9040183E-26
 0.2936000E+00  0.6114426E-25
 0.2947000E+00  0.1187247E-24
 0.2958000E+00  0.1338999E-24
 0.2969000E+00  0.8995478E-25
 0.2980000E+00 -0.6136577E-26
 0.2991000E+00 -0.1217918E-24
 0.3002000E+00 -0.2082955E-24
 0.3013000E+00 -0.2196821E-24
 0.3024000E+00 -0.1342976E-24
 0.3035000E+00  0.3028611E-25
 0.3046000E+00  0.2171594E-24
 0.3057000E+00  0.3477786E-24
 0.3068000E+00  0.3529601E-24
 0.3079000E+00  0.2057064E-24
 0.3090000E+00 -0.5863509E-25
 0.3101000E+00 -0.3463951E-24
 0.3112000E+00 -0.5365094E-24
 0.3123000E+00 -0.5293963E-24
 0.3134000E+00 -0.2950531E-24
 0.3145000E+00  0.1014328E-24
 0.3156000E+00  0.5125080E-24
 0.3167000E+00  0.7600146E-24
 0.3178000E+00  0.7098350E-24
 0.3189000E+00  0.3396198E-24
 0.3200000E+00 -0.2322623E-24
 0.3211000E+00 -0.7765032E-24
 0.3222000E+00 -0.1038244E-23
 0.3233000E+00 -0.8491823E-24
 0.3244000E+00 -0.2202361E-24
 0.3255000E+00  0.6308474E-24
 0.3266000E+00  0.1341271E-23
 0.3277000E+00  0.1542633E-23
 0.3288000E+00  0.1029138E-23
 0.3299000E+00 -0.1161066E-24
 0.3310000E+00 -0.1501290E-23
 0.3321000E+00 -0.2541096E-23
 0.3332000E+00 -0.2680292E-23
 0.3343000E+00 -0.1646242E-23
 0.3354000E+00  0.3758060E-24
 0.3365000E+00  0.2735175E-23
 0.3376000E+00  0.4508360E-23
 0.3387000E+00  0.4842277E-23
 0.3398000E+00  0.3325192E-23
 0.3409000E+00  0.2308568E-24
 0.3420000E+00 -0.3487826E-23
 0.3431000E+00 -0.6490064E-23
 0.3442000E+00 -0.7540445E-23
 0.3453000E+00 -0.6022854E-23
 0.3464000E+00 -0.2259916E-23
 0.3475000E+00  0.2522116E-23
 0.3486000E+00  0.6610818E-23
 0.3497000E+00  0.8472867E-23
 0.3508000E+00  0.7407355E-23
 0.3519000E+00  0.3899920E-23
 0.3530000E+00 -0.5135894E-24
 0.3541000E+00 -0.3870761E-23
 0.3552000E+00 -0.4670251E-23
 0.3563000E+00 -0.2648746E-23
 0.3574000E+00  0.9318060E-24
 0.3585000E+00  0.3699002E-23
 0.3596000E+00  0.3209683E-23
 0.3607000E+00 -0.1764367E-23
 0.3618000E+00 -0.1026454E-22
 0.3629000E+00 -0.1900693E-22
 0.3640000E+00 -0.2331732E-22
 0.3651000E+00 -0.1894440E-22
 0.3662000E+00 -0.4130749E-23
 0.3673000E+00  0.1890860E-22
 0.3684000E+00  0.4385313E-22
 0.3695000E+00  0.6181025E-22
 0.3706000E+00  0.6419990E-22
 0.3717000E+00  0.4607276E-22
 0.3728000E+00  0.8631358E-23
 0.3739000E+00 -0.4013299E-22
 0.3750000E+00 -0.8717563E-22
 0.3761000E+00 -0.1181324E-21
 0.3772000E+00 -0.1218750E-21
 0.3783000E+00 -0.9429865E-22
 0.3794000E+00 -0.3993922E-22
 0.3805000E+00  0.2923074E-22
 0.3816000E+00  0.9741844E-22
 0.3827000E+00  0.1496886E-21
 0.3838000E+00  0.1759303E-21
 0.3849000E+00  0.1726522E-21
 0.3860000E+00  0.1421090E-21
 0.3871000E+00  0.8948314E-22
 0.3882000E+00  0.1979343E-22
 0.3893000E+00 -0.6360023E-22
 0.3904000E+00 -0.1577613E-21
 0.3915000E+00 -0.2565106E-21
 0.3926000E+00 -0.3461738E-21
 0.3937000E+00 -0.4035106E-21
 0.3948000E+00 -0.3983143E-21
 0.3959000E+00 -0.3015935E-21
 0.3970000E+00 -0.9780672E-22
 0.3981000E+00  0.2027406E-21
 0.3992000E+00  0.5564685E-21
 0.4003000E+00  0.8885531E-21
 0.4014000E+00  0.1106295E-20
 0.4025000E+00  0.1121856E-20
 0.4036000E+00  0.8786413E-21
 0.4047000E+00  0.3734107E-21
 0.4058000E+00 -0.3333578E-21
 0.4069000E+00 -0.1123201E-20
 0.4080000E+00 -0.1840947E-20
 0.4091000E+00 -0.2326065E-20
 0.4102000E+00 -0.2445574E-20
 0.4113000E+00 -0.2120036E-20
 0.4124000E+00 -0.1337343E-20
 0.4135000E+00 -0.1540303E-21
 0.4146000E+00  0.1311579E-20
 0.4157000E+00  0.2888063E-20
 0.4168000E+00  0.4357016E-20
 0.4179000E+00  0.5457412E-20
 0.4190000E+00  0.5895521E-20
 0.4201000E+00  0.5371917E-20
 0.4212000E+00  0.3636043E-20
 0.4223000E+00  0.5708603E-21
 0.4234000E+00 -0.3703678E-20
 0.4245000E+00 -0.8735279E-20
 0.4256000E+00 -0.1369098E-19
 0.4267000E+00 -0.1739692E-19
 0.4278000E+00 -0.1849582E-19
 0.4289000E+00 -0.1572625E-19
 0.4300000E+00 -0.8291887E-20
 0.4311000E+00  0.3748493E-20
 0.4322000E+00  0.1916981E-19
 0.4333000E+00  0.3545934E-19
 0.4344000E+00  0.4898285E-19
 0.4355000E+00  0.5549329E-19
 0.4366000E+00  0.5096968E-19
 0.4377000E+00  0.3268834E-19
 0.4388000E+00  0.3414893E-21
 0.4399000E+00 -0.4305405E-19
 0.4410000E+00 -0.9075019E-19
 0.4421000E+00 -0.1326338E-18
 0.4432000E+00 -0.1565433E-18
 0.4443000E+00 -0.1505451E-18
 0.4454000E+00 -0.1059457E-18
 0.4465000E+00 -0.2055461E-19
 0.4476000E+00  0.9852634E-19
 0.4487000E+00  0.2334523E-18
 0.4498000E+00  0.3563631E-18
 0.4509000E+00  0.4328745E-18
 0.4520000E+00  0.4284199E-18
 0.4531000E+00  0.3168293E-18
 0.4542000E+00  0.8974148E-19
 0.4553000E+00 -0.2352567E-18
 0.4564000E+00 -0.6102656E-18
 0.4575000E+00 -0.9588701E-18
 0.4586000E+00 -0.1185714E-17
 0.4597000E+00 -0.1194020E-17
 0.4608000E+00 -0.9092749E-18
 0.4619000E+00 -0.3051381E-18
 0.4630000E+00  0.5741692E-18
 0.4641000E+00  0.1601737E-17
 0.4652000E+00  0.2572406E-17
 0.4663000E+00  0.3227989E-17
 0.4674000E+00  0.3303678E-17
 0.4685000E+00  0.2590945E-17
 0.4696000E+00  0.1006791E-17
 0.4707000E+00 -0.1345579E-17
 0.4718000E+00 -0.4142078E-17
 0.4729000E+00 -0.6845622E-17
 0.4740000E+00 -0.8768030E-17
 0.4751000E+00 -0.9187937E-17
 0.4762000E+00 -0.7513969E-17
 0.4773000E+00 -0.3468302E-17
 0.4784000E+00  0.2746774E-17
 0.4795000E+00  0.1034415E-16
 0.4806000E+00  0.1795307E-16
 0.4817000E+00  0.2375887E-16
 0.4828000E+00  0.2579130E-16
 0.4839000E+00  0.2234003E-16
 0.4850000E+00  0.1243950E-16
 0.4861000E+00 -0.3668542E-17
 0.4872000E+00 -0.2420883E-16
 0.4883000E+00 -0.4580061E-16
 0.4894000E+00 -0.6373465E-16
 0.4905000E+00 -0.7264290E-16
 0.4916000E+00 -0.6752823E-16
 0.4927000E+00 -0.4502949E-16
 0.4938000E+00 -0.4706632E-17
 0.4949000E+00  0.4993939E-16
 0.4960000E+00  0.1110228E-15
 0.4971000E+00  0.1666810E-15
 0.4982000E+00  0.2025025E-15
 0.4993000E+00  0.2039669E-15
 0.5004000E+00  0.1596613E-15
 0.5015000E+00  0.6479894E-16
 0.5026000E+00 -0.7564659E-16
 0.5037000E+00 -0.2449941E-15
 0.5048000E+00 -0.4148812E-15
 0.5059000E+00 -0.5478536E-15
 0.5070000E+00 -0.6027297E-15
 0.5081000E+00 -0.5424169E-15
 0.5092000E+00 -0.3432331E-15
 0.5103000E+00 -0.4189439E-17
 0.5114000E+00  0.4457653E-15
 0.5125000E+00  0.9446891E-15
 0.5136000E+00  0.1400685E-14
 0.5147000E+00  0.1702214E-14
 0.5158000E+00  0.1735685E-14
 0.5169000E+00  0.1408818E-14
 0.5180000E+00  0.6765986E-15
 0.5191000E+00 -0.4347667E-15
 0.5202000E+00 -0.1811483E-14
 0.5213000E+00 -0.3248991E-14
 0.5224000E+00 -0.4466563E-14
 0.5235000E+00 -0.5141911E-14
 0.5246000E+00 -0.4964689E-14
 0.5257000E+00 -0.3703584E-14
 0.5268000E+00 -0.1277409E-14
 0.5279000E+00  0.2182907E-14
 0.5290000E+00  0.6296552E-14
 0.5301000E+00  0.1043391E-13
 0.5312000E+00  0.1376759E-13
 0.5323000E+00  0.1537785E-13
 0.5334000E+00  0.1440745E-13
 0.5345000E+00  0.1024981E-13
 0.5356000E+00  0.2743421E-14
 0.5367000E+00 -0.7663714E-14
 0.5378000E+00 -0.1981985E-13
 0.5389000E+00 -0.3188405E-13
 0.5400000E+00 -0.4147772E-13
 0.5411000E+00 -0.4598337E-13
 0.5422000E+00 -0.4297565E-13
 0.5433000E+00 -0.3074047E-13
 0.5444000E+00 -0.8809393E-14
 0.5455000E+00  0.2158684E-13
 0.5466000E+00  0.5725318E-13
 0.5477000E+00  0.9305572E-13
 0.5488000E+00  0.1223144E-12
 0.5499000E+00  0.1375930E-12
 0.5510000E+00  0.1318525E-12
 0.5521000E+00  0.9985793E-13
 0.5532000E+00  0.3965328E-13
 0.5543000E+00 -0.4614268E-13
 0.5554000E+00 -0.1495020E-12
 0.5565000E+00 -0.2568899E-12
 0.5576000E+00 -0.3501224E-12
 0.5587000E+00 -0.4082863E-12
 0.5598000E+00 -0.4106728E-12
 0.5609000E+00 -0.3404834E-12
 0.5620000E+00 -0.1888706E-12
 0.5631000E+00  0.4129529E-13
 0.5642000E+00  0.3326566E-12
 0.5653000E+00  0.6523338E-12
 0.5664000E+00  0.9532609E-12
 0.5675000E+00  0.1178292E-11
 0.5686000E+00  0.1267108E-11
 0.5697000E+00  0.1165514E-11
 0.5708000E+00  0.8361769E-12
 0.5719000E+00  0.2694388E-12
 0.5730000E+00 -0.5075907E-12
 0.5741000E+00 -0.1425560E-11
 0.5752000E+00 -0.2372846E-11
 0.5763000E+00 -0.3202358E-11
 0.5774000E+00 -0.3745805E-11
 0.5785000E+00 -0.3835049E-11
 0.5796000E+00 -0.3328932E-11
 0.5807000E+00 -0.2142724E-11
 0.5818000E+00 -0.2762633E-12
 0.5829000E+00  0.2163915E-11
 0.5840000E+00  0.4953331E-11
 0.5851000E+00  0.7753561E-11
 0.5862000E+00  0.1013459E-10
 0.5873000E+00  0.1161657E-10
 0.5884000E+00  0.1172936E-10
 0.5895000E+00  0.1008537E-10
 0.5906000E+00  0.6457917E-11
 0.5917000E+00  0.8551725E-12
 0.5928000E+00 -0.6422184E-11
 0.5939000E+00 -0.1475165E-10
 0.5950000E+00 -0.2319859E-10
 0.5961000E+00 -0.3057257E-10
 0.5972000E+00 -0.3553286E-10
 0.5983000E+00 -0.3673976E-10
 0.5994000E+00 -0.3304090E-10
 0.6005000E+00 -0.2367509E-10
 0.6016000E+00 -0.8469885E-11
 0.6027000E+00  0.1199496E-10
 0.6038000E+00  0.3628702E-10
 0.6049000E+00  0.6211055E-10
 0.6060000E+00  0.8640612E-10
 0.6071000E+00  0.1055707E-09
 0.6082000E+00  0.1157955E-09
 0.6093000E+00  0.1135029E-09
 0.6104000E+00  0.9584866E-10
 0.6115000E+00  0.6124016E-10
 0.6126000E+00  0.9811629E-11
 0.6137000E+00 -0.5621005E-10
 0.6148000E+00 -0.1323129E-09
 0.6159000E+00 -0.2117366E-09
 0.6170000E+00 -0.2857782E-09
 0.6181000E+00 -0.3443818E-09
 0.6192000E+00 -0.3769991E-09
 0.6203000E+00 -0.3736753E-09
 0.6214000E+00 -0.3262842E-09
 0.6225000E+00 -0.2298059E-09
 0.6236000E+00 -0.8352288E-10
 0.6247000E+00  0.1080015E-09
 0.6258000E+00  0.3342951E-09
 0.6269000E+00  0.5788149E-09
 0.6280000E+00  0.8193368E-09
 0.6291000E+00  0.1028942E-08
 0.6302000E+00  0.1177593E-08
 0.6313000E+00  0.1234247E-08
 0.6324000E+00  0.1169386E-08
 0.6335000E+00  0.9578273E-09
 0.6346000E+00  0.5816048E-09
 0.6357000E+00  0.3274585E-10
 0.6368000E+00 -0.6842739E-09
 0.6379000E+00 -0.1550554E-08
 0.6390000E+00 -0.2531401E-08
 0.6401000E+00 -0.3575619E-08
 0.6412000E+00 -0.4615439E-08
 0.6423000E+00 -0.5566974E-08
 0.6434000E+00 -0.6331010E-08
 0.6445000E+00 -0.6793828E-08
 0.6456000E+00 -0.6827714E-08
 0.6467000E+00 -0.6290738E-08
 0.6478000E+00 -0.5025342E-08
 0.6489000E+00 -0.2855275E-08
 0.6500000E+00  0.4196070E-09
 0.6511000E+00  0.5031105E-08
 0.6522000E+00  0.1125348E-07
 0.6533000E+00  0.1941767E-07
 0.6544000E+00  0.2992937E-07
 0.6555000E+00  0.4329133E-07
 0.6566000E+00  0.6013028E-07
 0.6577000E+00  0.8122905E-07
 0.6588000E+00  0.1075642E-06
 0.6599000E+00  0.1403499E-06
 0.6610000E+00  0.1810888E-06
 0.6621000E+00  0.2316306E-06
 0.6632000E+00  0.2942396E-06
 0.6643000E+00  0.3716722E-06
 0.6654000E+00  0.4672661E-06
 0.6665000E+00  0.5850427E-06
 0.6676000E+00  0.7298232E-06
 0.6687000E+00  0.9073624E-06
 0.6698000E+00  0.1124500E-05
 0.6709000E+00  0.1389331E-05
 0.6720000E+00  0.1711400E-05
 0.6731000E+00  0.2101917E-05
 0.6742000E+00  0.2573996E-05
 0.6753000E+00  0.3142924E-05
 0.6764000E+00  0.3826454E-05
 0.6775000E+00  0.4645122E-05
 0.6786000E+00  0.5622591E-05
 0.6797000E+00  0.6786021E-05
 0.6808000E+00  0.8166460E-05
 0.6819000E+00  0.9799250E-05
 0.6830000E+00  0.1172445E-04
 0.6841000E+00  0.1398726E-04
 0.6852000E+00  0.1663846E-04
 0.6863000E+00  0.1973483E-04
 0.6874000E+00  0.2333951E-04
 0.6885000E+00  0.2752245E-04
 0.6896000E+00  0.3236064E-04
 0.6907000E+00  0.3793841E-04
 0.6918000E+00  0.4434761E-04
 0.6929000E+00  0.5168763E-04
 0.6940000E+00  0.6006539E-04
 0.6951000E+00  0.6959514E-04
 0.6962000E+00  0.8039802E-04
 0.6973000E+00  0.9260161E-04
 0.6984000E+00  0.1063390E-03
 0.6995000E+00  0.1217478E-03
 0.7006000E+00  0.1389691E-03
 0.7017000E+00  0.1581453E-03
 0.7028000E+00  0.1794187E-03
 0.7039000E+00  0.2029294E-03
 0.7050000E+00  0.2288120E-03
 0.7061000E+00  0.2571936E-03
 0.7072000E+00  0.2881902E-03
 0.7083000E+00  0.3219032E-03
 0.7094000E+00  0.3584157E-03
 0.7105000E+00  0.3977882E-03
 0.7116000E+00  0.4400548E-03
 0.7127000E+00  0.4852182E-03
 0.7138000E+00  0.5332458E-03
 0.7149000E+00  0.5840645E-03
 0.7160000E+00  0.6375569E-03
 0.7171000E+00  0.6935564E-03
 0.7182000E+00  0.7518435E-03
 0.7193000E+00  0.8121420E-03
 0.7204000E+00  0.8741159E-03
 0.7215000E+00  0.9373671E-03
 0.7226000E+00  0.1001434E-02
 0.7237000E+00  0.1065789E-02
 0.7248000E+00  0.1129841E-02
 0.7259000E+00  0.1192935E-02
 0.7270000E+00  0.1254355E-02
 0.7281000E+00  0.1313329E-02
 0.7292000E+00  0.1369031E-02
 0.7303000E+00  0.1420592E-02
 0.7314000E+00  0.1467104E-02
 0.7325000E+00  0.1507631E-02
 0.7336000E+00  0.1541220E-02
 0.7347000E+00  0.1566912E-02
 0.7358000E+00  0.1583757E-02
 0.7369000E+00  0.1590825E-02
 0.7380000E+00  0.1587223E-02
 0.7391000E+00  0.1572110E-02
 0.7402000E+00  0.1544713E-02
 0.7413000E+00  0.1504344E-02
 0.7424000E+00  0.1450411E-02
 0.7435000E+00  0.1382440E-02
 0.7446000E+00  0.1300083E-02
 0.7457000E+00  0.1203135E-02
 0.7468000E+00  0.1091545E-02
 0.7479000E+00  0.9654235E-03
 0.7490000E+00  0.8250530E-03
 0.7501000E+00  0.6708918E-03
 0.7512000E+00  0.5035771E-03
 0.7523000E+00  0.3239248E-03
 0.7534000E+00  0.1329270E-03
 0.7545000E+00 -0.6825411E-04
 0.7556000E+00 -0.2782947E-03
 0.7567000E+00 -0.4957212E-03
 0.7578000E+00 -0.7189249E-03
 0.7589000E+00 -0.9461787E-03
 0.7600000E+00 -0.1175657E-02
 0.7611000E+00 -0.1405457E-02
 0.7622000E+00 -0.1633623E-02
 0.7633000E+00 -0.1858172E-02
 0.7644000E+00 -0.2077115E-02
 0.7655000E+00 -0.2288490E-02
 0.7666000E+00 -0.2490384E-02
 0.7677000E+00 -0.2680960E-02
 0.7688000E+00 -0.2858482E-02
 0.7699000E+00 -0.3021341E-02
 0.7710000E+00 -0.3168072E-02
 0.7721000E+00 -0.3297383E-02
 0.7732000E+00 -0.3408161E-02
 0.7743000E+00 -0.3499495E-02
 0.7754000E+00 -0.3570684E-02
 0.7765000E+00 -0.3621245E-02
 0.7776000E+00 -0.3650916E-02
 0.7787000E+00 -0.3659660E-02
 0.7798000E+00 -0.3647663E-02
 0.7809000E+00 -0.3615327E-02
 0.7820000E+00 -0.3563261E-02
 0.7831000E+00 -0.3492269E-02
 0.7842000E+00 -0.3403335E-02
 0.7853000E+00 -0.3297606E-02
 0.7864000E+00 -0.3176376E-02
 0.7875000E+00 -0.3041059E-02
 0.7886000E+00 -0.2893173E-02
 0.7897000E+00 -0.2734317E-02
 0.7908000E+00 -0.2566143E-02
 0.7919000E+00 -0.2390339E-02
 0.7930000E+00 -0.2208599E-02
 0.7941000E+00 -0.2022609E-02
 0.7952000E+00 -0.1834019E-02
 0.7963000E+00 -0.1644430E-02
 0.7974000E+00 -0.1455373E-02
 0.7985000E+00 -0.1268294E-02
 0.7996000E+00 -0.1084540E-02
 0.8007000E+00 -0.9053501E-03
 0.8018000E+00 -0.7318428E-03
 0.8029000E+00 -0.5650117E-03
 0.8040000E+00 -0.4057202E-03
 0.8051000E+00 -0.2546998E-03
 0.8062000E+00 -0.1125499E-03
 0.8073000E+00  0.2026055E-04
 0.8084000E+00  0.1433896E-03
 0.8095000E+00  0.2566169E-03
 0.8106000E+00  0.3598368E-03
 0.8117000E+00  0.4530510E-03
 0.8128000E+00  0.5363597E-03
 0.8139000E+00  0.6099524E-03
 0.8150000E+00  0.6740985E-03
 0.8161000E+00  0.7291363E-03
 0.8172000E+00  0.7754629E-03
 0.8183000E+00  0.8135241E-03
 0.8194000E+00  0.8438032E-03
 0.8205000E+00  0.8668133E-03
 0.8216000E+00  0.8830871E-03
 0.8227000E+00  0.8931698E-03
 0.8238000E+00  0.8976113E-03
 0.8249000E+00  0.8969585E-03
 0.8260000E+00  0.8917490E-03
 0.8271000E+00  0.8825060E-03
 0.8282000E+00  0.8697326E-03
 0.8293000E+00  0.8539090E-03
 0.8304000E+00  0.8354899E-03
 0.8315000E+00  0.8149026E-03
 0.8326000E+00  0.7925451E-03
 0.8337000E+00  0.7687851E-03
 0.8348000E+00  0.7439587E-03
 0.8359000E+00  0.7183706E-03
 0.8370000E+00  0.6922942E-03
 0.8381000E+00  0.6659731E-03
 0.8392000E+00  0.6396222E-03
 0.8403000E+00  0.6134299E-03
 0.8414000E+00  0.5875595E-03
 0.8425000E+00  0.5621501E-03
 0.8436000E+00  0.5373184E-03
 0.8447000E+00  0.5131601E-03
 0.8458000E+00  0.4897519E-03
 0.8469000E+00  0.4671540E-03
 0.8480000E+00  0.4454117E-03
 0.8491000E+00  0.4245580E-03
 0.8502000E+00  0.4046143E-03
 0.8513000E+00  0.3855925E-03
 0.8524000E+00  0.3674958E-03
 0.8535000E+00  0.3503200E-03
 0.8546000E+00  0.3340552E-03
 0.8557000E+00  0.3186867E-03
 0.8568000E+00  0.3041965E-03
 0.8579000E+00  0.2905641E-03
 0.8590000E+00  0.2777674E-03
 0.8601000E+00  0.2657834E-03
 0.8612000E+00  0.2545886E-03
 0.8623000E+00  0.2441591E-03
 0.8634000E+00  0.2344713E-03
 0.8645000E+00  0.2255015E-03
 0.8656000E+00  0.2172267E-03
 0.8667000E+00  0.2096244E-03
 0.8678000E+00  0.2026727E-03
 0.8689000E+00  0.1963502E-03
 0.8700000E+00  0.1906356E-03
 0.8711000E+00  0.1855070E-03
 0.8722000E+00  0.1809416E-03
 0.8733000E+00  0.1769150E-03
 0.8744000E+00  0.1734005E-03
 0.8755000E+00  0.1703694E-03
 0.8766000E+00  0.1677902E-03
 0.8777000E+00  0.1656283E-03
 0.8788000E+00  0.1638453E-03
 0.8799000E+00  0.1623990E-03
 0.8810000E+00  0.1612421E-03
 0.8821000E+00  0.1603226E-03
 0.8832000E+00  0.1595836E-03
 0.8843000E+00  0.1589639E-03
 0.8854000E+00  0.1583976E-03
 0.8865000E+00  0.1578150E-03
 0.8876000E+00  0.1571430E-03
 0.8887000E+00  0.1563051E-03
 0.8898000E+00  0.1552224E-03
 0.8909000E+00  0.1538145E-03
 0.8920000E+00  0.1520007E-03
 0.8931000E+00  0.1497006E-03
 0.8942000E+00  0.1468359E-03
 0.8953000E+00  0.1433307E-03
 0.8964000E+00  0.1391134E-03
 0.8975000E+00  0.1341174E-03
 0.8986000E+00  0.1282827E-03
 0.8997000E+00  0.1215568E-03
 0.9008000E+00  0.1138952E-03
 0.9019000E+00  0.1052623E-03
 0.9030000E+00  0.9563193E-04
 0.9041000E+00  0.8498746E-04
 0.9052000E+00  0.7332276E-04
 0.9063000E+00  0.6064228E-04
 0.9074000E+00  0.4696089E-04
 0.9085000E+00  0.3230323E-04
 0.9096000E+00  0.1670244E-04
 0.9107000E+00  0.1989274E-06
 0.9118000E+00 -0.1716104E-04
 0.9129000E+00 -0.3532653E-04
 0.9140000E+00 -0.5424316E-04
 0.9151000E+00 -0.7385472E-04
 0.9162000E+00 -0.9410553E-04
 0.9173000E+00 -0.1149432E-03
 0.9184000E+00 -0.1363220E-03
 0.9195000E+00 -0.1582055E-03
 0.9206000E+00 -0.1805696E-03
 0.9217000E+00 -0.2034048E-03
 0.9228000E+00 -0.2267184E-03
 0.9239000E+00 -0.2505376E-03
 0.9250000E+00 -0.2749122E-03
 0.9261000E+00 -0.2999184E-03
 0.9272000E+00 -0.3256623E-03
 0.9283000E+00 -0.3522820E-03
 0.9294000E+00 -0.3799503E-03
 0.9305000E+00 -0.4088757E-03
 0.9316000E+00 -0.4393037E-03
 0.9327000E+00 -0.4715183E-03
 0.9338000E+00 -0.5058430E-03
 0.9349000E+00 -0.5426422E-03
 0.9360000E+00 -0.5823208E-03
 0.9371000E+00 -0.6253239E-03
 0.9382000E+00 -0.6721339E-03
 0.9393000E+00 -0.7232680E-03
 0.9404000E+00 -0.7792744E-03
 0.9415000E+00 -0.8407278E-03
 0.9426000E+00 -0.9082244E-03
 0.9437000E+00 -0.9823753E-03
 0.9448000E+00 -0.1063800E-02
 0.9459000E+00 -0.1153114E-02
 0.9470000E+00 -0.1250925E-02
 0.9481000E+00 -0.1357813E-02
 0.9492000E+00 -0.1474323E-02
 0.9503000E+00 -0.1600950E-02
 0.9514000E+00 -0.1738122E-02
 0.9525000E+00 -0.1886190E-02
 0.9536000E+00 -0.2045407E-02
 0.9547000E+00 -0.2215917E-02
 0.9558000E+00 -0.2397732E-02
 0.9569000E+00 -0.2590720E-02
 0.9580000E+00 -0.2794584E-02
 0.9591000E+00 -0.3008853E-02
 0.9602000E+00 -0.3232862E-02
 0.9613000E+00 -0.3465745E-02
 0.9624000E+00 -0.3706421E-02
 0.9635000E+00 -0.3953589E-02
 0.9646000E+00 -0.4205721E-02
 0.9657000E+00 -0.4461061E-02
 0.9668000E+00 -0.4717628E-02
 0.9679000E+00 -0.4973216E-02
 0.9690000E+00 -0.5225413E-02
 0.9701000E+00 -0.5471608E-02
 0.9712000E+00 -0.5709018E-02
 0.9723000E+00 -0.5934703E-02
 0.9734000E+00 -0.6145603E-02
 0.9745000E+00 -0.6338563E-02
 0.9756000E+00 -0.6510374E-02
 0.9767000E+00 -0.6657815E-02
 0.9778000E+00 -0.6777692E-02
 0.9789000E+00 -0.6866890E-02