-0.1200000E+00  0.0000000E+00
-0.1189000E+00  0.0000000E+00
-0.1178000E+00  0.0000000E+00
-0.1167000E+00  0.0000000E+00
-0.1156000E+00  0.0000000E+00
-0.1145000E+00  0.0000000E+00
-0.1134000E+00  0.0000000E+00
-0.1123000E+00  0.0000000E+00
-0.1112000E+00  0.0000000E+00
-0.1101000E+00  0.0000000E+00
-0.1090000E+00  0.0000000E+00
-0.1079000E+00  0.0000000E+00
-0.1068000E+00  0.0000000E+00
-0.1057000E+00  0.0000000E+00
-0.1046000E+00  0.0000000E+00
-0.1035000E+00  0.0000000E+00
-0.1024000E+00  0.0000000E+00
-0.1013000E+00  0.0000000E+00
-0.1002000E+00  0.0000000E+00
-0.9910000E-01  0.0000000E+00
-0.9800000E-01  0.0000000E+00
-0.9690000E-01  0.0000000E+00
-0.9580000E-01  0.0000000E+00
-0.9470000E-01  0.0000000E+00
-0.9360000E-01  0.0000000E+00
-0.9250000E-01  0.0000000E+00
-0.9140000E-01  0.0000000E+00
-0.9030000E-01  0.0000000E+00
-0.8920000E-01  0.0000000E+00
-0.8810000E-01  0.0000000E+00
-0.8700000E-01  0.0000000E+00
-0.8590000E-01  0.0000000E+00
-0.8480000E-01  0.0000000E+00
-0.8370000E-01  0.0000000E+00
-0.8260000E-01  0.0000000E+00
-0.8150000E-01  0.0000000E+00
-0.8040000E-01  0.0000000E+00
-0.7930000E-01  0.0000000E+00
-0.7820000E-01  0.0000000E+00
-0.7710000E-01  0.0000000E+00
-0.7600000E-01  0.0000000E+00
-0.7490000E-01  0.0000000E+00
-0.7380000E-01  0.0000000E+00
-0.7270000E-01  0.0000000E+00
-0.7160000E-01  0.0000000E+00
-0.7050000E-01  0.0000000E+00
-0.6940000E-01  0.0000000E+00
-0.6830000E-01  0.0000000E+00
-0.6720000E-01  0.0000000E+00
-0.6610000E-01  0.0000000E+00
-0.6500000E-01  0.0000000E+00
-0.6390000E-01  0.0000000E+00
-0.6280000E-01  0.0000000E+00
-0.6170000E-01  0.0000000E+00
-0.6060000E-01  0.0000000E+00
-0.5950000E-01  0.0000000E+00
-0.5840000E-01  0.0000000E+00
-0.5730000E-01  0.0000000E+00
-0.5620000E-01  0.0000000E+00
-0.5510000E-01  0.0000000E+00
-0.5400000E-01  0.0000000E+00
-0.5290000E-01  0.0000000E+00
-0.5180000E-01  0.0000000E+00
-0.5070000E-01  0.0000000E+00
-0.4960000E-01  0.0000000E+00
-0.4850000E-01  0.0000000E+00
-0.4740000E-01  0.0000000E+00
-0.4630000E-01  0.0000000E+00
-0.4520000E-01  0.0000000E+00
-0.4410000E-01  0.0000000E+00
-0.4300000E-01  0.0000000E+00
-0.4190000E-01  0.0000000E+00
-0.4080000E-01  0.0000000E+00
-0.3970000E-01  0.0000000E+00
-0.3860000E-01  0.0000000E+00
-0.3750000E-01  0.0000000E+00
-0.3640000E-01  0.0000000E+00
-0.3530000E-01  0.0000000E+00
-0.3420000E-01  0.0000000E+00
-0.3310000E-01  0.0000000E+00
-0.3200000E-01  0.0000000E+00
-0.3090000E-01  0.0000000E+00
-0.2980000E-01  0.0000000E+00
-0.2870000E-01  0.0000000E+00
-0.2760000E-01  0.0000000E+00
-0.2650000E-01  0.0000000E+00
-0.2540000E-01  0.0000000E+00
-0.2430000E-01  0.0000000E+00
-0.2320000E-01  0.0000000E+00
-0.2210000E-01  0.0000000E+00
-0.2100000E-01  0.0000000E+00
-0.1990000E-01  0.0000000E+00
-0.1880000E-01  0.0000000E+00
-0.1770000E-01  0.0000000E+00
-0.1660000E-01  0.0000000E+00
-0.1550000E-01  0.0000000E+00
-0.1440000E-01  0.0000000E+00
-0.1330000E-01  0.0000000E+00
-0.1220000E-01  0.0000000E+00
-0.1110000E-01  0.0000000E+00
-0.1000000E-01  0.0000000E+00
-0.8900000E-02  0.0000000E+00
-0.7800000E-02  0.0000000E+00
-0.6700000E-02  0.0000000E+00
-0.5600000E-02  0.0000000E+00
-0.4500000E-02  0.0000000E+00
-0.3400000E-02  0.0000000E+00
-0.2300000E-02  0.0000000E+00
-0.1200000E-02  0.0000000E+00
-0.1000000E-03  0.0000000E+00
 0.1000000E-02  0.0000000E+00
 0.2100000E-02  0.0000000E+00
 0.3200000E-02  0.0000000E+00
 0.4300000E-02  0.0000000E+00
 0.5400000E-02  0.0000000E+00
 0.6500000E-02  0.0000000E+00
 0.7600000E-02  0.0000000E+00
 0.8700000E-02  0.0000000E+00
 0.9800000E-02  0.0000000E+00
 0.1090000E-01  0.0000000E+00
 0.1200000E-01  0.0000000E+00
 0.1310000E-01  0.0000000E+00
 0.1420000E-01  0.0000000E+00
 0.1530000E-01  0.0000000E+00
 0.1640000E-01  0.0000000E+00
 0.1750000E-01  0.0000000E+00
 0.1860000E-01  0.0000000E+00
 0.1970000E-01  0.0000000E+00
 0.2080000E-01  0.0000000E+00
 0.2190000E-01  0.0000000E+00
 0.2300000E-01  0.0000000E+00
 0.2410000E-01  0.0000000E+00
 0.2520000E-01  0.0000000E+00
 0.2630000E-01  0.0000000E+00
 0.2740000E-01  0.0000000E+00
 0.2850000E-01  0.0000000E+00
 0.2960000E-01 -0.0000000E+00
 0.3070000E-01 -0.0000000E+00
 0.3180000E-01 -0.0000000E+00
 0.3290000E-01 -0.0000000E+00
 0.3400000E-01 -0.0000000E+00
 0.3510000E-01  0.0000000E+00
 0.3620000E-01  0.4457682E-37
 0.3730000E-01  0.7670773E-37
 0.3840000E-01  0.5781772E-37
 0.3950000E-01 -0.3850018E-37
 0.4060000E-01 -0.1723995E-36
 0.4170000E-01 -0.2838736E-36
 0.4280000E-01 -0.3001712E-36
 0.4390000E-01 -0.1659769E-36
 0.4500000E-01  0.1521187E-36
 0.4610000E-01  0.6485521E-36
 0.4720000E-01  0.1207534E-35
 0.4830000E-01  0.1481115E-35
 0.4940000E-01  0.9281669E-36
 0.5050000E-01 -0.9126185E-36
 0.5160000E-01 -0.3915050E-35
 0.5270000E-01 -0.6954546E-35
 0.5380000E-01 -0.7783597E-35
 0.5490000E-01 -0.3698826E-35
 0.5600000E-01  0.6847130E-35
 0.5710000E-01  0.2210261E-34
 0.5820000E-01  0.3535330E-34
 0.5930000E-01  0.3542570E-34
 0.6040000E-01  0.1078418E-34
 0.6150000E-01 -0.4265608E-34
 0.6260000E-01 -0.1124277E-33
 0.6370000E-01 -0.1643583E-33
 0.6480000E-01 -0.1482294E-33
 0.6590000E-01 -0.1902643E-34
 0.6700000E-01  0.2283274E-33
 0.6810000E-01  0.5237607E-33
 0.6920000E-01  0.7098131E-33
 0.7030000E-01  0.5783161E-33
 0.7140000E-01 -0.3116668E-34
 0.7250000E-01 -0.1089841E-32
 0.7360000E-01 -0.2256215E-32
 0.7470000E-01 -0.2864734E-32
 0.7580000E-01 -0.2115557E-32
 0.7690000E-01  0.5122261E-33
 0.7800000E-01  0.4729964E-32
 0.7910000E-01  0.9047011E-32
 0.8020000E-01  0.1086121E-31
 0.8130000E-01  0.7307494E-32
 0.8240000E-01 -0.3150582E-32
 0.8350000E-01 -0.1887645E-31
 0.8460000E-01 -0.3393471E-31
 0.8570000E-01 -0.3884765E-31
 0.8680000E-01 -0.2399527E-31
 0.8790000E-01  0.1470670E-31
 0.8900000E-01  0.6983029E-31
 0.9010000E-01  0.1195579E-30
 0.9120000E-01  0.1315450E-30
 0.9230000E-01  0.7536831E-31
 0.9340000E-01 -0.5857201E-31
 0.9450000E-01 -0.2409124E-30
 0.9560000E-01 -0.3969825E-30
 0.9670000E-01 -0.4228596E-30
 0.9780000E-01 -0.2275460E-30
 0.9890000E-01  0.2079693E-30
 0.1000000E+00  0.7789267E-30
 0.1011000E+00  0.1245807E-29
 0.1022000E+00  0.1292968E-29
 0.1033000E+00  0.6620920E-30
 0.1044000E+00 -0.6737305E-30
 0.1055000E+00 -0.2370520E-29
 0.1066000E+00 -0.3704259E-29
 0.1077000E+00 -0.3765505E-29
 0.1088000E+00 -0.1856467E-29
 0.1099000E+00  0.2022896E-29
 0.1110000E+00  0.6819514E-29
 0.1121000E+00  0.1046106E-28
 0.1132000E+00  0.1045413E-28
 0.1143000E+00  0.5001944E-29
 0.1154000E+00 -0.5704866E-29
 0.1165000E+00 -0.1863087E-28
 0.1176000E+00 -0.2813422E-28
 0.1187000E+00 -0.2769095E-28
 0.1198000E+00 -0.1288720E-28
 0.1209000E+00  0.1531053E-28
 0.1220000E+00  0.4859633E-28
 0.1231000E+00  0.7229491E-28
 0.1242000E+00  0.7006805E-28
 0.1253000E+00  0.3156920E-28
 0.1264000E+00 -0.3962441E-28
 0.1275000E+00 -0.1217805E-27
 0.1286000E+00 -0.1782594E-27
 0.1297000E+00 -0.1697688E-27
 0.1308000E+00 -0.7316391E-28
 0.1319000E+00  0.1000718E-27
 0.1330000E+00  0.2952205E-27
 0.1341000E+00  0.4240583E-27
 0.1352000E+00  0.3954887E-27
 0.1363000E+00  0.1600645E-27
 0.1374000E+00 -0.2484974E-27
 0.1385000E+00 -0.6969377E-27
 0.1396000E+00 -0.9794271E-27
 0.1407000E+00 -0.8914247E-27
 0.1418000E+00 -0.3317697E-27
 0.1429000E+00  0.6070543E-27
 0.1440000E+00  0.1610038E-26
 0.1451000E+00  0.2210005E-26
 0.1462000E+00  0.1959961E-26
 0.1473000E+00  0.6605485E-27
 0.1484000E+00 -0.1449184E-26
 0.1495000E+00 -0.3645393E-26
 0.1506000E+00 -0.4893573E-26
 0.1517000E+00 -0.4238587E-26
 0.1528000E+00 -0.1298241E-26
 0.1539000E+00  0.3343299E-26
 0.1550000E+00  0.8069876E-26
 0.1561000E+00  0.1064421E-25
 0.1572000E+00  0.9064516E-26
 0.1583000E+00  0.2609063E-26
 0.1594000E+00 -0.7369939E-26
 0.1605000E+00 -0.1737176E-25
 0.1616000E+00 -0.2267448E-25
 0.1627000E+00 -0.1916101E-25
 0.1638000E+00 -0.5475183E-26
 0.1649000E+00  0.1540914E-25
 0.1660000E+00  0.3614650E-25
 0.1671000E+00  0.4702874E-25
 0.1682000E+00  0.3976381E-25
 0.1693000E+00  0.1181418E-25
 0.1704000E+00 -0.3056836E-25
 0.1715000E+00 -0.7245279E-25
 0.1726000E+00 -0.9442574E-25
 0.1737000E+00 -0.8019094E-25
 0.1748000E+00 -0.2507868E-25
 0.1759000E+00  0.5822236E-25
 0.1770000E+00  0.1402280E-24
 0.1781000E+00  0.1831639E-24
 0.1792000E+00  0.1558595E-24
 0.1803000E+00  0.5003652E-25
 0.1814000E+00 -0.1091283E-24
 0.1825000E+00 -0.2647376E-24
 0.1836000E+00 -0.3450059E-24
 0.1847000E+00 -0.2918245E-24
 0.1858000E+00 -0.9130239E-25
 0.1869000E+00  0.2071961E-24
 0.1880000E+00  0.4955560E-24
 0.1891000E+00  0.6395980E-24
 0.1902000E+00  0.5329573E-24
 0.1913000E+00  0.1534750E-24
 0.1924000E+00 -0.4029679E-24
 0.1935000E+00 -0.9329246E-24
 0.1946000E+00 -0.1187737E-23
 0.1957000E+00 -0.9737974E-24
 0.1968000E+00 -0.2556660E-24
 0.1979000E+00  0.7838971E-24
 0.1990000E+00  0.1765911E-23
 0.2001000E+00  0.2231577E-23
 0.2012000E+00  0.1826276E-23
 0.2023000E+00  0.4867937E-24
 0.2034000E+00 -0.1451187E-23
 0.2045000E+00 -0.3294459E-23
 0.2056000E+00 -0.4203370E-23
 0.2067000E+00 -0.3523327E-23
 0.2078000E+00 -0.1121297E-23
 0.2089000E+00  0.2419832E-23
 0.2100000E+00  0.5870710E-23
 0.2111000E+00  0.7724804E-23
 0.2122000E+00  0.6780790E-23
 0.2133000E+00  0.2736585E-23
 0.2144000E+00 -0.3460601E-23
 0.2155000E+00 -0.9718975E-23
 0.2166000E+00 -0.1342467E-22
 0.2177000E+00 -0.1243484E-22
 0.2188000E+00 -0.6098704E-23
 0.2199000E+00  0.4127303E-23
 0.2210000E+00  0.1482793E-22
 0.2221000E+00  0.2164924E-22
 0.2232000E+00  0.2094576E-22
 0.2243000E+00  0.1148398E-22
 0.2254000E+00 -0.4519434E-23
 0.2265000E+00 -0.2161778E-22
 0.2276000E+00 -0.3279109E-22
 0.2287000E+00 -0.3213480E-22
 0.2298000E+00 -0.1763983E-22
 0.2309000E+00  0.7120653E-23
 0.2320000E+00  0.3336617E-22
 0.2331000E+00  0.4983006E-22
 0.2342000E+00  0.4715509E-22
 0.2353000E+00  0.2241837E-22
 0.2364000E+00 -0.1815366E-22
 0.2375000E+00 -0.5986053E-22
 0.2386000E+00 -0.8405368E-22
 0.2397000E+00 -0.7541151E-22
 0.2408000E+00 -0.2943474E-22
 0.2419000E+00  0.4301756E-22
 0.2430000E+00  0.1167623E-21
 0.2441000E+00  0.1597035E-21
 0.2452000E+00  0.1448939E-21
 0.2463000E+00  0.6318242E-22
 0.2474000E+00 -0.6873572E-22
 0.2485000E+00 -0.2092230E-21
 0.2496000E+00 -0.3031003E-21
 0.2507000E+00 -0.3010598E-21
 0.2518000E+00 -0.1808046E-21
 0.2529000E+00  0.3832350E-22
 0.2540000E+00  0.2944119E-21
 0.2551000E+00  0.4987318E-21
 0.2562000E+00  0.5649849E-21
 0.2573000E+00  0.4428467E-21
 0.2584000E+00  0.1432909E-21
 0.2595000E+00 -0.2556532E-21
 0.2606000E+00 -0.6280884E-21
 0.2617000E+00 -0.8406576E-21
 0.2628000E+00 -0.8013948E-21
 0.2639000E+00 -0.4989666E-21
 0.2650000E+00 -0.1551633E-22
 0.2661000E+00  0.4953805E-21
 0.2672000E+00  0.8611339E-21
 0.2683000E+00  0.9553674E-21
 0.2694000E+00  0.7507368E-21
 0.2705000E+00  0.3358766E-21
 0.2716000E+00 -0.1150762E-21
 0.2727000E+00 -0.4132999E-21
 0.2738000E+00 -0.4408555E-21
 0.2749000E+00 -0.2149250E-21
 0.2760000E+00  0.1019491E-21
 0.2771000E+00  0.2600655E-21
 0.2782000E+00  0.3577394E-22
 0.2793000E+00 -0.6410226E-21
 0.2804000E+00 -0.1600697E-20
 0.2815000E+00 -0.2438470E-20
 0.2826000E+00 -0.2630355E-20
 0.2837000E+00 -0.1737565E-20
 0.2848000E+00  0.3666129E-21
 0.2859000E+00  0.3337967E-20
 0.2870000E+00  0.6353392E-20
 0.2881000E+00  0.8293808E-20
 0.2892000E+00  0.8090474E-20
 0.2903000E+00  0.5137479E-20
 0.2914000E+00 -0.3717658E-21
 0.2925000E+00 -0.7324571E-20
 0.2936000E+00 -0.1387077E-19
 0.2947000E+00 -0.1789502E-19
 0.2958000E+00 -0.1766123E-19
 0.2969000E+00 -0.1243146E-19
 0.2980000E+00 -0.2844012E-20
 0.2991000E+00  0.9106452E-20
 0.3002000E+00  0.2052222E-19
 0.3013000E+00  0.2837760E-19
 0.3024000E+00  0.3038318E-19
 0.3035000E+00  0.2565960E-19
 0.3046000E+00  0.1499190E-19
 0.3057000E+00  0.5737003E-21
 0.3068000E+00 -0.1466917E-19
 0.3079000E+00 -0.2792928E-19
 0.3090000E+00 -0.3722519E-19
 0.3101000E+00 -0.4169979E-19
 0.3112000E+00 -0.4140598E-19
 0.3123000E+00 -0.3669645E-19
 0.3134000E+00 -0.2752927E-19
 0.3145000E+00 -0.1308585E-19
 0.3156000E+00  0.7976823E-20
 0.3167000E+00  0.3654720E-19
 0.3178000E+00  0.7158088E-19
 0.3189000E+00  0.1086509E-18
 0.3200000E+00  0.1392212E-18
 0.3211000E+00  0.1512803E-18
 0.3222000E+00  0.1316762E-18
 0.3233000E+00  0.6999936E-19
 0.3244000E+00 -0.3670240E-19
 0.3255000E+00 -0.1795800E-18
 0.3266000E+00 -0.3354788E-18
 0.3277000E+00 -0.4676708E-18
 0.3288000E+00 -0.5307719E-18
 0.3299000E+00 -0.4799826E-18
 0.3310000E+00 -0.2837075E-18
 0.3321000E+00  0.6258643E-19
 0.3332000E+00  0.5245157E-18
 0.3343000E+00  0.1022884E-17
 0.3354000E+00  0.1437687E-17
 0.3365000E+00  0.1624921E-17
 0.3376000E+00  0.1446788E-17
 0.3387000E+00  0.8123859E-18
 0.3398000E+00 -0.2782761E-18
 0.3409000E+00 -0.1698188E-17
 0.3420000E+00 -0.3178948E-17
 0.3431000E+00 -0.4331326E-17
 0.3442000E+00 -0.4709170E-17
 0.3453000E+00 -0.3915509E-17
 0.3464000E+00 -0.1736411E-17
 0.3475000E+00  0.1726194E-17
 0.3486000E+00  0.5962870E-17
 0.3497000E+00  0.1004980E-16
 0.3508000E+00  0.1276165E-16
 0.3519000E+00  0.1281639E-16
 0.3530000E+00  0.9228971E-17
 0.3541000E+00  0.1709396E-17
 0.3552000E+00 -0.8996904E-17
 0.3563000E+00 -0.2094844E-16
 0.3574000E+00 -0.3113992E-16
 0.3585000E+00 -0.3599417E-16
 0.3596000E+00 -0.3219796E-16
 0.3607000E+00 -0.1775919E-16
 0.3618000E+00  0.6945182E-17
 0.3629000E+00  0.3843857E-16
 0.3640000E+00  0.7005436E-16
 0.3651000E+00  0.9273395E-16
 0.3662000E+00  0.9679079E-16
 0.3673000E+00  0.7446653E-16
 0.3684000E+00  0.2282092E-16
 0.3695000E+00 -0.5375408E-16
 0.3706000E+00 -0.1422362E-15
 0.3717000E+00 -0.2216708E-15
 0.3728000E+00 -0.2663431E-15
 0.3739000E+00 -0.2513699E-15
 0.3750000E+00 -0.1599618E-15
 0.3761000E+00  0.9104004E-17
 0.3772000E+00  0.2358031E-15
 0.3783000E+00  0.4771424E-15
 0.3794000E+00  0.6711885E-15
 0.3805000E+00  0.7476533E-15
 0.3816000E+00  0.6443165E-15
 0.3827000E+00  0.3267503E-15
 0.3838000E+00 -0.1929060E-15
 0.3849000E+00 -0.8434976E-15
 0.3860000E+00 -0.1494141E-14
 0.3871000E+00 -0.1969267E-14
 0.3882000E+00 -0.2080548E-14
 0.3893000E+00 -0.1672709E-14
 0.3904000E+00 -0.6756510E-15
 0.3915000E+00  0.8487868E-15
 0.3926000E+00  0.2679348E-14
 0.3937000E+00  0.4440474E-14
 0.3948000E+00  0.5649052E-14
 0.3959000E+00  0.5803978E-14
 0.3970000E+00  0.4509073E-14
 0.3981000E+00  0.1608542E-14
 0.3992000E+00 -0.2695480E-14
 0.4003000E+00 -0.7778500E-14
 0.4014000E+00 -0.1261502E-13
 0.4025000E+00 -0.1590684E-13
 0.4036000E+00 -0.1631932E-13
 0.4047000E+00 -0.1280034E-13
 0.4058000E+00 -0.4928789E-14
 0.4069000E+00  0.6783416E-14
 0.4080000E+00  0.2072335E-13
 0.4091000E+00  0.3422373E-13
 0.4102000E+00  0.4387719E-13
 0.4113000E+00  0.4612291E-13
 0.4124000E+00  0.3804669E-13
 0.4135000E+00  0.1826906E-13
 0.4146000E+00 -0.1226140E-13
 0.4157000E+00 -0.4978172E-13
 0.4168000E+00 -0.8773697E-13
 0.4179000E+00 -0.1174530E-12
 0.4190000E+00 -0.1294924E-12
 0.4201000E+00 -0.1155798E-12
 0.4212000E+00 -0.7082424E-13
 0.4223000E+00  0.4176969E-14
 0.4234000E+00  0.1018558E-12
 0.4245000E+00  0.2073141E-12
 0.4256000E+00  0.2994785E-12
 0.4267000E+00  0.3539367E-12
 0.4278000E+00  0.3473001E-12
 0.4289000E+00  0.2625704E-12
 0.4300000E+00  0.9463108E-13
 0.4311000E+00 -0.1452704E-12
 0.4322000E+00 -0.4272692E-12
 0.4333000E+00 -0.7039289E-12
 0.4344000E+00 -0.9152472E-12
 0.4355000E+00 -0.9976329E-12
 0.4366000E+00 -0.8960568E-12
 0.4377000E+00 -0.5777274E-12
 0.4388000E+00 -0.4491745E-13
 0.4399000E+00  0.6558574E-12
 0.4410000E+00  0.1431082E-11
 0.4421000E+00  0.2146101E-11
 0.4432000E+00  0.2640645E-11
 0.4443000E+00  0.2753435E-11
 0.4454000E+00  0.2353412E-11
 0.4465000E+00  0.1373237E-11
 0.4476000E+00 -0.1607589E-12
 0.4487000E+00 -0.2108719E-11
 0.4498000E+00 -0.4213740E-11
 0.4509000E+00 -0.6119357E-11
 0.4520000E+00 -0.7409974E-11
 0.4531000E+00 -0.7672401E-11
 0.4542000E+00 -0.6572456E-11
 0.4553000E+00 -0.3936431E-11
 0.4564000E+00  0.1759841E-12
 0.4575000E+00  0.5422315E-11
 0.4586000E+00  0.1116578E-10
 0.4597000E+00  0.1651265E-10
 0.4608000E+00  0.2040356E-10
 0.4619000E+00  0.2175579E-10
 0.4630000E+00  0.1964431E-10
 0.4641000E+00  0.1349988E-10
 0.4652000E+00  0.3295161E-11
 0.4663000E+00 -0.1031504E-10
 0.4674000E+00 -0.2593294E-10
 0.4685000E+00 -0.4146470E-10
 0.4696000E+00 -0.5429191E-10
 0.4707000E+00 -0.6156881E-10
 0.4718000E+00 -0.6062598E-10
 0.4729000E+00 -0.4944129E-10
 0.4740000E+00 -0.2711924E-10
 0.4751000E+00  0.5693743E-11
 0.4762000E+00  0.4653588E-10
 0.4773000E+00  0.9107178E-10
 0.4784000E+00  0.1333054E-09
 0.4795000E+00  0.1660921E-09
 0.4806000E+00  0.1819382E-09
 0.4817000E+00  0.1740353E-09
 0.4828000E+00  0.1374266E-09
 0.4839000E+00  0.7016886E-10
 0.4850000E+00 -0.2567830E-10
 0.4861000E+00 -0.1434107E-09
 0.4872000E+00 -0.2715480E-09
 0.4883000E+00 -0.3943368E-09
 0.4894000E+00 -0.4929498E-09
 0.4905000E+00 -0.5473644E-09
 0.4916000E+00 -0.5388044E-09
 0.4927000E+00 -0.4525404E-09
 0.4938000E+00 -0.2807527E-09
 0.4949000E+00 -0.2510301E-10
 0.4960000E+00  0.3013702E-09
 0.4971000E+00  0.6734004E-09
 0.4982000E+00  0.1053991E-08
 0.4993000E+00  0.1396457E-08
 0.5004000E+00  0.1648061E-08
 0.5015000E+00  0.1755096E-08
 0.5026000E+00  0.1669104E-08
 0.5037000E+00  0.1353720E-08
 0.5048000E+00  0.7914845E-09
 0.5059000E+00 -0.1011279E-10
 0.5070000E+00 -0.1014147E-08
 0.5081000E+00 -0.2152035E-08
 0.5092000E+00 -0.3324178E-08
 0.5103000E+00 -0.4403815E-08
 0.5114000E+00 -0.5244222E-08
 0.5125000E+00 -0.5689021E-08
 0.5136000E+00 -0.5585107E-08
 0.5147000E+00 -0.4797382E-08
 0.5158000E+00 -0.3224292E-08
 0.5169000E+00 -0.8130394E-09
 0.5180000E+00  0.2426677E-08
 0.5191000E+00  0.6411392E-08
 0.5202000E+00  0.1097586E-07
 0.5213000E+00  0.1586866E-07
 0.5224000E+00  0.2075141E-07
 0.5235000E+00  0.2520094E-07
 0.5246000E+00  0.2871349E-07
 0.5257000E+00  0.3070913E-07
 0.5268000E+00  0.3053463E-07
 0.5279000E+00  0.2746228E-07
 0.5290000E+00  0.2068231E-07
 0.5301000E+00  0.9286157E-08
 0.5312000E+00 -0.7761792E-08
 0.5323000E+00 -0.3166643E-07
 0.5334000E+00 -0.6386032E-07
 0.5345000E+00 -0.1060801E-06
 0.5356000E+00 -0.1604630E-06
 0.5367000E+00 -0.2296645E-06
 0.5378000E+00 -0.3170000E-06
 0.5389000E+00 -0.4266118E-06
 0.5400000E+00 -0.5636637E-06
 0.5411000E+00 -0.7345666E-06
 0.5422000E+00 -0.9472404E-06
 0.5433000E+00 -0.1211413E-05
 0.5444000E+00 -0.1538968E-05
 0.5455000E+00 -0.1944341E-05
 0.5466000E+00 -0.2444979E-05
 0.5477000E+00 -0.3061870E-05
 0.5488000E+00 -0.3820146E-05
 0.5499000E+00 -0.4749776E-05
 0.5510000E+00 -0.5886358E-05
 0.5521000E+00 -0.7272017E-05
 0.5532000E+00 -0.8956421E-05
 0.5543000E+00 -0.1099792E-04
 0.5554000E+00 -0.1346481E-04
 0.5565000E+00 -0.1643678E-04
 0.5576000E+00 -0.2000642E-04
 0.5587000E+00 -0.2428091E-04
 0.5598000E+00 -0.2938392E-04
 0.5609000E+00 -0.3545751E-04
 0.5620000E+00 -0.4266421E-04
 0.5631000E+00 -0.5118931E-04
 0.5642000E+00 -0.6124302E-04
 0.5653000E+00 -0.7306291E-04
 0.5664000E+00 -0.8691623E-04
 0.5675000E+00 -0.1031023E-03
 0.5686000E+00 -0.1219546E-03
 0.5697000E+00 -0.1438434E-03
 0.5708000E+00 -0.1691770E-03
 0.5719000E+00 -0.1984040E-03
 0.5730000E+00 -0.2320143E-03
 0.5741000E+00 -0.2705401E-03
 0.5752000E+00 -0.3145560E-03
 0.5763000E+00 -0.3646787E-03
 0.5774000E+00 -0.4215656E-03
 0.5785000E+00 -0.4859128E-03
 0.5796000E+00 -0.5584518E-03
 0.5807000E+00 -0.6399450E-03
 0.5818000E+00 -0.7311803E-03
 0.5829000E+00 -0.8329633E-03
 0.5840000E+00 -0.9461090E-03
 0.5851000E+00 -0.1071432E-02
 0.5862000E+00 -0.1209733E-02
 0.5873000E+00 -0.1361789E-02
 0.5884000E+00 -0.1528331E-02
 0.5895000E+00 -0.1710035E-02
 0.5906000E+00 -0.1907498E-02
 0.5917000E+00 -0.2121221E-02
 0.5928000E+00 -0.2351584E-02
 0.5939000E+00 -0.2598830E-02
 0.5950000E+00 -0.2863035E-02
 0.5961000E+00 -0.3144090E-02
 0.5972000E+00 -0.3441675E-02
 0.5983000E+00 -0.3755237E-02
 0.5994000E+00 -0.4083968E-02
 0.6005000E+00 -0.4426785E-02
 0.6016000E+00 -0.4782309E-02
 0.6027000E+00 -0.5148855E-02
 0.6038000E+00 -0.5524415E-02
 0.6049000E+00 -0.5906652E-02
 0.6060000E+00 -0.6292894E-02
 0.6071000E+00 -0.6680139E-02
 0.6082000E+00 -0.7065060E-02
 0.6093000E+00 -0.7444016E-02
 0.6104000E+00 -0.7813078E-02
 0.6115000E+00 -0.8168046E-02
 0.6126000E+00 -0.8504492E-02
 0.6137000E+00 -0.8817793E-02
 0.6148000E+00 -0.9103179E-02
 0.6159000E+00 -0.9355792E-02
 0.6170000E+00 -0.9570737E-02
 0.6181000E+00 -0.9743154E-02
 0.6192000E+00 -0.9868283E-02
 0.6203000E+00 -0.9941537E-02
 0.6214000E+00 -0.9958582E-02
 0.6225000E+00 -0.9915410E-02
 0.6236000E+00 -0.9808417E-02
 0.6247000E+00 -0.9634485E-02
 0.6258000E+00 -0.9391041E-02
 0.6269000E+00 -0.9076139E-02
 0.6280000E+00 -0.8688517E-02
 0.6291000E+00 -0.8227652E-02
 0.6302000E+00 -0.7693806E-02
 0.6313000E+00 -0.7088064E-02
 0.6324000E+00 -0.6412358E-02
 0.6335000E+00 -0.5669478E-02
 0.6346000E+00 -0.4863073E-02
 0.6357000E+00 -0.3997632E-02
 0.6368000E+00 -0.3078464E-02
 0.6379000E+00 -0.2111645E-02
 0.6390000E+00 -0.1103972E-02
 0.6401000E+00 -0.6288778E-04
 0.6412000E+00  0.1003600E-02
 0.6423000E+00  0.2087009E-02
 0.6434000E+00  0.3178486E-02
 0.6445000E+00  0.4268919E-02
 0.6456000E+00  0.5349048E-02
 0.6467000E+00  0.6409593E-02
 0.6478000E+00  0.7441372E-02
 0.6489000E+00  0.8435423E-02
 0.6500000E+00  0.9383130E-02
 0.6511000E+00  0.1027633E-01
 0.6522000E+00  0.1110743E-01
 0.6533000E+00  0.1186951E-01
 0.6544000E+00  0.1255641E-01
 0.6555000E+00  0.1316280E-01
 0.6566000E+00  0.1368425E-01
 0.6577000E+00  0.1411729E-01
 0.6588000E+00  0.1445944E-01
 0.6599000E+00  0.1470923E-01
 0.6610000E+00  0.1486619E-01
 0.6621000E+00  0.1493086E-01
 0.6632000E+00  0.1490474E-01
 0.6643000E+00  0.1479028E-01
 0.6654000E+00  0.1459079E-01
 0.6665000E+00  0.1431039E-01
 0.6676000E+00  0.1395394E-01
 0.6687000E+00  0.1352694E-01
 0.6698000E+00  0.1303543E-01
 0.6709000E+00  0.1248592E-01
 0.6720000E+00  0.1188527E-01
 0.6731000E+00  0.1124057E-01
 0.6742000E+00  0.1055908E-01
 0.6753000E+00  0.9848078E-02
 0.6764000E+00  0.9114811E-02
 0.6775000E+00  0.8366375E-02
 0.6786000E+00  0.7609645E-02
 0.6797000E+00  0.6851187E-02
 0.6808000E+00  0.6097204E-02
 0.6819000E+00  0.5353469E-02
 0.6830000E+00  0.4625283E-02
 0.6841000E+00  0.3917434E-02
 0.6852000E+00  0.3234175E-02
 0.6863000E+00  0.2579201E-02
 0.6874000E+00  0.1955644E-02
 0.6885000E+00  0.1366072E-02
 0.6896000E+00  0.8125009E-03
 0.6907000E+00  0.2964087E-03
 0.6918000E+00 -0.1812383E-03
 0.6929000E+00 -0.6199566E-03
 0.6940000E+00 -0.1019712E-02
 0.6951000E+00 -0.1380882E-02
 0.6962000E+00 -0.1704217E-02
 0.6973000E+00 -0.1990797E-02
 0.6984000E+00 -0.2241990E-02
 0.6995000E+00 -0.2459408E-02
 0.7006000E+00 -0.2644867E-02
 0.7017000E+00 -0.2800342E-02
 0.7028000E+00 -0.2927935E-02
 0.7039000E+00 -0.3029835E-02
 0.7050000E+00 -0.3108282E-02
 0.7061000E+00 -0.3165540E-02
 0.7072000E+00 -0.3203867E-02
 0.7083000E+00 -0.3225492E-02
 0.7094000E+00 -0.3232589E-02
 0.7105000E+00 -0.3227267E-02
 0.7116000E+00 -0.3211546E-02
 0.7127000E+00 -0.3187347E-02
 0.7138000E+00 -0.3156481E-02
 0.7149000E+00 -0.3120642E-02
 0.7160000E+00 -0.3081398E-02
 0.7171000E+00 -0.3040188E-02
 0.7182000E+00 -0.2998320E-02
 0.7193000E+00 -0.2956970E-02
 0.7204000E+00 -0.2917175E-02
 0.7215000E+00 -0.2879841E-02
 0.7226000E+00 -0.2845736E-02
 0.7237000E+00 -0.2815500E-02
 0.7248000E+00 -0.2789641E-02
 0.7259000E+00 -0.2768539E-02
 0.7270000E+00 -0.2752452E-02
 0.7281000E+00 -0.2741514E-02
 0.7292000E+00 -0.2735743E-02
 0.7303000E+00 -0.2735042E-02
 0.7314000E+00 -0.2739205E-02
 0.7325000E+00 -0.2747925E-02
 0.7336000E+00 -0.2760795E-02
 0.7347000E+00 -0.2777317E-02
 0.7358000E+00 -0.2796907E-02
 0.7369000E+00 -0.2818905E-02
 0.7380000E+00 -0.2842580E-02
 0.7391000E+00 -0.2867142E-02
 0.7402000E+00 -0.2891752E-02
 0.7413000E+00 -0.2915530E-02
 0.7424000E+00 -0.2937566E-02
 0.7435000E+00 -0.2956930E-02
 0.7446000E+00 -0.2972686E-02
 0.7457000E+00 -0.2983903E-02
 0.7468000E+00 -0.2989666E-02
 0.7479000E+00 -0.2989090E-02
 0.7490000E+00 -0.2981334E-02
 0.7501000E+00 -0.2965606E-02
 0.7512000E+00 -0.2941180E-02
 0.7523000E+00 -0.2907403E-02
 0.7534000E+00 -0.2863711E-02
 0.7545000E+00 -0.2809629E-02
 0.7556000E+00 -0.2744788E-02
 0.7567000E+00 -0.2668925E-02
 0.7578000E+00 -0.2581891E-02
 0.7589000E+00 -0.2483655E-02
 0.7600000E+00 -0.2374306E-02
 0.7611000E+00 -0.2254054E-02
 0.7622000E+00 -0.2123230E-02
 0.7633000E+00 -0.1982281E-02
 0.7644000E+00 -0.1831773E-02
 0.7655000E+00 -0.1672375E-02
 0.7666000E+00 -0.1504861E-02
 0.7677000E+00 -0.1330100E-02
 0.7688000E+00 -0.1149044E-02
 0.7699000E+00 -0.9627199E-03
 0.7710000E+00 -0.7722183E-03
 0.7721000E+00 -0.5786789E-03
 0.7732000E+00 -0.3832786E-03
 0.7743000E+00 -0.1872190E-03
 0.7754000E+00  0.8287351E-05
 0.7765000E+00  0.2020297E-03
 0.7776000E+00  0.3928122E-03
 0.7787000E+00  0.5794668E-03
 0.7798000E+00  0.7608656E-03
 0.7809000E+00  0.9359324E-03
 0.7820000E+00  0.1103653E-02
 0.7831000E+00  0.1263086E-02
 0.7842000E+00  0.1413367E-02
 0.7853000E+00  0.1553723E-02
 0.7864000E+00  0.1683475E-02
 0.7875000E+00  0.1802042E-02
 0.7886000E+00  0.1908949E-02
 0.7897000E+00  0.2003829E-02
 0.7908000E+00  0.2086418E-02
 0.7919000E+00  0.2156564E-02
 0.7930000E+00  0.2214218E-02
 0.7941000E+00  0.2259436E-02
 0.7952000E+00  0.2292374E-02
 0.7963000E+00  0.2313284E-02
 0.7974000E+00  0.2322510E-02
 0.7985000E+00  0.2320478E-02
 0.7996000E+00  0.2307690E-02
 0.8007000E+00  0.2284721E-02
 0.8018000E+00  0.2252205E-02
 0.8029000E+00  0.2210829E-02
 0.8040000E+00  0.2161327E-02
 0.8051000E+00  0.2104465E-02
 0.8062000E+00  0.2041039E-02
 0.8073000E+00  0.1971858E-02
 0.8084000E+00  0.1897740E-02
 0.8095000E+00  0.1819503E-02
 0.8106000E+00  0.1737954E-02
 0.8117000E+00  0.1653883E-02
 0.8128000E+00  0.1568049E-02
 0.8139000E+00  0.1481182E-02
 0.8150000E+00  0.1393967E-02
 0.8161000E+00  0.1307045E-02
 0.8172000E+00  0.1221005E-02
 0.8183000E+00  0.1136381E-02
 0.8194000E+00  0.1053648E-02
 0.8205000E+00  0.9732176E-03
 0.8216000E+00  0.8954408E-03
 0.8227000E+00  0.8206044E-03
 0.8238000E+00  0.7489341E-03
 0.8249000E+00  0.6805969E-03
 0.8260000E+00  0.6157044E-03
 0.8271000E+00  0.5543167E-03
 0.8282000E+00  0.4964476E-03
 0.8293000E+00  0.4420705E-03
 0.8304000E+00  0.3911254E-03
 0.8315000E+00  0.3435272E-03
 0.8326000E+00  0.2991740E-03
 0.8337000E+00  0.2579555E-03
 0.8348000E+00  0.2197622E-03
 0.8359000E+00  0.1844937E-03
 0.8370000E+00  0.1520673E-03
 0.8381000E+00  0.1224266E-03
 0.8392000E+00  0.9554858E-04
 0.8403000E+00  0.7145070E-04
 0.8414000E+00  0.5019601E-04
 0.8425000E+00  0.3189785E-04
 0.8436000E+00  0.1672368E-04
 0.8447000E+00  0.4898024E-05
 0.8458000E+00 -0.3295652E-05
 0.8469000E+00 -0.7514409E-05
 0.8480000E+00 -0.7357126E-05
 0.8491000E+00 -0.2367342E-05
 0.8502000E+00  0.7962608E-05
 0.8513000E+00  0.2418659E-04
 0.8524000E+00  0.4689883E-04
 0.8535000E+00  0.7672726E-04
 0.8546000E+00  0.1143256E-03
 0.8557000E+00  0.1603643E-03
 0.8568000E+00  0.2155202E-03
 0.8579000E+00  0.2804655E-03
 0.8590000E+00  0.3558565E-03
 0.8601000E+00  0.4423223E-03
 0.8612000E+00  0.5404523E-03
 0.8623000E+00  0.6507846E-03
 0.8634000E+00  0.7737937E-03
 0.8645000E+00  0.9098768E-03
 0.8656000E+00  0.1059342E-02
 0.8667000E+00  0.1222395E-02
 0.8678000E+00  0.1399123E-02
 0.8689000E+00  0.1589488E-02
 0.8700000E+00  0.1793302E-02
 0.8711000E+00  0.2010224E-02
 0.8722000E+00  0.2239738E-02
 0.8733000E+00  0.2481148E-02
 0.8744000E+00  0.2733560E-02
 0.8755000E+00  0.2995876E-02
 0.8766000E+00  0.3266785E-02
 0.8777000E+00  0.3544752E-02
 0.8788000E+00  0.3828015E-02
 0.8799000E+00  0.4114580E-02
 0.8810000E+00  0.4402223E-02
 0.8821000E+00  0.4688495E-02
 0.8832000E+00  0.4970727E-02
 0.8843000E+00  0.5246046E-02
 0.8854000E+00  0.5511380E-02
 0.8865000E+00  0.5763487E-02
 0.8876000E+00  0.5998973E-02
 0.8887000E+00  0.6214321E-02
 0.8898000E+00  0.6405925E-02
 0.8909000E+00  0.6570129E-02
 0.8920000E+00  0.6703266E-02
 0.8931000E+00  0.6801707E-02
 0.8942000E+00  0.6861907E-02
 0.8953000E+00  0.6880463E-02
 0.8964000E+00  0.6854163E-02
 0.8975000E+00  0.6780044E-02
 0.8986000E+00  0.6655451E-02
 0.8997000E+00  0.6478088E-02
 0.9008000E+00  0.6246076E-02
 0.9019000E+00  0.5958000E-02
 0.9030000E+00  0.5612961E-02
 0.9041000E+00  0.5210613E-02
 0.9052000E+00  0.4751209E-02
 0.9063000E+00  0.4235621E-02
 0.9074000E+00  0.3665369E-02
 0.9085000E+00  0.3042629E-02
 0.9096000E+00  0.2370240E-02
 0.9107000E+00  0.1651700E-02
 0.9118000E+00  0.8911447E-03
 0.9129000E+00  0.9332944E-04
 0.9140000E+00 -0.7364126E-03
 0.9151000E+00 -0.1592216E-02
 0.9162000E+00 -0.2467740E-02
 0.9173000E+00 -0.3356235E-02
 0.9184000E+00 -0.4250616E-02
 0.9195000E+00 -0.5143543E-02
 0.9206000E+00 -0.6027509E-02
 0.9217000E+00 -0.6894932E-02
 0.9228000E+00 -0.7738250E-02
 0.9239000E+00 -0.8550022E-02
 0.9250000E+00 -0.9323020E-02
 0.9261000E+00 -0.1005033E-01
 0.9272000E+00 -0.1072545E-01
 0.9283000E+00 -0.1134236E-01
 0.9294000E+00 -0.1189562E-01
 0.9305000E+00 -0.1238044E-01
 0.9316000E+00 -0.1279274E-01
 0.9327000E+00 -0.1312922E-01
 0.9338000E+00 -0.1338736E-01
 0.9349000E+00 -0.1356549E-01
 0.9360000E+00 -0.1366281E-01
 0.9371000E+00 -0.1367935E-01
 0.9382000E+00 -0.1361599E-01
 0.9393000E+00 -0.1347442E-01
 0.9404000E+00 -0.1325710E-01
 0.9415000E+00 -0.1296725E-01
 0.9426000E+00 -0.1260870E-01
 0.9437000E+00 -0.1218590E-01
 0.9448000E+00 -0.1170379E-01
 0.9459000E+00 -0.1116773E-01
 0.9470000E+00 -0.1058338E-01
 0.9481000E+00 -0.9956633E-02
 0.9492000E+00 -0.9293495E-02
 0.9503000E+00 -0.8599986E-02
 0.9514000E+00 -0.7882049E-02
 0.9525000E+00 -0.7145452E-02
 0.9536000E+00 -0.6395706E-02
 0.9547000E+00 -0.5637988E-02
 0.9558000E+00 -0.4877071E-02
 0.9569000E+00 -0.4117271E-02
 0.9580000E+00 -0.3362403E-02
 0.9591000E+00 -0.2615754E-02
 0.9602000E+00 -0.1880068E-02
 0.9613000E+00 -0.1157539E-02
 0.9624000E+00 -0.4498307E-03
 0.9635000E+00  0.2419020E-03
 0.9646000E+00  0.9169738E-03
 0.9657000E+00  0.1575117E-02
 0.9668000E+00  0.2216424E-02
 0.9679000E+00  0.2841276E-02
 0.9690000E+00  0.3450273E-02
 0.9701000E+00  0.4044153E-02
 0.9712000E+00  0.4623714E-02
 0.9723000E+00  0.5189731E-02
 0.9734000E+00  0.5742879E-02
 0.9745000E+00  0.6283660E-02
 0.9756000E+00  0.6812337E-02
 0.9767000E+00  0.7328871E-02
 0.9778000E+00  0.7832879E-02
 0.9789000E+00  0.8323591E-02