-0.1200000E+00  0.0000000E+00
-0.1189000E+00  0.0000000E+00
-0.1178000E+00  0.0000000E+00
-0.1167000E+00  0.0000000E+00
-0.1156000E+00  0.0000000E+00
-0.1145000E+00  0.0000000E+00
-0.1134000E+00  0.0000000E+00
-0.1123000E+00  0.0000000E+00
-0.1112000E+00  0.0000000E+00
-0.1101000E+00  0.0000000E+00
-0.1090000E+00  0.0000000E+00
-0.1079000E+00  0.0000000E+00
-0.1068000E+00  0.0000000E+00
-0.1057000E+00  0.0000000E+00
-0.1046000E+00  0.0000000E+00
-0.1035000E+00  0.0000000E+00
-0.1024000E+00  0.0000000E+00
-0.1013000E+00  0.0000000E+00
-0.1002000E+00  0.0000000E+00
-0.9910000E-01  0.0000000E+00
-0.9800000E-01  0.0000000E+00
-0.9690000E-01  0.0000000E+00
-0.9580000E-01  0.0000000E+00
-0.9470000E-01  0.0000000E+00
-0.9360000E-01  0.0000000E+00
-0.9250000E-01  0.0000000E+00
-0.9140000E-01  0.0000000E+00
-0.9030000E-01  0.0000000E+00
-0.8920000E-01  0.0000000E+00
-0.8810000E-01  0.0000000E+00
-0.8700000E-01  0.0000000E+00
-0.8590000E-01  0.0000000E+00
-0.8480000E-01  0.0000000E+00
-0.8370000E-01  0.0000000E+00
-0.8260000E-01  0.0000000E+00
-0.8150000E-01  0.0000000E+00
-0.8040000E-01  0.0000000E+00
-0.7930000E-01  0.0000000E+00
-0.7820000E-01  0.0000000E+00
-0.7710000E-01  0.0000000E+00
-0.7600000E-01  0.0000000E+00
-0.7490000E-01  0.0000000E+00
-0.7380000E-01  0.0000000E+00
-0.7270000E-01  0.0000000E+00
-0.7160000E-01  0.0000000E+00
-0.7050000E-01  0.0000000E+00
-0.6940000E-01  0.0000000E+00
-0.6830000E-01  0.0000000E+00
-0.6720000E-01  0.0000000E+00
-0.6610000E-01  0.0000000E+00
-0.6500000E-01  0.0000000E+00
-0.6390000E-01  0.0000000E+00
-0.6280000E-01  0.0000000E+00
-0.6170000E-01  0.0000000E+00
-0.6060000E-01  0.0000000E+00
-0.5950000E-01  0.0000000E+00
-0.5840000E-01  0.0000000E+00
-0.5730000E-01  0.0000000E+00
-0.5620000E-01  0.0000000E+00
-0.5510000E-01  0.0000000E+00
-0.5400000E-01  0.0000000E+00
-0.5290000E-01  0.0000000E+00
-0.5180000E-01  0.0000000E+00
-0.5070000E-01  0.0000000E+00
-0.4960000E-01  0.0000000E+00
-0.4850000E-01  0.0000000E+00
-0.4740000E-01  0.0000000E+00
-0.4630000E-01  0.0000000E+00
-0.4520000E-01  0.0000000E+00
-0.4410000E-01  0.0000000E+00
-0.4300000E-01  0.0000000E+00
-0.4190000E-01  0.0000000E+00
-0.4080000E-01  0.0000000E+00
-0.3970000E-01  0.0000000E+00
-0.3860000E-01  0.0000000E+00
-0.3750000E-01  0.0000000E+00
-0.3640000E-01  0.0000000E+00
-0.3530000E-01  0.0000000E+00
-0.3420000E-01  0.0000000E+00
-0.3310000E-01  0.0000000E+00
-0.3200000E-01  0.0000000E+00
-0.3090000E-01  0.0000000E+00
-0.2980000E-01  0.0000000E+00
-0.2870000E-01  0.0000000E+00
-0.2760000E-01  0.0000000E+00
-0.2650000E-01  0.0000000E+00
-0.2540000E-01  0.0000000E+00
-0.2430000E-01  0.0000000E+00
-0.2320000E-01 -0.0000000E+00
-0.2210000E-01 -0.0000000E+00
-0.2100000E-01 -0.1645318E-37
-0.1990000E-01 -0.1777179E-37
-0.1880000E-01  0.1290812E-37
-0.1770000E-01  0.1031159E-36
-0.1660000E-01  0.2263327E-36
-0.1550000E-01  0.2796187E-36
-0.1440000E-01  0.7182928E-37
-0.1330000E-01 -0.5458500E-36
-0.1220000E-01 -0.1564009E-35
-0.1110000E-01 -0.2487747E-35
-0.1000000E-01 -0.2190043E-35
-0.8900000E-02  0.8573334E-36
-0.7800000E-02  0.7568203E-35
-0.6700000E-02  0.1644816E-34
-0.5600000E-02  0.2170555E-34
-0.4500000E-02  0.1306995E-34
-0.3400000E-02 -0.2022278E-34
-0.2300000E-02 -0.7964503E-34
-0.1200000E-02 -0.1436906E-33
-0.1000000E-03 -0.1583338E-33
 0.1000000E-02 -0.4587767E-34
 0.2100000E-02  0.2530998E-33
 0.3200000E-02  0.7026821E-33
 0.4300000E-02  0.1087133E-32
 0.5400000E-02  0.9862981E-33
 0.6500000E-02 -0.9668487E-34
 0.7600000E-02 -0.2391210E-32
 0.8700000E-02 -0.5351153E-32
 0.9800000E-02 -0.7236593E-32
 0.1090000E-01 -0.5242422E-32
 0.1200000E-01  0.3334830E-32
 0.1310000E-01  0.1874475E-31
 0.1420000E-01  0.3592830E-31
 0.1530000E-01  0.4297209E-31
 0.1640000E-01  0.2348608E-31
 0.1750000E-01 -0.3498666E-31
 0.1860000E-01 -0.1271256E-30
 0.1970000E-01 -0.2160486E-30
 0.2080000E-01 -0.2304141E-30
 0.2190000E-01 -0.8522389E-31
 0.2300000E-01  0.2669041E-30
 0.2410000E-01  0.7641135E-30
 0.2520000E-01  0.1178248E-29
 0.2630000E-01  0.1128330E-29
 0.2740000E-01  0.2187592E-30
 0.2850000E-01 -0.1687048E-29
 0.2960000E-01 -0.4136354E-29
 0.3070000E-01 -0.5888374E-29
 0.3180000E-01 -0.5102664E-29
 0.3290000E-01 -0.1112397E-30
 0.3400000E-01  0.9276257E-29
 0.3510000E-01  0.2040002E-28
 0.3620000E-01  0.2720252E-28
 0.3730000E-01  0.2154889E-28
 0.3840000E-01 -0.2987601E-29
 0.3950000E-01 -0.4547980E-28
 0.4060000E-01 -0.9246396E-28
 0.4170000E-01 -0.1170139E-27
 0.4280000E-01 -0.8591647E-28
 0.4390000E-01  0.2365798E-28
 0.4500000E-01  0.2017561E-27
 0.4610000E-01  0.3877264E-27
 0.4720000E-01  0.4714602E-27
 0.4830000E-01  0.3266707E-27
 0.4940000E-01 -0.1221552E-27
 0.5050000E-01 -0.8174993E-27
 0.5160000E-01 -0.1511717E-26
 0.5270000E-01 -0.1787296E-26
 0.5380000E-01 -0.1193875E-26
 0.5490000E-01  0.5038714E-27
 0.5600000E-01  0.3044455E-26
 0.5710000E-01  0.5500586E-26
 0.5820000E-01  0.6395176E-26
 0.5930000E-01  0.4212954E-26
 0.6040000E-01 -0.1746691E-26
 0.6150000E-01 -0.1046317E-25
 0.6260000E-01 -0.1872630E-25
 0.6370000E-01 -0.2163696E-25
 0.6480000E-01 -0.1436217E-25
 0.6590000E-01  0.5120584E-26
 0.6700000E-01  0.3326867E-25
 0.6810000E-01  0.5974640E-25
 0.6920000E-01  0.6926308E-25
 0.7030000E-01  0.4715567E-25
 0.7140000E-01 -0.1231072E-25
 0.7250000E-01 -0.9799817E-25
 0.7360000E-01 -0.1788162E-24
 0.7470000E-01 -0.2097274E-24
 0.7580000E-01 -0.1483229E-24
 0.7690000E-01  0.2147889E-25
 0.7800000E-01  0.2676055E-24
 0.7910000E-01  0.5023500E-24
 0.8020000E-01  0.6002376E-24
 0.8130000E-01  0.4442225E-24
 0.8240000E-01 -0.1021975E-25
 0.8350000E-01 -0.6778069E-24
 0.8460000E-01 -0.1325673E-23
 0.8570000E-01 -0.1622474E-23
 0.8680000E-01 -0.1259849E-23
 0.8790000E-01 -0.1171331E-24
 0.8900000E-01  0.1594695E-23
 0.9010000E-01  0.3291452E-23
 0.9120000E-01  0.4141841E-23
 0.9230000E-01  0.3370166E-23
 0.9340000E-01  0.6599670E-24
 0.9450000E-01 -0.3499035E-23
 0.9560000E-01 -0.7715337E-23
 0.9670000E-01 -0.1000111E-22
 0.9780000E-01 -0.8491167E-23
 0.9890000E-01 -0.2389824E-23
 0.1000000E+00  0.7225069E-23
 0.1011000E+00  0.1718645E-22
 0.1022000E+00  0.2294255E-22
 0.1033000E+00  0.2019398E-22
 0.1044000E+00  0.7030100E-23
 0.1055000E+00 -0.1427218E-22
 0.1066000E+00 -0.3677176E-22
 0.1077000E+00 -0.5042274E-22
 0.1088000E+00 -0.4567063E-22
 0.1099000E+00 -0.1811620E-22
 0.1110000E+00  0.2757638E-22
 0.1121000E+00  0.7663973E-22
 0.1132000E+00  0.1075328E-21
 0.1143000E+00  0.9960583E-22
 0.1154000E+00  0.4301596E-22
 0.1165000E+00 -0.5296076E-22
 0.1176000E+00 -0.1576458E-21
 0.1187000E+00 -0.2258149E-21
 0.1198000E+00 -0.2136066E-21
 0.1209000E+00 -0.9917020E-22
 0.1220000E+00  0.9988181E-22
 0.1231000E+00  0.3212971E-21
 0.1242000E+00  0.4716973E-21
 0.1253000E+00  0.4587309E-21
 0.1264000E+00  0.2332936E-21
 0.1275000E+00 -0.1740754E-21
 0.1286000E+00 -0.6409337E-21
 0.1297000E+00 -0.9780134E-21
 0.1308000E+00 -0.9921901E-21
 0.1319000E+00 -0.5711018E-21
 0.1330000E+00  0.2414819E-21
 0.1341000E+00  0.1215767E-20
 0.1352000E+00  0.1978592E-20
 0.1363000E+00  0.2131858E-20
 0.1374000E+00  0.1417651E-20
 0.1385000E+00 -0.1279420E-21
 0.1396000E+00 -0.2102323E-20
 0.1407000E+00 -0.3800025E-20
 0.1418000E+00 -0.4424217E-20
 0.1429000E+00 -0.3397489E-20
 0.1440000E+00 -0.6672954E-21
 0.1451000E+00  0.3125006E-20
 0.1462000E+00  0.6720156E-20
 0.1473000E+00  0.8595953E-20
 0.1484000E+00  0.7526258E-20
 0.1495000E+00  0.3163698E-20
 0.1506000E+00 -0.3590730E-20
 0.1517000E+00 -0.1063899E-19
 0.1528000E+00 -0.1524253E-19
 0.1539000E+00 -0.1497880E-19
 0.1550000E+00 -0.8800240E-20
 0.1561000E+00  0.2215918E-20
 0.1572000E+00  0.1480927E-19
 0.1583000E+00  0.2435538E-19
 0.1594000E+00  0.2642903E-19
 0.1605000E+00  0.1863961E-19
 0.1616000E+00  0.2045716E-20
 0.1627000E+00 -0.1852772E-19
 0.1638000E+00 -0.3564597E-19
 0.1649000E+00 -0.4174568E-19
 0.1660000E+00 -0.3220996E-19
 0.1671000E+00 -0.7897054E-20
 0.1682000E+00  0.2404604E-19
 0.1693000E+00  0.5180350E-19
 0.1704000E+00  0.6281354E-19
 0.1715000E+00  0.4887811E-19
 0.1726000E+00  0.1059900E-19
 0.1737000E+00 -0.4086141E-19
 0.1748000E+00 -0.8604286E-19
 0.1759000E+00 -0.1034633E-18
 0.1770000E+00 -0.7823847E-19
 0.1781000E+00 -0.1002346E-19
 0.1792000E+00  0.8316405E-19
 0.1803000E+00  0.1677936E-18
 0.1814000E+00  0.2047745E-18
 0.1825000E+00  0.1641655E-18
 0.1836000E+00  0.3983978E-19
 0.1847000E+00 -0.1417832E-18
 0.1858000E+00 -0.3238179E-18
 0.1869000E+00 -0.4335291E-18
 0.1880000E+00 -0.4066991E-18
 0.1891000E+00 -0.2145621E-18
 0.1902000E+00  0.1164235E-18
 0.1913000E+00  0.5010474E-18
 0.1924000E+00  0.8129188E-18
 0.1935000E+00  0.9210913E-18
 0.1946000E+00  0.7362260E-18
 0.1957000E+00  0.2514307E-18
 0.1968000E+00 -0.4379484E-18
 0.1979000E+00 -0.1146566E-17
 0.1990000E+00 -0.1644799E-17
 0.2001000E+00 -0.1727772E-17
 0.2012000E+00 -0.1287687E-17
 0.2023000E+00 -0.3652429E-18
 0.2034000E+00  0.8403165E-18
 0.2045000E+00  0.2011537E-17
 0.2056000E+00  0.2796443E-17
 0.2067000E+00  0.2912991E-17
 0.2078000E+00  0.2242327E-17
 0.2089000E+00  0.8795612E-18
 0.2100000E+00 -0.8775860E-18
 0.2111000E+00 -0.2602533E-17
 0.2122000E+00 -0.3855363E-17
 0.2133000E+00 -0.4304496E-17
 0.2144000E+00 -0.3815713E-17
 0.2155000E+00 -0.2480247E-17
 0.2166000E+00 -0.5749854E-18
 0.2177000E+00  0.1527729E-17
 0.2188000E+00  0.3464712E-17
 0.2199000E+00  0.4960421E-17
 0.2210000E+00  0.5850914E-17
 0.2221000E+00  0.6050137E-17
 0.2232000E+00  0.5484189E-17
 0.2243000E+00  0.4039246E-17
 0.2254000E+00  0.1569673E-17
 0.2265000E+00 -0.2009286E-17
 0.2276000E+00 -0.6559735E-17
 0.2287000E+00 -0.1154949E-16
 0.2298000E+00 -0.1595912E-16
 0.2309000E+00 -0.1835493E-16
 0.2320000E+00 -0.1717581E-16
 0.2331000E+00 -0.1121085E-16
 0.2342000E+00 -0.1614057E-18
 0.2353000E+00  0.1488556E-16
 0.2364000E+00  0.3126854E-16
 0.2375000E+00  0.4500180E-16
 0.2386000E+00  0.5151740E-16
 0.2397000E+00  0.4680672E-16
 0.2408000E+00  0.2872300E-16
 0.2419000E+00 -0.1898040E-17
 0.2430000E+00 -0.4066424E-16
 0.2441000E+00 -0.7988513E-16
 0.2452000E+00 -0.1097736E-15
 0.2463000E+00 -0.1204693E-15
 0.2474000E+00 -0.1045248E-15
 0.2485000E+00 -0.5931328E-16
 0.2496000E+00  0.1125469E-16
 0.2507000E+00  0.9625232E-16
 0.2518000E+00  0.1788407E-15
 0.2529000E+00  0.2389898E-15
 0.2540000E+00  0.2574906E-15
 0.2551000E+00  0.2205877E-15
 0.2562000E+00  0.1243073E-15
 0.2573000E+00 -0.2254538E-16
 0.2584000E+00 -0.1976576E-15
 0.2595000E+00 -0.3673750E-15
 0.2606000E+00 -0.4918907E-15
 0.2617000E+00 -0.5329437E-15
 0.2628000E+00 -0.4628411E-15
 0.2639000E+00 -0.2730509E-15
 0.2650000E+00  0.1969336E-16
 0.2661000E+00  0.3717358E-15
 0.2672000E+00  0.7166593E-15
 0.2683000E+00  0.9755785E-15
 0.2694000E+00  0.1072492E-14
 0.2705000E+00  0.9521735E-15
 0.2716000E+00  0.5969476E-15
 0.2727000E+00  0.3817976E-16
 0.2738000E+00 -0.6412293E-15
 0.2749000E+00 -0.1315644E-14
 0.2760000E+00 -0.1836818E-14
 0.2771000E+00 -0.2062712E-14
 0.2782000E+00 -0.1889890E-14
 0.2793000E+00 -0.1282766E-14
 0.2804000E+00 -0.2926683E-15
 0.2815000E+00  0.9389967E-15
 0.2826000E+00  0.2196413E-14
 0.2837000E+00  0.3223060E-14
 0.2848000E+00  0.3768698E-14
 0.2859000E+00  0.3641566E-14
 0.2870000E+00  0.2755837E-14
 0.2881000E+00  0.1164297E-14
 0.2892000E+00 -0.9318867E-15
 0.2903000E+00 -0.3200873E-14
 0.2914000E+00 -0.5225317E-14
 0.2925000E+00 -0.6569977E-14
 0.2936000E+00 -0.6862253E-14
 0.2947000E+00 -0.5872681E-14
 0.2958000E+00 -0.3580734E-14
 0.2969000E+00 -0.2116519E-15
 0.2980000E+00  0.3767083E-14
 0.2991000E+00  0.7695687E-14
 0.3002000E+00  0.1081694E-13
 0.3013000E+00  0.1240563E-13
 0.3024000E+00  0.1191329E-13
 0.3035000E+00  0.9102153E-14
 0.3046000E+00  0.4139390E-14
 0.3057000E+00 -0.2374330E-14
 0.3068000E+00 -0.9458349E-14
 0.3079000E+00 -0.1588879E-13
 0.3090000E+00 -0.2040153E-13
 0.3101000E+00 -0.2192710E-13
 0.3112000E+00 -0.1981195E-13
 0.3123000E+00 -0.1397860E-13
 0.3134000E+00 -0.4987297E-14
 0.3145000E+00  0.6018446E-14
 0.3156000E+00  0.1747406E-13
 0.3167000E+00  0.2763122E-13
 0.3178000E+00  0.3482121E-13
 0.3189000E+00  0.3769291E-13
 0.3200000E+00  0.3538619E-13
 0.3211000E+00  0.2762476E-13
 0.3222000E+00  0.1473847E-13
 0.3233000E+00 -0.2355796E-14
 0.3244000E+00 -0.2218275E-13
 0.3255000E+00 -0.4272982E-13
 0.3266000E+00 -0.6147445E-13
 0.3277000E+00 -0.7546381E-13
 0.3288000E+00 -0.8151388E-13
 0.3299000E+00 -0.7658795E-13
 0.3310000E+00 -0.5837359E-13
 0.3321000E+00 -0.2600629E-13
 0.3332000E+00  0.1919555E-13
 0.3343000E+00  0.7318703E-13
 0.3354000E+00  0.1290717E-12
 0.3365000E+00  0.1775795E-12
 0.3376000E+00  0.2082220E-12
 0.3387000E+00  0.2110345E-12
 0.3398000E+00  0.1786437E-12
 0.3409000E+00  0.1082609E-12
 0.3420000E+00  0.3148851E-14
 0.3431000E+00 -0.1268249E-12
 0.3442000E+00 -0.2657707E-12
 0.3453000E+00 -0.3934778E-12
 0.3464000E+00 -0.4879742E-12
 0.3475000E+00 -0.5285115E-12
 0.3486000E+00 -0.4984862E-12
 0.3497000E+00 -0.3878983E-12
 0.3508000E+00 -0.1951387E-12
 0.3519000E+00  0.7187541E-13
 0.3530000E+00  0.3950457E-12
 0.3541000E+00  0.7457358E-12
 0.3552000E+00  0.1084719E-11
 0.3563000E+00  0.1362775E-11
 0.3574000E+00  0.1522636E-11
 0.3585000E+00  0.1503265E-11
 0.3596000E+00  0.1247315E-11
 0.3607000E+00  0.7121927E-12
 0.3618000E+00 -0.1158528E-12
 0.3629000E+00 -0.1206415E-11
 0.3640000E+00 -0.2471488E-11
 0.3651000E+00 -0.3757987E-11
 0.3662000E+00 -0.4850557E-11
 0.3673000E+00 -0.5488293E-11
 0.3684000E+00 -0.5397181E-11
 0.3695000E+00 -0.4337195E-11
 0.3706000E+00 -0.2159613E-11
 0.3717000E+00  0.1133431E-11
 0.3728000E+00  0.5337955E-11
 0.3739000E+00  0.1001805E-10
 0.3750000E+00  0.1450869E-10
 0.3761000E+00  0.1796079E-10
 0.3772000E+00  0.1943306E-10
 0.3783000E+00  0.1802816E-10
 0.3794000E+00  0.1306261E-10
 0.3805000E+00  0.4251070E-11
 0.3816000E+00 -0.8122092E-11
 0.3827000E+00 -0.2307670E-10
 0.3838000E+00 -0.3889052E-10
 0.3849000E+00 -0.5316404E-10
 0.3860000E+00 -0.6301793E-10
 0.3871000E+00 -0.6542909E-10
 0.3882000E+00 -0.5768981E-10
 0.3893000E+00 -0.3794980E-10
 0.3904000E+00 -0.5775262E-11
 0.3915000E+00  0.3736205E-10
 0.3926000E+00  0.8776569E-10
 0.3937000E+00  0.1394649E-09
 0.3948000E+00  0.1845167E-09
 0.3959000E+00  0.2137081E-09
 0.3970000E+00  0.2176532E-09
 0.3981000E+00  0.1882180E-09
 0.3992000E+00  0.1201372E-09
 0.4003000E+00  0.1262315E-10
 0.4014000E+00 -0.1292806E-09
 0.4025000E+00 -0.2938670E-09
 0.4036000E+00 -0.4627097E-09
 0.4047000E+00 -0.6115828E-09
 0.4058000E+00 -0.7124627E-09
 0.4069000E+00 -0.7365875E-09
 0.4080000E+00 -0.6583988E-09
 0.4091000E+00 -0.4600260E-09
 0.4102000E+00 -0.1358232E-09
 0.4113000E+00  0.3036482E-09
 0.4124000E+00  0.8288637E-09
 0.4135000E+00  0.1390464E-08
 0.4146000E+00  0.1920827E-08
 0.4157000E+00  0.2338450E-08
 0.4168000E+00  0.2555223E-08
 0.4179000E+00  0.2486321E-08
 0.4190000E+00  0.2062069E-08
 0.4201000E+00  0.1240722E-08
 0.4212000E+00  0.2081112E-10
 0.4223000E+00 -0.1548556E-08
 0.4234000E+00 -0.3361071E-08
 0.4245000E+00 -0.5251814E-08
 0.4256000E+00 -0.7002255E-08
 0.4267000E+00 -0.8352337E-08
 0.4278000E+00 -0.9019658E-08
 0.4289000E+00 -0.8725005E-08
 0.4300000E+00 -0.7222715E-08
 0.4311000E+00 -0.4333727E-08
 0.4322000E+00  0.2135371E-10
 0.4333000E+00  0.5791991E-08
 0.4344000E+00  0.1277300E-07
 0.4355000E+00  0.2058762E-07
 0.4366000E+00  0.2867973E-07
 0.4377000E+00  0.3631572E-07
 0.4388000E+00  0.4259472E-07
 0.4399000E+00  0.4646514E-07
 0.4410000E+00  0.4674357E-07
 0.4421000E+00  0.4213116E-07
 0.4432000E+00  0.3122176E-07
 0.4443000E+00  0.1249536E-07
 0.4454000E+00 -0.1570931E-07
 0.4465000E+00 -0.5524926E-07
 0.4476000E+00 -0.1082638E-06
 0.4487000E+00 -0.1772977E-06
 0.4498000E+00 -0.2654630E-06
 0.4509000E+00 -0.3766429E-06
 0.4520000E+00 -0.5157368E-06
 0.4531000E+00 -0.6889480E-06
 0.4542000E+00 -0.9041144E-06
 0.4553000E+00 -0.1171083E-05
 0.4564000E+00 -0.1502130E-05
 0.4575000E+00 -0.1912435E-05
 0.4586000E+00 -0.2420607E-05
 0.4597000E+00 -0.3049286E-05
 0.4608000E+00 -0.3825819E-05
 0.4619000E+00 -0.4783032E-05
 0.4630000E+00 -0.5960126E-05
 0.4641000E+00 -0.7403687E-05
 0.4652000E+00 -0.9168866E-05
 0.4663000E+00 -0.1132073E-04
 0.4674000E+00 -0.1393577E-04
 0.4685000E+00 -0.1710368E-04
 0.4696000E+00 -0.2092931E-04
 0.4707000E+00 -0.2553482E-04
 0.4718000E+00 -0.3106213E-04
 0.4729000E+00 -0.3767555E-04
 0.4740000E+00 -0.4556466E-04
 0.4751000E+00 -0.5494736E-04
 0.4762000E+00 -0.6607312E-04
 0.4773000E+00 -0.7922640E-04
 0.4784000E+00 -0.9473017E-04
 0.4795000E+00 -0.1129495E-03
 0.4806000E+00 -0.1342953E-03
 0.4817000E+00 -0.1592277E-03
 0.4828000E+00 -0.1882598E-03
 0.4839000E+00 -0.2219607E-03
 0.4850000E+00 -0.2609589E-03
 0.4861000E+00 -0.3059444E-03
 0.4872000E+00 -0.3576713E-03
 0.4883000E+00 -0.4169589E-03
 0.4894000E+00 -0.4846920E-03
 0.4905000E+00 -0.5618214E-03
 0.4916000E+00 -0.6493613E-03
 0.4927000E+00 -0.7483870E-03
 0.4938000E+00 -0.8600297E-03
 0.4949000E+00 -0.9854707E-03
 0.4960000E+00 -0.1125933E-02
 0.4971000E+00 -0.1282671E-02
 0.4982000E+00 -0.1456958E-02
 0.4993000E+00 -0.1650069E-02
 0.5004000E+00 -0.1863266E-02
 0.5015000E+00 -0.2097776E-02
 0.5026000E+00 -0.2354770E-02
 0.5037000E+00 -0.2635334E-02
 0.5048000E+00 -0.2940445E-02
 0.5059000E+00 -0.3270940E-02
 0.5070000E+00 -0.3627482E-02
 0.5081000E+00 -0.4010531E-02
 0.5092000E+00 -0.4420305E-02
 0.5103000E+00 -0.4856749E-02
 0.5114000E+00 -0.5319493E-02
 0.5125000E+00 -0.5807826E-02
 0.5136000E+00 -0.6320658E-02
 0.5147000E+00 -0.6856489E-02
 0.5158000E+00 -0.7413381E-02
 0.5169000E+00 -0.7988935E-02
 0.5180000E+00 -0.8580272E-02
 0.5191000E+00 -0.9184016E-02
 0.5202000E+00 -0.9796292E-02
 0.5213000E+00 -0.1041272E-01
 0.5224000E+00 -0.1102844E-01
 0.5235000E+00 -0.1163809E-01
 0.5246000E+00 -0.1223590E-01
 0.5257000E+00 -0.1281565E-01
 0.5268000E+00 -0.1337079E-01
 0.5279000E+00 -0.1389445E-01
 0.5290000E+00 -0.1437953E-01
 0.5301000E+00 -0.1481876E-01
 0.5312000E+00 -0.1520482E-01
 0.5323000E+00 -0.1553040E-01
 0.5334000E+00 -0.1578832E-01
 0.5345000E+00 -0.1597164E-01
 0.5356000E+00 -0.1607375E-01
 0.5367000E+00 -0.1608852E-01
 0.5378000E+00 -0.1601040E-01
 0.5389000E+00 -0.1583452E-01
 0.5400000E+00 -0.1555681E-01
 0.5411000E+00 -0.1517411E-01
 0.5422000E+00 -0.1468426E-01
 0.5433000E+00 -0.1408618E-01
 0.5444000E+00 -0.1337994E-01
 0.5455000E+00 -0.1256684E-01
 0.5466000E+00 -0.1164941E-01
 0.5477000E+00 -0.1063147E-01
 0.5488000E+00 -0.9518126E-02
 0.5499000E+00 -0.8315722E-02
 0.5510000E+00 -0.7031837E-02
 0.5521000E+00 -0.5675214E-02
 0.5532000E+00 -0.4255683E-02
 0.5543000E+00 -0.2784059E-02
 0.5554000E+00 -0.1272027E-02
 0.5565000E+00  0.2679920E-03
 0.5576000E+00  0.1822993E-02
 0.5587000E+00  0.3379549E-02
 0.5598000E+00  0.4923980E-02
 0.5609000E+00  0.6442539E-02
 0.5620000E+00  0.7921591E-02
 0.5631000E+00  0.9347799E-02
 0.5642000E+00  0.1070831E-01
 0.5653000E+00  0.1199093E-01
 0.5664000E+00  0.1318429E-01
 0.5675000E+00  0.1427802E-01
 0.5686000E+00  0.1526286E-01
 0.5697000E+00  0.1613082E-01
 0.5708000E+00  0.1687525E-01
 0.5719000E+00  0.1749098E-01
 0.5730000E+00  0.1797432E-01
 0.5741000E+00  0.1832313E-01
 0.5752000E+00  0.1853683E-01
 0.5763000E+00  0.1861642E-01
 0.5774000E+00  0.1856439E-01
 0.5785000E+00  0.1838471E-01
 0.5796000E+00  0.1808273E-01
 0.5807000E+00  0.1766510E-01
 0.5818000E+00  0.1713965E-01
 0.5829000E+00  0.1651523E-01
 0.5840000E+00  0.1580161E-01
 0.5851000E+00  0.1500931E-01
 0.5862000E+00  0.1414941E-01
 0.5873000E+00  0.1323343E-01
 0.5884000E+00  0.1227314E-01
 0.5895000E+00  0.1128036E-01
 0.5906000E+00  0.1026688E-01
 0.5917000E+00  0.9244191E-02
 0.5928000E+00  0.8223444E-02
 0.5939000E+00  0.7215243E-02
 0.5950000E+00  0.6229549E-02
 0.5961000E+00  0.5275567E-02
 0.5972000E+00  0.4361651E-02
 0.5983000E+00  0.3495230E-02
 0.5994000E+00  0.2682740E-02
 0.6005000E+00  0.1929588E-02
 0.6016000E+00  0.1240128E-02
 0.6027000E+00  0.6176463E-03
 0.6038000E+00  0.6437959E-04
 0.6049000E+00 -0.4184656E-03
 0.6060000E+00 -0.8306732E-03
 0.6071000E+00 -0.1172966E-02
 0.6082000E+00 -0.1446943E-02
 0.6093000E+00 -0.1655003E-02
 0.6104000E+00 -0.1800268E-02
 0.6115000E+00 -0.1886488E-02
 0.6126000E+00 -0.1917951E-02
 0.6137000E+00 -0.1899386E-02
 0.6148000E+00 -0.1835863E-02
 0.6159000E+00 -0.1732703E-02
 0.6170000E+00 -0.1595376E-02
 0.6181000E+00 -0.1429409E-02
 0.6192000E+00 -0.1240307E-02
 0.6203000E+00 -0.1033458E-02
 0.6214000E+00 -0.8140702E-03
 0.6225000E+00 -0.5871013E-03
 0.6236000E+00 -0.3571996E-03
 0.6247000E+00 -0.1286567E-03
 0.6258000E+00  0.9463348E-04
 0.6269000E+00  0.3092066E-03
 0.6280000E+00  0.5120491E-03
 0.6291000E+00  0.7006115E-03
 0.6302000E+00  0.8728109E-03
 0.6313000E+00  0.1027027E-02
 0.6324000E+00  0.1162088E-02
 0.6335000E+00  0.1277254E-02
 0.6346000E+00  0.1372192E-02
 0.6357000E+00  0.1446944E-02
 0.6368000E+00  0.1501898E-02
 0.6379000E+00  0.1537742E-02
 0.6390000E+00  0.1555428E-02
 0.6401000E+00  0.1556131E-02
 0.6412000E+00  0.1541200E-02
 0.6423000E+00  0.1512122E-02
 0.6434000E+00  0.1470478E-02
 0.6445000E+00  0.1417905E-02
 0.6456000E+00  0.1356059E-02
 0.6467000E+00  0.1286577E-02
 0.6478000E+00  0.1211049E-02
 0.6489000E+00  0.1130990E-02
 0.6500000E+00  0.1047819E-02
 0.6511000E+00  0.9628386E-03
 0.6522000E+00  0.8772242E-03
 0.6533000E+00  0.7920141E-03
 0.6544000E+00  0.7081037E-03
 0.6555000E+00  0.6262437E-03
 0.6566000E+00  0.5470428E-03
 0.6577000E+00  0.4709737E-03
 0.6588000E+00  0.3983833E-03
 0.6599000E+00  0.3295037E-03
 0.6610000E+00  0.2644664E-03
 0.6621000E+00  0.2033164E-03
 0.6632000E+00  0.1460273E-03
 0.6643000E+00  0.9251797E-04
 0.6654000E+00  0.4266831E-04
 0.6665000E+00 -0.3664382E-05
 0.6676000E+00 -0.4663040E-04
 0.6687000E+00 -0.8637435E-04
 0.6698000E+00 -0.1230239E-03
 0.6709000E+00 -0.1566806E-03
 0.6720000E+00 -0.1874124E-03
 0.6731000E+00 -0.2152478E-03
 0.6742000E+00 -0.2401730E-03
 0.6753000E+00 -0.2621302E-03
 0.6764000E+00 -0.2810190E-03
 0.6775000E+00 -0.2967009E-03
 0.6786000E+00 -0.3090044E-03
 0.6797000E+00 -0.3177330E-03
 0.6808000E+00 -0.3226729E-03
 0.6819000E+00 -0.3236026E-03
 0.6830000E+00 -0.3203030E-03
 0.6841000E+00 -0.3125685E-03
 0.6852000E+00 -0.3002178E-03
 0.6863000E+00 -0.2831050E-03
 0.6874000E+00 -0.2611297E-03
 0.6885000E+00 -0.2342456E-03
 0.6896000E+00 -0.2024682E-03
 0.6907000E+00 -0.1658813E-03
 0.6918000E+00 -0.1246418E-03
 0.6929000E+00 -0.7898321E-04
 0.6940000E+00 -0.2921680E-04
 0.6951000E+00  0.2426904E-04
 0.6962000E+00  0.8101166E-04
 0.6973000E+00  0.1404789E-03
 0.6984000E+00  0.2020750E-03
 0.6995000E+00  0.2651485E-03
 0.7006000E+00  0.3290010E-03
 0.7017000E+00  0.3928981E-03
 0.7028000E+00  0.4560814E-03
 0.7039000E+00  0.5177826E-03
 0.7050000E+00  0.5772368E-03
 0.7061000E+00  0.6336966E-03
 0.7072000E+00  0.6864457E-03
 0.7083000E+00  0.7348110E-03
 0.7094000E+00  0.7781755E-03
 0.7105000E+00  0.8159903E-03
 0.7116000E+00  0.8477856E-03
 0.7127000E+00  0.8731812E-03
 0.7138000E+00  0.8918936E-03
 0.7149000E+00  0.9037435E-03
 0.7160000E+00  0.9086588E-03
 0.7171000E+00  0.9066775E-03
 0.7182000E+00  0.8979479E-03
 0.7193000E+00  0.8827277E-03
 0.7204000E+00  0.8613806E-03
 0.7215000E+00  0.8343707E-03
 0.7226000E+00  0.8022543E-03
 0.7237000E+00  0.7656695E-03
 0.7248000E+00  0.7253241E-03
 0.7259000E+00  0.6819834E-03
 0.7270000E+00  0.6364543E-03
 0.7281000E+00  0.5895716E-03
 0.7292000E+00  0.5421805E-03
 0.7303000E+00  0.4951200E-03
 0.7314000E+00  0.4492051E-03
 0.7325000E+00  0.4052094E-03
 0.7336000E+00  0.3638485E-03
 0.7347000E+00  0.3257648E-03
 0.7358000E+00  0.2915132E-03
 0.7369000E+00  0.2615495E-03
 0.7380000E+00  0.2362194E-03
 0.7391000E+00  0.2157503E-03
 0.7402000E+00  0.2002453E-03
 0.7413000E+00  0.1896797E-03
 0.7424000E+00  0.1839016E-03
 0.7435000E+00  0.1826349E-03
 0.7446000E+00  0.1854851E-03
 0.7457000E+00  0.1919484E-03
 0.7468000E+00  0.2014229E-03
 0.7479000E+00  0.2132223E-03
 0.7490000E+00  0.2265918E-03
 0.7501000E+00  0.2407264E-03
 0.7512000E+00  0.2547899E-03
 0.7523000E+00  0.2679362E-03
 0.7534000E+00  0.2793298E-03
 0.7545000E+00  0.2881668E-03
 0.7556000E+00  0.2936948E-03
 0.7567000E+00  0.2952318E-03
 0.7578000E+00  0.2921835E-03
 0.7589000E+00  0.2840589E-03
 0.7600000E+00  0.2704833E-03
 0.7611000E+00  0.2512092E-03
 0.7622000E+00  0.2261236E-03
 0.7633000E+00  0.1952514E-03
 0.7644000E+00  0.1587559E-03
 0.7655000E+00  0.1169355E-03
 0.7666000E+00  0.7021720E-04
 0.7677000E+00  0.1914716E-04
 0.7688000E+00 -0.3562079E-04
 0.7699000E+00 -0.9333916E-04
 0.7710000E+00 -0.1531830E-03
 0.7721000E+00 -0.2142678E-03
 0.7732000E+00 -0.2756687E-03
 0.7743000E+00 -0.3364408E-03
 0.7754000E+00 -0.3956392E-03
 0.7765000E+00 -0.4523389E-03
 0.7776000E+00 -0.5056533E-03
 0.7787000E+00 -0.5547521E-03
 0.7798000E+00 -0.5988770E-03
 0.7809000E+00 -0.6373569E-03
 0.7820000E+00 -0.6696202E-03
 0.7831000E+00 -0.6952047E-03
 0.7842000E+00 -0.7137654E-03
 0.7853000E+00 -0.7250793E-03
 0.7864000E+00 -0.7290468E-03
 0.7875000E+00 -0.7256912E-03
 0.7886000E+00 -0.7151556E-03
 0.7897000E+00 -0.6976968E-03
 0.7908000E+00 -0.6736784E-03
 0.7919000E+00 -0.6435602E-03
 0.7930000E+00 -0.6078873E-03
 0.7941000E+00 -0.5672757E-03
 0.7952000E+00 -0.5223982E-03
 0.7963000E+00 -0.4739672E-03
 0.7974000E+00 -0.4227181E-03
 0.7985000E+00 -0.3693905E-03
 0.7996000E+00 -0.3147090E-03
 0.8007000E+00 -0.2593643E-03
 0.8018000E+00 -0.2039930E-03
 0.8029000E+00 -0.1491581E-03
 0.8040000E+00 -0.9532853E-04
 0.8051000E+00 -0.4285997E-04
 0.8062000E+00  0.8025014E-05
 0.8073000E+00  0.5725499E-04
 0.8084000E+00  0.1049264E-03
 0.8095000E+00  0.1513185E-03
 0.8106000E+00  0.1969053E-03
 0.8117000E+00  0.2423663E-03
 0.8128000E+00  0.2885938E-03
 0.8139000E+00  0.3366971E-03
 0.8150000E+00  0.3880020E-03
 0.8161000E+00  0.4440464E-03
 0.8172000E+00  0.5065690E-03
 0.8183000E+00  0.5774934E-03
 0.8194000E+00  0.6589063E-03
 0.8205000E+00  0.7530316E-03
 0.8216000E+00  0.8621985E-03
 0.8227000E+00  0.9888045E-03
 0.8238000E+00  0.1135273E-02
 0.8249000E+00  0.1304002E-02
 0.8260000E+00  0.1497312E-02
 0.8271000E+00  0.1717388E-02
 0.8282000E+00  0.1966216E-02
 0.8293000E+00  0.2245523E-02
 0.8304000E+00  0.2556715E-02
 0.8315000E+00  0.2900816E-02
 0.8326000E+00  0.3278402E-02
 0.8337000E+00  0.3689553E-02
 0.8348000E+00  0.4133791E-02
 0.8359000E+00  0.4610040E-02
 0.8370000E+00  0.5116588E-02
 0.8381000E+00  0.5651056E-02
 0.8392000E+00  0.6210389E-02
 0.8403000E+00  0.6790841E-02
 0.8414000E+00  0.7387986E-02
 0.8425000E+00  0.7996734E-02
 0.8436000E+00  0.8611361E-02
 0.8447000E+00  0.9225556E-02
 0.8458000E+00  0.9832475E-02
 0.8469000E+00  0.1042482E-01
 0.8480000E+00  0.1099490E-01
 0.8491000E+00  0.1153476E-01
 0.8502000E+00  0.1203623E-01
 0.8513000E+00  0.1249109E-01
 0.8524000E+00  0.1289112E-01
 0.8535000E+00  0.1322827E-01
 0.8546000E+00  0.1349478E-01
 0.8557000E+00  0.1368325E-01
 0.8568000E+00  0.1378682E-01
 0.8579000E+00  0.1379925E-01
 0.8590000E+00  0.1371503E-01
 0.8601000E+00  0.1352950E-01
 0.8612000E+00  0.1323894E-01
 0.8623000E+00  0.1284062E-01
 0.8634000E+00  0.1233292E-01
 0.8645000E+00  0.1171535E-01
 0.8656000E+00  0.1098859E-01
 0.8667000E+00  0.1015455E-01
 0.8678000E+00  0.9216351E-02
 0.8689000E+00  0.8178322E-02
 0.8700000E+00  0.7045993E-02
 0.8711000E+00  0.5826053E-02
 0.8722000E+00  0.4526289E-02
 0.8733000E+00  0.3155524E-02
 0.8744000E+00  0.1723530E-02
 0.8755000E+00  0.2409327E-03
 0.8766000E+00 -0.1280897E-02
 0.8777000E+00 -0.2829964E-02
 0.8788000E+00 -0.4393781E-02
 0.8799000E+00 -0.5959504E-02
 0.8810000E+00 -0.7514080E-02
 0.8821000E+00 -0.9044392E-02
 0.8832000E+00 -0.1053741E-01
 0.8843000E+00 -0.1198036E-01
 0.8854000E+00 -0.1336082E-01
 0.8865000E+00 -0.1466692E-01
 0.8876000E+00 -0.1588745E-01
 0.8887000E+00 -0.1701199E-01
 0.8898000E+00 -0.1803102E-01
 0.8909000E+00 -0.1893603E-01
 0.8920000E+00 -0.1971961E-01
 0.8931000E+00 -0.2037549E-01
 0.8942000E+00 -0.2089861E-01
 0.8953000E+00 -0.2128514E-01
 0.8964000E+00 -0.2153252E-01
 0.8975000E+00 -0.2163937E-01
 0.8986000E+00 -0.2160558E-01
 0.8997000E+00 -0.2143212E-01
 0.9008000E+00 -0.2112108E-01
 0.9019000E+00 -0.2067552E-01
 0.9030000E+00 -0.2009940E-01
 0.9041000E+00 -0.1939746E-01
 0.9052000E+00 -0.1857508E-01
 0.9063000E+00 -0.1763819E-01
 0.9074000E+00 -0.1659309E-01
 0.9085000E+00 -0.1544639E-01
 0.9096000E+00 -0.1420482E-01
 0.9107000E+00 -0.1287516E-01
 0.9118000E+00 -0.1146413E-01
 0.9129000E+00 -0.9978303E-02
 0.9140000E+00 -0.8424033E-02
 0.9151000E+00 -0.6807429E-02
 0.9162000E+00 -0.5134315E-02
 0.9173000E+00 -0.3410242E-02
 0.9184000E+00 -0.1640507E-02
 0.9195000E+00  0.1697948E-03
 0.9206000E+00  0.2015694E-02
 0.9217000E+00  0.3892255E-02
 0.9228000E+00  0.5794473E-02
 0.9239000E+00  0.7717137E-02
 0.9250000E+00  0.9654710E-02
 0.9261000E+00  0.1160118E-01
 0.9272000E+00  0.1354992E-01
 0.9283000E+00  0.1549356E-01
 0.9294000E+00  0.1742387E-01
 0.9305000E+00  0.1933164E-01
 0.9316000E+00  0.2120660E-01
 0.9327000E+00  0.2303736E-01
 0.9338000E+00  0.2481140E-01
 0.9349000E+00  0.2651504E-01
 0.9360000E+00  0.2813356E-01
 0.9371000E+00  0.2965118E-01
 0.9382000E+00  0.3105129E-01
 0.9393000E+00  0.3231655E-01
 0.9404000E+00  0.3342913E-01
 0.9415000E+00  0.3437094E-01
 0.9426000E+00  0.3512392E-01
 0.9437000E+00  0.3567033E-01
 0.9448000E+00  0.3599309E-01
 0.9459000E+00  0.3607613E-01
 0.9470000E+00  0.3590475E-01
 0.9481000E+00  0.3546595E-01
 0.9492000E+00  0.3474883E-01
 0.9503000E+00  0.3374487E-01
 0.9514000E+00  0.3244830E-01
 0.9525000E+00  0.3085633E-01
 0.9536000E+00  0.2896944E-01
 0.9547000E+00  0.2679153E-01
 0.9558000E+00  0.2433010E-01
 0.9569000E+00  0.2159632E-01
 0.9580000E+00  0.1860503E-01
 0.9591000E+00  0.1537476E-01
 0.9602000E+00  0.1192754E-01
 0.9613000E+00  0.8288816E-02
 0.9624000E+00  0.4487135E-02
 0.9635000E+00  0.5538899E-03
 0.9646000E+00 -0.3477052E-02
 0.9657000E+00 -0.7569761E-02
 0.9668000E+00 -0.1168670E-01
 0.9679000E+00 -0.1578921E-01
 0.9690000E+00 -0.1983804E-01
 0.9701000E+00 -0.2379388E-01
 0.9712000E+00 -0.2761792E-01
 0.9723000E+00 -0.3127240E-01
 0.9734000E+00 -0.3472117E-01
 0.9745000E+00 -0.3793015E-01
 0.9756000E+00 -0.4086789E-01
 0.9767000E+00 -0.4350601E-01
 0.9778000E+00 -0.4581955E-01
 0.9789000E+00 -0.4778737E-01