 -0.12000000000000000          0.0000000000000000     
 -0.11889999999999999          0.0000000000000000     
 -0.11780000000000000          0.0000000000000000     
 -0.11670000000000000          0.0000000000000000     
 -0.11559999999999999          0.0000000000000000     
 -0.11449999999999999          0.0000000000000000     
 -0.11340000000000000          0.0000000000000000     
 -0.11230000000000000          0.0000000000000000     
 -0.11119999999999999          0.0000000000000000     
 -0.11009999999999999          0.0000000000000000     
 -0.10900000000000000          0.0000000000000000     
 -0.10790000000000000          6.3657943260377227E-037
 -0.10679999999999999          4.6655241492061433E-034
 -0.10569999999999999          1.1019213383892980E-032
 -0.10460000000000000          1.2412321253029240E-031
 -0.10349999999999999          8.8312647572088989E-031
 -0.10239999999999999          4.4015767018264419E-030
 -0.10130000000000000          1.5826648820997025E-029
 -0.10020000000000000          3.8911469383047819E-029
  -9.9099999999999994E-002     4.3150991887846379E-029
  -9.7999999999999990E-002    -1.4030992986710833E-028
  -9.6899999999999986E-002    -1.0069447636890235E-027
  -9.5799999999999996E-002    -3.4503500265948462E-027
  -9.4699999999999993E-002    -7.9824519596857819E-027
  -9.3599999999999989E-002    -1.1739104467642008E-026
  -9.2499999999999999E-002    -2.4124165804938061E-027
  -9.1399999999999995E-002     4.7630469525443690E-026
  -9.0299999999999991E-002     1.7413070818904765E-025
  -8.9200000000000002E-002     3.7665877241563691E-025
  -8.8099999999999984E-002     5.1839904816427992E-025
  -8.6999999999999994E-002     2.0296584615795245E-025
  -8.5899999999999990E-002    -1.2210942518789512E-024
  -8.4799999999999986E-002    -4.2438115828631168E-024
  -8.3699999999999997E-002    -8.1112157684936807E-024
  -8.2599999999999993E-002    -9.2999138683659870E-024
  -8.1499999999999989E-002    -8.4924292237354294E-025
  -8.0399999999999999E-002     2.4908551618891585E-023
  -7.9299999999999995E-002     6.7705964961813991E-023
  -7.8199999999999992E-002     1.0567829895603927E-022
  -7.7100000000000002E-002     8.5446597468015812E-023
  -7.5999999999999984E-002    -6.5883881852711883E-023
  -7.4899999999999994E-002    -3.8693353876237352E-022
  -7.3799999999999991E-002    -7.8588440050399564E-022
  -7.2699999999999987E-002    -9.4883967682091771E-022
  -7.1599999999999997E-002    -3.5982979600919884E-022
  -7.0499999999999993E-002     1.4372774128235963E-021
  -6.9399999999999989E-002     4.2909671181220170E-021
  -6.8300000000000000E-002     6.8040532507043493E-021
  -6.7199999999999996E-002     6.1305915463662977E-021
  -6.6099999999999992E-002    -1.0758191000468106E-021
  -6.5000000000000002E-002    -1.6135637814462394E-020
  -6.3899999999999985E-002    -3.4825463997179864E-020
  -6.2799999999999995E-002    -4.4995962974238214E-020
  -6.1699999999999991E-002    -2.8635397900367602E-020
  -6.0599999999999994E-002     2.8908749176796753E-020
  -5.9499999999999990E-002     1.2338072896396308E-019
  -5.8399999999999994E-002     2.1669805068170524E-019
  -5.7299999999999990E-002     2.3541977975685313E-019
  -5.6199999999999986E-002     9.5702258621409082E-020
  -5.5099999999999996E-002    -2.4209365697086659E-019
  -5.3999999999999992E-002    -7.0647546628174922E-019
  -5.2899999999999989E-002    -1.0759771891704474E-018
  -5.1799999999999985E-002    -1.0184938193413481E-018
  -5.0699999999999995E-002    -2.3815706529642628E-019
  -4.9599999999999991E-002     1.2975669515486031E-018
  -4.8499999999999988E-002     3.1527147031823466E-018
  -4.7399999999999998E-002     4.3921301533222744E-018
  -4.6299999999999994E-002     3.8529040364516201E-018
  -4.5199999999999990E-002     7.1935213820768462E-019
  -4.4099999999999986E-002    -4.7933531250645944E-018
  -4.2999999999999997E-002    -1.1010523765950133E-017
  -4.1899999999999993E-002    -1.5002063426198219E-017
  -4.0799999999999989E-002    -1.3576262267525352E-017
  -3.9699999999999985E-002    -4.8106329122726142E-018
  -3.8599999999999995E-002     1.0534238343735641E-017
  -3.7499999999999992E-002     2.8495943347559643E-017
  -3.6399999999999988E-002     4.2737355591126461E-017
  -3.5299999999999984E-002     4.6483614601129489E-017
  -3.4199999999999994E-002     3.4682549829219860E-017
  -3.3099999999999991E-002     5.4006149966330114E-018
  -3.1999999999999987E-002    -3.9833805268896087E-017
  -3.0899999999999997E-002    -9.5878092923195566E-017
  -2.9799999999999993E-002    -1.5252302207302500E-016
  -2.8699999999999989E-002    -1.9120407998869339E-016
  -2.7599999999999986E-002    -1.8212131595920570E-016
  -2.6499999999999996E-002    -8.7251380484480538E-017
  -2.5399999999999992E-002     1.2444269003620774E-016
  -2.4299999999999988E-002     4.4784538705286073E-016
  -2.3199999999999985E-002     8.0731726657400546E-016
  -2.2099999999999995E-002     1.0384592943477886E-015
  -2.0999999999999991E-002     9.1369504720904516E-016
  -1.9899999999999987E-002     2.3011451572469701E-016
  -1.8799999999999983E-002    -1.0509413774902870E-015
  -1.7699999999999994E-002    -2.6645770142569697E-015
  -1.6599999999999990E-002    -3.9892914004150358E-015
  -1.5499999999999986E-002    -4.1659742955401411E-015
  -1.4399999999999996E-002    -2.4213821808440562E-015
  -1.3299999999999992E-002     1.4733270723828581E-015
  -1.2199999999999989E-002     6.7917771447571230E-015
  -1.1099999999999985E-002     1.1735482160045864E-014
  -9.9999999999999950E-003     1.3811145643720027E-014
  -8.8999999999999913E-003     1.0726134910361180E-014
  -7.7999999999999875E-003     1.5646924398656938E-015
  -6.6999999999999837E-003    -1.2228655282689222E-014
  -5.5999999999999939E-003    -2.6606656469959377E-014
  -4.4999999999999901E-003    -3.5785462597116014E-014
  -3.3999999999999864E-003    -3.4165808302062955E-014
  -2.2999999999999826E-003    -1.8741385467270626E-014
  -1.1999999999999927E-003     8.9445735964110010E-015
  -9.9999999999988987E-005     4.2241476978570654E-014
   1.0000000000000148E-003     7.0744091724401817E-014
   2.1000000000000185E-003     8.3323022085258399E-014
   3.2000000000000084E-003     7.1863849255323431E-014
   4.3000000000000121E-003     3.4378657502338631E-014
   5.4000000000000159E-003    -2.3632707852915023E-014
   6.5000000000000058E-003    -8.9980198520960852E-014
   7.6000000000000234E-003    -1.4829890683969860E-013
   8.7000000000000133E-003    -1.8132640860704049E-013
   9.8000000000000032E-003    -1.7409869679939299E-013
   1.0900000000000021E-002    -1.1685436903007081E-013
   1.2000000000000011E-002    -8.0737870132191161E-015
   1.3100000000000001E-002     1.4192783703439510E-013
   1.4200000000000018E-002     3.0742824736518083E-013
   1.5300000000000008E-002     4.4595192183199396E-013
   1.6400000000000026E-002     5.0256424927959219E-013
   1.7500000000000016E-002     4.2268919453034931E-013
   1.8600000000000005E-002     1.7329594457320557E-013
   1.9700000000000023E-002    -2.3270388826921560E-013
   2.0800000000000013E-002    -7.1891321161016778E-013
   2.1900000000000003E-002    -1.1466798617563647E-012
   2.3000000000000020E-002    -1.3433974812040815E-012
   2.4100000000000010E-002    -1.1567404566270464E-012
   2.5200000000000000E-002    -5.2113317885372092E-013
   2.6300000000000018E-002     4.8771692109111471E-013
   2.7400000000000008E-002     1.6369875226032018E-012
   2.8500000000000025E-002     2.5775568627663481E-012
   2.9600000000000015E-002     2.9402442196881115E-012
   3.0700000000000005E-002     2.4629697291006297E-012
   3.1800000000000023E-002     1.1064546369587765E-012
   3.2900000000000013E-002    -8.8750173557320656E-013
   3.4000000000000002E-002    -3.0264547550703621E-012
   3.5100000000000020E-002    -4.6883635978752114E-012
   3.6200000000000010E-002    -5.3015919397626166E-012
   3.7300000000000028E-002    -4.5278446381332775E-012
   3.8400000000000017E-002    -2.3874588869572481E-012
   3.9500000000000007E-002     7.1568967501109259E-013
   4.0600000000000025E-002     4.0789773098877015E-012
   4.1700000000000015E-002     6.8693538538015329E-012
   4.2800000000000005E-002     8.3255344627463420E-012
   4.3900000000000022E-002     7.9407448159078956E-012
   4.5000000000000012E-002     5.5870849690359503E-012
   4.6100000000000002E-002     1.5648266718609296E-012
   4.7200000000000020E-002    -3.4223854186198809E-012
   4.8300000000000010E-002    -8.3597541161409863E-012
   4.9400000000000027E-002    -1.2078101065460192E-011
   5.0500000000000017E-002    -1.3474607918115324E-011
   5.1600000000000007E-002    -1.1785084829577061E-011
   5.2700000000000025E-002    -6.8650483532443178E-012
   5.3800000000000014E-002     6.0186349418165804E-013
   5.4900000000000004E-002     9.0735043202022072E-012
   5.6000000000000022E-002     1.6385310623919299E-011
   5.7100000000000012E-002     2.0270287536308466E-011
   5.8200000000000002E-002     1.9067676978798316E-011
   5.9300000000000019E-002     1.2410636808000775E-011
   6.0400000000000009E-002     1.6225116030481143E-012
   6.1500000000000027E-002    -1.0409574919701461E-011
   6.2600000000000017E-002    -1.9963965048249499E-011
   6.3700000000000007E-002    -2.3671410442810323E-011
   6.4800000000000024E-002    -1.9796034338677489E-011
   6.5900000000000014E-002    -9.1311447878682623E-012
   6.7000000000000004E-002     4.9106736895434195E-012
   6.8100000000000022E-002     1.7192165547795698E-011
   6.9200000000000012E-002     2.2552951940617460E-011
   7.0300000000000029E-002     1.7795766243005157E-011
   7.1400000000000019E-002     3.2437224883747278E-012
   7.2500000000000009E-002    -1.6785379176773876E-011
   7.3600000000000027E-002    -3.4924084726459999E-011
   7.4700000000000016E-002    -4.2973500561418441E-011
   7.5800000000000006E-002    -3.4768667159528023E-011
   7.6900000000000024E-002    -8.7660282164692764E-012
   7.8000000000000014E-002     3.0568134346847564E-011
   7.9100000000000004E-002     7.3168481730018181E-011
   8.0200000000000021E-002     1.0564107364100286E-010
   8.1300000000000011E-002     1.1487333160672357E-010
   8.2400000000000029E-002     9.2028722498934113E-011
   8.3500000000000019E-002     3.5815520092820015E-011
   8.4600000000000009E-002    -4.5925476285933980E-011
   8.5700000000000026E-002    -1.3686543885735482E-010
   8.6800000000000016E-002    -2.1508883060401327E-010
   8.7900000000000006E-002    -2.5775939098156697E-010
   8.9000000000000024E-002    -2.4665083832662995E-010
   9.0100000000000013E-002    -1.7339576915367118E-010
   9.1200000000000003E-002    -4.3236820320083842E-011
   9.2300000000000021E-002     1.2380865173243750E-010
   9.3400000000000011E-002     2.9511388593348719E-010
   9.4500000000000028E-002     4.3109278352946023E-010
   9.5600000000000018E-002     4.9368498600822405E-010
   9.6700000000000008E-002     4.5612693422066150E-010
   9.7800000000000026E-002     3.1170399664373555E-010
   9.8900000000000016E-002     7.8867098133987801E-011
  0.10000000000000001         -1.9949282866461042E-010
  0.10110000000000002         -4.6359552133282705E-010
  0.10220000000000001         -6.5026815625393283E-010
  0.10330000000000003         -7.0948736506358408E-010
  0.10440000000000002         -6.1955173455319805E-010
  0.10550000000000001         -3.9610098545912593E-010
  0.10660000000000003         -9.1340473938059314E-011
  0.10770000000000002          2.1763811926291289E-010
  0.10880000000000001          4.4925994335510216E-010
  0.10990000000000003          5.4137137062566914E-010
  0.11100000000000002          4.7168782875609572E-010
  0.11210000000000001          2.6813118015202408E-010
  0.11320000000000002          4.8673435936439795E-012
  0.11430000000000001         -2.1613051124843697E-010
  0.11540000000000003         -2.9377044982229601E-010
  0.11650000000000002         -1.5915603934889361E-010
  0.11760000000000001          1.9938772806757880E-010
  0.11870000000000003          7.2518080954222136E-010
  0.11980000000000002          1.2999646860256055E-009
  0.12090000000000001          1.7677803505313849E-009
  0.12200000000000003          1.9704719232299227E-009
  0.12310000000000001          1.7861821172982884E-009
  0.12420000000000003          1.1613859955348820E-009
  0.12530000000000002          1.2871169939331770E-010
  0.12640000000000001         -1.1935485504713979E-009
  0.12750000000000003         -2.6197578736028239E-009
  0.12860000000000002         -3.9283067004928514E-009
  0.12970000000000001         -4.8983056772579174E-009
  0.13080000000000003         -5.3429473531068391E-009
  0.13190000000000002         -5.1321642839712931E-009
  0.13300000000000001         -4.2004320797860012E-009
  0.13410000000000000         -2.5399866179693848E-009
  0.13520000000000004         -1.8433245399044736E-010
  0.13630000000000003          2.8094791187520491E-009
  0.13740000000000002          6.3697941252202065E-009
  0.13850000000000001          1.0401852889801449E-008
  0.13960000000000000          1.4757435874992162E-008
  0.14070000000000005          1.9184723270962495E-008
  0.14180000000000004          2.3267440070461425E-008
  0.14290000000000003          2.6367774785282100E-008
  0.14400000000000002          2.7589076976380464E-008
  0.14510000000000001          2.5770760408902964E-008
  0.14620000000000000          1.9519232371117178E-008
  0.14730000000000004          7.2666033742345870E-009
  0.14840000000000003         -1.2662945783254979E-008
  0.14950000000000002         -4.2007632003684305E-008
  0.15060000000000001         -8.2572955267203243E-008
  0.15170000000000000         -1.3631027321796632E-007
  0.15280000000000005         -2.0547833485584868E-007
  0.15390000000000004         -2.9288071815125295E-007
  0.15500000000000003         -4.0215594586893066E-007
  0.15610000000000002         -5.3808989548698324E-007
  0.15720000000000001         -7.0692009263521436E-007
  0.15830000000000000         -9.1661227365228587E-007
  0.15940000000000004         -1.1771093557856242E-006
  0.16050000000000003         -1.5005706639596316E-006
  0.16160000000000002         -1.9016380330019930E-006
  0.16270000000000001         -2.3977743419023494E-006
  0.16380000000000000         -3.0097162314227976E-006
  0.16490000000000005         -3.7620743761078258E-006
  0.16600000000000004         -4.6840974882243925E-006
  0.16710000000000003         -5.8105955181067676E-006
  0.16820000000000002         -7.1830068000097085E-006
  0.16930000000000001         -8.8505857218214015E-006
  0.17040000000000000         -1.0871676101782383E-005
  0.17150000000000004         -1.3315076015405476E-005
  0.17260000000000003         -1.6261464424422882E-005
  0.17370000000000002         -1.9804941334750544E-005
  0.17480000000000001         -2.4054679026512180E-005
  0.17590000000000000         -2.9136756868273879E-005
  0.17700000000000005         -3.5196176662406797E-005
  0.17810000000000004         -4.2399158990246626E-005
  0.17920000000000003         -5.0935649712003327E-005
  0.18030000000000002         -6.1022103197325562E-005
  0.18140000000000001         -7.2904447140227234E-005
  0.18250000000000000         -8.6861173683865108E-005
  0.18360000000000004         -1.0320642424349410E-004
  0.18470000000000003         -1.2229302083827700E-004
  0.18580000000000002         -1.4451538214003197E-004
  0.18690000000000001         -1.7031219262788249E-004
  0.18800000000000000         -2.0016883386925050E-004
  0.18910000000000005         -2.3461959144522709E-004
  0.19020000000000004         -2.7424952183372820E-004
  0.19130000000000003         -3.1969587512204573E-004
  0.19240000000000002         -3.7164926966160256E-004
  0.19350000000000001         -4.3085404805817359E-004
  0.19460000000000005         -4.9810789317562766E-004
  0.19570000000000004         -5.7426039913791829E-004
  0.19680000000000003         -6.6021050030983560E-004
  0.19790000000000002         -7.5690262121304644E-004
  0.19900000000000001         -8.6532069310582159E-004
  0.20010000000000000         -9.8648095956184022E-004
  0.20120000000000005         -1.1214230930887751E-003
  0.20230000000000004         -1.2711986954141653E-003
  0.20340000000000003         -1.4368595107032076E-003
  0.20450000000000002         -1.6194420979965818E-003
  0.20560000000000000         -1.8199514551471493E-003
  0.20670000000000005         -2.0393428322217225E-003
  0.20780000000000004         -2.2785008590481930E-003
  0.20890000000000003         -2.5382163852756415E-003
  0.21000000000000002         -2.8191629190421827E-003
  0.21110000000000001         -3.1218695940166481E-003
  0.21220000000000000         -3.4466938170402261E-003
  0.21330000000000005         -3.7937928396704779E-003
  0.21440000000000003         -4.1630943712285921E-003
  0.21550000000000002         -4.5542685027019688E-003
  0.21660000000000001         -4.9666996841229525E-003
  0.21770000000000000         -5.3994594738669627E-003
  0.21880000000000005         -5.8512812291956042E-003
  0.21990000000000004         -6.3205393459370915E-003
  0.22100000000000003         -6.8052256998572952E-003
  0.22210000000000002         -7.3029377563777614E-003
  0.22320000000000001         -7.8108651197626965E-003
  0.22430000000000000         -8.3257825779062874E-003
  0.22540000000000004         -8.8440548565295127E-003
  0.22650000000000003         -9.3616375457037070E-003
  0.22760000000000002         -9.8740962685593542E-003
  0.22870000000000001         -1.0376627948476567E-002
  0.22980000000000000         -1.0864089874838743E-002
  0.23090000000000005         -1.1331041690672191E-002
  0.23200000000000004         -1.1771787830342851E-002
  0.23310000000000003         -1.2180433780051301E-002
  0.23420000000000002         -1.2550948161502403E-002
  0.23530000000000001         -1.2877233940226003E-002
  0.23640000000000000         -1.3153205400613405E-002
  0.23750000000000004         -1.3372867847080265E-002
  0.23860000000000003         -1.3530411425397218E-002
  0.23970000000000002         -1.3620298972966384E-002
  0.24080000000000001         -1.3637360078673454E-002
  0.24190000000000000         -1.3576884865063770E-002
  0.24300000000000005         -1.3434710602026070E-002
  0.24410000000000004         -1.3207319980507184E-002
  0.24520000000000003         -1.2891920009943379E-002
  0.24630000000000002         -1.2486520634020313E-002
  0.24740000000000001         -1.1990008019703628E-002
  0.24850000000000005         -1.1402198295981623E-002
  0.24960000000000004         -1.0723890971962141E-002
  0.25070000000000003         -9.9569012760559843E-003
  0.25180000000000002         -9.1040825820992675E-003
  0.25290000000000001         -8.1693291262692966E-003
  0.25400000000000000         -7.1575675026605765E-003
  0.25510000000000005         -6.0747273196571751E-003
  0.25620000000000004         -4.9276970180489633E-003
  0.25730000000000003         -3.7242642628564793E-003
  0.25840000000000002         -2.4730390645377911E-003
  0.25950000000000001         -1.1833635958347121E-003
  0.26060000000000005          1.3479298471643248E-004
  0.26170000000000004          1.4709515768135699E-003
  0.26280000000000003          2.8142508757379335E-003
  0.26390000000000002          4.1535826224048389E-003
  0.26500000000000001          5.4777348709612707E-003
  0.26610000000000000          6.7755367585383731E-003
  0.26720000000000005          8.0360049502211321E-003
  0.26830000000000004          9.2484892498526077E-003
  0.26940000000000003          1.0402816662233647E-002
  0.27050000000000002          1.1489421798761985E-002
  0.27160000000000001          1.2499474743349847E-002
  0.27270000000000005          1.3424994716279275E-002
  0.27380000000000004          1.4258947491039429E-002
  0.27490000000000003          1.4995330221471873E-002
  0.27600000000000002          1.5629246381339543E-002
  0.27710000000000001          1.6156951995872568E-002
  0.27820000000000000          1.6575898784496265E-002
  0.27930000000000005          1.6884741802376011E-002
  0.28040000000000004          1.7083344723816216E-002
  0.28150000000000003          1.7172753118033620E-002
  0.28260000000000002          1.7155152662873506E-002
  0.28370000000000001          1.7033817110648657E-002
  0.28480000000000005          1.6813026097290379E-002
  0.28590000000000004          1.6497987974313066E-002
  0.28700000000000003          1.6094743461310367E-002
  0.28810000000000002          1.5610057929139276E-002
  0.28920000000000001          1.5051310537352074E-002
  0.29030000000000000          1.4426378843278645E-002
  0.29140000000000005          1.3743510773864065E-002
  0.29250000000000004          1.3011204508070503E-002
  0.29360000000000003          1.2238084652485376E-002
  0.29470000000000002          1.1432785409136982E-002
  0.29580000000000001          1.0603834496396201E-002
  0.29690000000000005          9.7595463270138127E-003
  0.29800000000000004          8.9079246889519747E-003
  0.29910000000000003          8.0565784379911642E-003
  0.30020000000000002          7.2126445094007220E-003
  0.30130000000000001          6.3827259118597844E-003
  0.30240000000000000          5.5728369179945045E-003
  0.30350000000000005          4.7883628357764949E-003
  0.30460000000000004          4.0340308789704078E-003
  0.30570000000000003          3.3138926397323363E-003
  0.30680000000000002          2.6313199108397864E-003
  0.30790000000000001          1.9890115115488135E-003
  0.30900000000000005          1.3890105482917510E-003
  0.31010000000000004          8.3272932704073948E-004
  0.31120000000000003          3.2098260024491761E-004
  0.31230000000000002         -1.4597400515725510E-004
  0.31340000000000001         -5.6839778075185780E-004
  0.31450000000000006         -9.4700831054214175E-004
  0.31560000000000005         -1.2829327327939855E-003
  0.31670000000000004         -1.5776494141761510E-003
  0.31780000000000003         -1.8329325903786511E-003
  0.31890000000000002         -2.0507977401700642E-003
  0.32000000000000001         -2.2334510806539423E-003
  0.32110000000000005         -2.3832386756270996E-003
  0.32220000000000004         -2.5025995236261835E-003
  0.32330000000000003         -2.5940202832482537E-003
  0.32440000000000002         -2.6599928387158302E-003
  0.32550000000000001         -2.7029782180987942E-003
  0.32660000000000006         -2.7253744805294466E-003
  0.32770000000000005         -2.7294927344312680E-003
  0.32880000000000004         -2.7175364597340252E-003
  0.32990000000000003         -2.6915861901760257E-003
  0.33100000000000002         -2.6535878681113938E-003
  0.33210000000000001         -2.6053435235235270E-003
  0.33320000000000005         -2.5485063939990689E-003
  0.33430000000000004         -2.4845804947684329E-003
  0.33540000000000003         -2.4149224751718922E-003
  0.33650000000000002         -2.3407473742946272E-003
  0.33760000000000001         -2.2631364383242291E-003
  0.33870000000000006         -2.1830471365043404E-003
  0.33980000000000005         -2.1013234589035961E-003
  0.34090000000000004         -2.0187060735114173E-003
  0.34200000000000003         -1.9358428912765002E-003
  0.34310000000000002         -1.8532987601944870E-003
  0.34420000000000001         -1.7715648160896483E-003
  0.34530000000000005         -1.6910672576916266E-003
  0.34640000000000004         -1.6121747454006072E-003
  0.34750000000000003         -1.5352059273589052E-003
  0.34860000000000002         -1.4604348758357007E-003
  0.34970000000000001         -1.3880972557020030E-003
  0.35080000000000006         -1.3183937381226086E-003
  0.35190000000000005         -1.2514941389561707E-003
  0.35300000000000004         -1.1875393822958994E-003
  0.35410000000000003         -1.1266422899965376E-003
  0.35520000000000002         -1.0688880970688764E-003
  0.35630000000000001         -1.0143325321246110E-003
  0.35740000000000005         -9.6299943866333436E-004
  0.35850000000000004         -9.1487762700196221E-004
  0.35960000000000003         -8.6991811241069177E-004
  0.36070000000000002         -8.2803219399742731E-004
  0.36180000000000001         -7.8909028250490000E-004
  0.36290000000000006         -7.5292230389651304E-004
  0.36400000000000005         -7.1931899713107458E-004
  0.36510000000000004         -6.8803360942822479E-004
  0.36620000000000003         -6.5878365678272122E-004
  0.36730000000000002         -6.3125207026628856E-004
  0.36840000000000006         -6.0508751535204471E-004
  0.36950000000000005         -5.7990493653538181E-004
  0.37060000000000004         -5.5528581062053682E-004
  0.37170000000000003         -5.3077894942924744E-004
  0.37280000000000002         -5.0590167646643778E-004
  0.37390000000000001         -4.8014181643788898E-004
  0.37500000000000006         -4.5295960685123545E-004
  0.37610000000000005         -4.2378919540803686E-004
  0.37720000000000004         -3.9203947738716409E-004
  0.37830000000000003         -3.5709340962616703E-004
  0.37940000000000002         -3.1830567173150843E-004
  0.38050000000000006         -2.7499867125539343E-004
  0.38160000000000005         -2.2645639163450861E-004
  0.38270000000000004         -1.7191643509912861E-004
  0.38380000000000003         -1.1056013490980587E-004
  0.38490000000000002         -4.1501570262952251E-005
  0.38600000000000001          3.6224291402981807E-005
  0.38710000000000000          1.2367305992178499E-004
  0.38819999999999999          2.2200108976095777E-004
  0.38930000000000009          3.3247395120406041E-004
  0.39040000000000008          4.5647260379269301E-004
  0.39150000000000007          5.9549810323066487E-004
  0.39260000000000006          7.5117493339553444E-004
  0.39370000000000005          9.2525448027321912E-004
  0.39480000000000004          1.1196170618664263E-003
  0.39590000000000003          1.3362708344954210E-003
  0.39700000000000002          1.5773480096258198E-003
  0.39810000000000001          1.8450925506948383E-003
  0.39920000000000000          2.1418412768359064E-003
  0.40029999999999999          2.4699965213768492E-003
  0.40140000000000009          2.8319911963515573E-003
  0.40250000000000008          3.2302478197787123E-003
  0.40360000000000007          3.6671324573327897E-003
  0.40470000000000006          4.1449040532155063E-003
  0.40580000000000005          4.6656582368624511E-003
  0.40690000000000004          5.2312666753283896E-003
  0.40800000000000003          5.8433127217448816E-003
  0.40910000000000002          6.5030185680535497E-003
  0.41020000000000001          7.2111780804705993E-003
  0.41130000000000000          7.9680801514568425E-003
  0.41239999999999999          8.7734404023214023E-003
  0.41350000000000009          9.6263263597358290E-003
  0.41460000000000008          1.0525087002079986E-002
  0.41570000000000007          1.1467292093569611E-002
  0.41680000000000006          1.2449673333696195E-002
  0.41790000000000005          1.3468073725078709E-002
  0.41900000000000004          1.4517415671707570E-002
  0.42010000000000003          1.5591678230080303E-002
  0.42120000000000002          1.6683886897399434E-002
  0.42230000000000001          1.7786125129273515E-002
  0.42340000000000000          1.8889557490932442E-002
  0.42449999999999999          1.9984465665610861E-002
  0.42560000000000009          2.1060311491631171E-002
  0.42670000000000008          2.2105812695377588E-002
  0.42780000000000007          2.3109037284729482E-002
  0.42890000000000006          2.4057521633343803E-002
  0.43000000000000005          2.4938398471808974E-002
  0.43110000000000004          2.5738545244101199E-002
  0.43220000000000003          2.6444744515443486E-002
  0.43330000000000002          2.7043858559613665E-002
  0.43440000000000001          2.7523007544142213E-002
  0.43550000000000000          2.7869765996382388E-002
  0.43659999999999999          2.8072356076968157E-002
  0.43770000000000009          2.8119844418187458E-002
  0.43880000000000008          2.8002345216444711E-002
  0.43990000000000007          2.7711198695818458E-002
  0.44100000000000006          2.7239161315482679E-002
  0.44210000000000005          2.6580562462442694E-002
  0.44320000000000004          2.5731461374836298E-002
  0.44430000000000003          2.4689774672390821E-002
  0.44540000000000002          2.3455380338614034E-002
  0.44650000000000001          2.2030199907959198E-002
  0.44760000000000000          2.0418254214397302E-002
  0.44869999999999999          1.8625691908757021E-002
  0.44980000000000009          1.6660782887408222E-002
  0.45090000000000008          1.4533892000278856E-002
  0.45200000000000007          1.2257401505076176E-002
  0.45310000000000006          9.8456227009801472E-003
  0.45420000000000005          7.3146652703709823E-003
  0.45530000000000004          4.6822740927344661E-003
  0.45640000000000003          1.9676467761304546E-003
  0.45750000000000002         -8.0877963958189410E-004
  0.45860000000000001         -3.6255611293994775E-003
  0.45970000000000000         -6.4604977934540333E-003
  0.46079999999999999         -9.2908982964964165E-003
  0.46190000000000009         -1.2093854647942506E-002
  0.46300000000000008         -1.4846522925116970E-002
  0.46410000000000007         -1.7526397865108855E-002
  0.46520000000000006         -2.0111593032019984E-002
  0.46630000000000005         -2.2581103641450738E-002
  0.46740000000000004         -2.4915070515785114E-002
  0.46850000000000003         -2.7095014012120191E-002
  0.46960000000000002         -2.9104060698451950E-002
  0.47070000000000001         -3.0927153993243917E-002
  0.47180000000000000         -3.2551215427917973E-002
  0.47289999999999999         -3.3965300790534537E-002
  0.47400000000000009         -3.5160695256544403E-002
  0.47510000000000008         -3.6131000529703194E-002
  0.47620000000000007         -3.6872180719042205E-002
  0.47730000000000006         -3.7382572493911782E-002
  0.47840000000000005         -3.7662857038914976E-002