 -0.119999997         0.00000000    
 -0.119000003         0.00000000    
 -0.118000001         0.00000000    
 -0.116999999         0.00000000    
 -0.115999997         0.00000000    
 -0.115000002         0.00000000    
 -0.114000000         0.00000000    
 -0.112999998         0.00000000    
 -0.112000003         0.00000000    
 -0.111000001         0.00000000    
 -0.109999999         0.00000000    
 -0.108999997         0.00000000    
 -0.108000003         0.00000000    
 -0.107000001         0.00000000    
 -0.105999999         0.00000000    
 -0.104999997         0.00000000    
 -0.104000002         0.00000000    
 -0.103000000         0.00000000    
 -0.101999998         0.00000000    
 -0.101000004         0.00000000    
 -0.100000001         0.00000000    
  -9.89999995E-02     0.00000000    
  -9.79999974E-02     0.00000000    
  -9.70000029E-02     0.00000000    
  -9.60000008E-02     0.00000000    
  -9.49999988E-02     0.00000000    
  -9.39999968E-02     0.00000000    
  -9.30000022E-02     0.00000000    
  -9.20000002E-02     0.00000000    
  -9.09999982E-02     0.00000000    
  -9.00000036E-02     0.00000000    
  -8.90000015E-02     0.00000000    
  -8.79999995E-02     0.00000000    
  -8.69999975E-02     0.00000000    
  -8.60000029E-02     0.00000000    
  -8.50000009E-02     0.00000000    
  -8.39999989E-02     0.00000000    
  -8.29999968E-02     0.00000000    
  -8.20000023E-02     0.00000000    
  -8.10000002E-02     0.00000000    
  -7.99999982E-02     0.00000000    
  -7.90000036E-02     0.00000000    
  -7.80000016E-02     0.00000000    
  -7.69999996E-02     0.00000000    
  -7.59999976E-02     0.00000000    
  -7.50000030E-02     0.00000000    
  -7.40000010E-02     0.00000000    
  -7.29999989E-02     0.00000000    
  -7.19999969E-02     0.00000000    
  -7.10000023E-02     0.00000000    
  -7.00000003E-02     0.00000000    
  -6.89999983E-02     0.00000000    
  -6.80000037E-02     0.00000000    
  -6.70000017E-02     0.00000000    
  -6.59999996E-02     0.00000000    
  -6.49999976E-02     0.00000000    
  -6.40000030E-02     0.00000000    
  -6.30000010E-02     0.00000000    
  -6.19999990E-02     0.00000000    
  -6.10000007E-02     0.00000000    
  -5.99999987E-02     0.00000000    
  -5.90000004E-02     0.00000000    
  -5.79999983E-02     0.00000000    
  -5.70000000E-02     0.00000000    
  -5.60000017E-02     0.00000000    
  -5.49999997E-02     0.00000000    
  -5.40000014E-02     0.00000000    
  -5.29999994E-02     0.00000000    
  -5.20000011E-02     0.00000000    
  -5.09999990E-02     0.00000000    
  -5.00000007E-02     0.00000000    
  -4.89999987E-02     0.00000000    
  -4.80000004E-02     0.00000000    
  -4.69999984E-02     0.00000000    
  -4.60000001E-02     0.00000000    
  -4.50000018E-02     0.00000000    
  -4.39999998E-02     0.00000000    
  -4.30000015E-02     0.00000000    
  -4.19999994E-02     0.00000000    
  -4.10000011E-02     0.00000000    
  -3.99999991E-02     0.00000000    
  -3.90000008E-02     0.00000000    
  -3.79999988E-02     0.00000000    
  -3.70000005E-02     0.00000000    
  -3.59999985E-02     0.00000000    
  -3.50000001E-02     0.00000000    
  -3.40000018E-02     0.00000000    
  -3.29999998E-02     0.00000000    
  -3.20000015E-02     0.00000000    
  -3.09999995E-02     0.00000000    
  -2.99999993E-02     0.00000000    
  -2.89999992E-02     0.00000000    
  -2.80000009E-02     0.00000000    
  -2.70000007E-02     0.00000000    
  -2.60000005E-02     0.00000000    
  -2.50000004E-02     0.00000000    
  -2.40000002E-02     0.00000000    
  -2.30000000E-02    -0.00000000    
  -2.19999999E-02    -0.00000000    
  -2.09999997E-02    -1.29036089E-38
  -1.99999996E-02    -1.45206639E-38
  -1.89999994E-02     0.00000000    
  -1.79999992E-02     4.62108325E-38
  -1.70000009E-02     1.09659340E-37
  -1.60000008E-02     1.37569058E-37
  -1.49999997E-02     6.26789761E-38
  -1.40000004E-02    -2.02056589E-37
  -1.30000003E-02    -7.00899134E-37
  -1.20000001E-02    -1.33207235E-36
  -1.09999999E-02    -1.75417295E-36
  -9.99999978E-03    -1.35396247E-36
  -8.99999961E-03     5.68374504E-37
  -8.00000038E-03     4.42175609E-36
  -7.00000022E-03     9.57028611E-36
  -6.00000005E-03     1.35806375E-35
  -4.99999989E-03     1.19623432E-35
  -4.00000019E-03    -7.95519066E-37
  -3.00000003E-03    -2.81869971E-35
  -2.00000009E-03    -6.66794694E-35
  -1.00000005E-03    -1.00357807E-34
   0.00000000        -9.88069353E-35
   1.00000005E-03    -2.34186685E-35
   2.00000009E-03     1.53390200E-34
   3.00000003E-03     4.16235892E-34
   4.00000019E-03     6.71726650E-34
   4.99999989E-03     7.32174197E-34
   6.00000005E-03     3.48974403E-34
   7.00000022E-03    -6.77151694E-34
   8.00000038E-03    -2.30837538E-33
   8.99999961E-03    -4.05679300E-33
   9.99999978E-03    -4.86703959E-33
   1.09999999E-02    -3.26674729E-33
   1.20000001E-02     2.05923798E-33
   1.30000003E-02     1.12512545E-32
   1.40000004E-02     2.20695744E-32
   1.49999997E-02     2.91155815E-32
   1.60000008E-02     2.43738430E-32
   1.70000009E-02    -7.97721404E-35
   1.79999992E-02    -4.69950446E-32
   1.89999994E-02    -1.07604471E-31
   1.99999996E-02    -1.56895323E-31
   2.09999997E-02    -1.54826747E-31
   2.19999999E-02    -5.78079557E-32
   2.30000000E-02     1.57936200E-31
   2.40000002E-02     4.65384608E-31
   2.50000004E-02     7.60497308E-31
   2.60000005E-02     8.60278394E-31
   2.70000007E-02     5.45812167E-31
   2.80000009E-02    -3.39251032E-31
   2.89999992E-02    -1.74860559E-30
   2.99999993E-02    -3.30035367E-30
   3.09999995E-02    -4.23311352E-30
   3.20000015E-02    -3.54390632E-30
   3.29999998E-02    -3.66388494E-31
   3.40000018E-02     5.44450916E-30
   3.50000001E-02     1.26960763E-29
   3.59999985E-02     1.85278448E-29
   3.70000005E-02     1.87555815E-29
   3.79999988E-02     9.18037014E-30
   3.90000008E-02    -1.21689966E-29
   3.99999991E-02    -4.24194827E-29
   4.10000011E-02    -7.20056456E-29
   4.19999994E-02    -8.50940368E-29
   4.30000015E-02    -6.35837225E-29
   4.39999998E-02     5.03699894E-30
   4.50000018E-02     1.17533305E-28
   4.60000001E-02     2.46224486E-28
   4.69999984E-02     3.37149709E-28
   4.80000004E-02     3.20400233E-28
   4.89999987E-02     1.35026611E-28
   5.00000007E-02    -2.34969303E-28
   5.09999990E-02    -7.24766968E-28
   5.20000011E-02    -1.17090878E-27
   5.29999994E-02    -1.33119825E-27
   5.40000014E-02    -9.54963118E-28
   5.49999997E-02     1.01018637E-28
   5.60000017E-02     1.74065991E-27
   5.70000000E-02     3.53524509E-27
   5.79999983E-02     4.73533557E-27
   5.90000004E-02     4.44140091E-27
   5.99999987E-02     1.94055315E-27
   6.10000007E-02    -2.85798856E-27
   6.19999990E-02    -9.03907717E-27
   6.30000010E-02    -1.45560799E-26
   6.40000030E-02    -1.65590702E-26
   6.49999976E-02    -1.22641270E-26
   6.59999996E-02    -2.46718078E-28
   6.70000017E-02     1.82121544E-26
   6.80000037E-02     3.83103365E-26
   6.89999983E-02     5.20736266E-26
   7.00000003E-02     5.02917840E-26
   7.10000023E-02     2.59575112E-26
   7.19999969E-02    -2.15874252E-26
   7.29999989E-02    -8.32896107E-26
   7.40000010E-02    -1.39653611E-25
   7.50000030E-02    -1.64198452E-25
   7.59999976E-02    -1.31541028E-25
   7.69999996E-02    -2.87313465E-26
   7.80000016E-02     1.33566465E-25
   7.90000036E-02     3.14908590E-25
   7.99999982E-02     4.48775031E-25
   8.10000002E-02     4.58895426E-25
   8.20000023E-02     2.86764719E-25
   8.29999968E-02    -7.64353893E-26
   8.39999989E-02    -5.65019553E-25
   8.50000009E-02    -1.03441487E-24
   8.60000029E-02    -1.28749091E-24
   8.69999975E-02    -1.13328349E-24
   8.79999995E-02    -4.67025870E-25
   8.90000015E-02     6.52834858E-25
   9.00000036E-02     1.96331939E-24
   9.09999982E-02     3.02209852E-24
   9.20000002E-02     3.31470004E-24
   9.30000022E-02     2.43178483E-24
   9.39999968E-02     2.71587578E-25
   9.49999988E-02    -2.80436719E-24
   9.60000008E-02    -5.94192319E-24
   9.70000029E-02    -7.94938684E-24
   9.79999974E-02    -7.64227777E-24
   9.89999995E-02    -4.30910576E-24
  0.100000001         1.84301948E-24
  0.101000004         9.44582127E-24
  0.101999998         1.60965032E-23
  0.103000000         1.89313917E-23
  0.104000002         1.55749084E-23
  0.104999997         5.22053711E-24
  0.105999999        -1.05329670E-23
  0.107000001        -2.74965704E-23
  0.108000003        -3.96438798E-23
  0.108999997        -4.08176101E-23
  0.109999999        -2.70403974E-23
  0.111000001         1.26598528E-24
  0.112000003         3.80357143E-23
  0.112999998         7.20756839E-23
  0.114000000         8.97016133E-23
  0.115000002         7.91495701E-23
  0.115999997         3.56323075E-23
  0.116999999        -3.46856555E-23
  0.118000001        -1.13637244E-22
  0.119000003        -1.74218833E-22
  0.119999997        -1.88056892E-22
  0.120999999        -1.35656182E-22
  0.122000001        -1.64059387E-23
  0.123000003         1.45487900E-22
  0.123999998         3.02579351E-22
  0.125000000         3.94898998E-22
  0.126000002         3.68504722E-22
  0.127000004         1.97263593E-22
  0.128000006        -9.92658829E-23
  0.128999993        -4.49583720E-22
  0.129999995        -7.41273736E-22
  0.130999997        -8.50191723E-22
  0.131999999        -6.82296879E-22
  0.133000001        -2.16448312E-22
  0.134000003         4.67096028E-22
  0.135000005         1.18675306E-21
  0.136000007         1.69610254E-21
  0.136999995         1.75364653E-21
  0.137999997         1.20991452E-21
  0.138999999         8.55696357E-23
  0.140000001        -1.38957498E-21
  0.141000003        -2.80069724E-21
  0.142000005        -3.64323259E-21
  0.143000007        -3.47423249E-21
  0.143999994        -2.08129749E-21
  0.144999996         3.85222288E-22
  0.145999998         3.37170107E-21
  0.147000000         6.00896511E-21
  0.148000002         7.32930167E-21
  0.149000004         6.56941753E-21
  0.150000006         3.47620956E-21
  0.150999993        -1.48818749E-21
  0.151999995        -7.13501763E-21
  0.152999997        -1.17792183E-20
  0.153999999        -1.36879344E-20
  0.155000001        -1.16443297E-20
  0.156000003        -5.46201091E-21
  0.157000005         3.73367033E-21
  0.158000007         1.36017703E-20
  0.158999994         2.11067250E-20
  0.159999996         2.33779206E-20
  0.160999998         1.86892444E-20
  0.162000000         7.25436751E-21
  0.163000003        -8.46662574E-21
  0.164000005        -2.41504605E-20
  0.165000007        -3.46923459E-20
  0.165999994        -3.57601423E-20
  0.166999996        -2.53897580E-20
  0.167999998        -5.09032368E-21
  0.169000000         2.00122714E-20
  0.170000002         4.22322393E-20
  0.171000004         5.34597363E-20
  0.172000006         4.78626283E-20
  0.172999993         2.43452324E-20
  0.173999995        -1.21259468E-20
  0.174999997        -5.10144126E-20
  0.175999999        -7.87301718E-20
  0.177000001        -8.27308115E-20
  0.178000003        -5.61385510E-20
  0.179000005        -1.40733987E-21
  0.180000007         6.84111325E-20
  0.180999994         1.31749657E-19
  0.181999996         1.63979354E-19
  0.182999998         1.45137459E-19
  0.184000000         6.78449467E-20
  0.185000002        -5.71716479E-20
  0.186000004        -2.00295879E-19
  0.187000006        -3.18260248E-19
  0.187999994        -3.65011152E-19
  0.188999996        -3.05912820E-19
  0.189999998        -1.31474633E-19
  0.191000000         1.33830210E-19
  0.192000002         4.31422692E-19
  0.193000004         6.78955379E-19
  0.194000006         7.90043253E-19
  0.194999993         6.99226422E-19
  0.195999995         3.85654737E-19
  0.196999997        -1.11790448E-19
  0.197999999        -6.93933810E-19
  0.199000001        -1.21800195E-18
  0.200000003        -1.52965858E-18
  0.201000005        -1.50369224E-18
  0.202000007        -1.08316778E-18
  0.202999994        -3.05812938E-19
  0.203999996         6.91508051E-19
  0.204999998         1.69440390E-18
  0.206000000         2.45602311E-18
  0.207000002         2.75612155E-18
  0.208000004         2.45977479E-18
  0.209000006         1.56005323E-18
  0.209999993         1.91949626E-19
  0.210999995        -1.38833704E-18
  0.211999997        -2.85563737E-18
  0.213000000        -3.88770297E-18
  0.214000002        -4.23895529E-18
  0.215000004        -3.79715689E-18
  0.216000006        -2.60830313E-18
  0.216999993        -8.63716973E-19
  0.217999995         1.14600828E-18
  0.218999997         3.09611036E-18
  0.219999999         4.69250752E-18
  0.221000001         5.71807582E-18
  0.222000003         6.04916520E-18
  0.223000005         5.64240079E-18
  0.224000007         4.50344960E-18
  0.224999994         2.65729559E-18
  0.225999996         1.40261423E-19
  0.226999998        -2.97373994E-18
  0.228000000        -6.51483315E-18
  0.229000002        -1.01460353E-17
  0.230000004        -1.33125364E-17
  0.231000006        -1.52491887E-17
  0.231999993        -1.50754213E-17
  0.232999995        -1.19848718E-17
  0.233999997        -5.50592798E-18
  0.234999999         4.22285546E-18
  0.236000001         1.62418535E-17
  0.237000003         2.87085373E-17
  0.238000005         3.90505681E-17
  0.238999993         4.43574479E-17
  0.239999995         4.19754622E-17
  0.240999997         3.02081529E-17
  0.241999999         8.97439679E-18
  0.243000001        -1.97463497E-17
  0.244000003        -5.18365635E-17
  0.245000005        -8.14298036E-17
  0.246000007        -1.01776336E-16
  0.246999994        -1.06488770E-16
  0.247999996        -9.09701672E-17
  0.248999998        -5.37533759E-17
  0.250000000         2.54533587E-18
  0.250999987         7.09236436E-17
  0.252000004         1.40516479E-16
  0.252999991         1.97983575E-16
  0.254000008         2.29637382E-16
  0.254999995         2.24027456E-16
  0.256000012         1.74567694E-16
  0.256999999         8.17205410E-17
  0.257999986        -4.57444709E-17
  0.259000003        -1.90812383E-16
  0.259999990        -3.29828118E-16
  0.261000007        -4.35631401E-16
  0.261999995        -4.81930248E-16
  0.263000011        -4.48344545E-16
  0.263999999        -3.25323067E-16
  0.264999986        -1.18004077E-16
  0.266000003         1.51899332E-16
  0.266999990         4.46925606E-16
  0.268000007         7.17779266E-16
  0.268999994         9.10203606E-16
  0.270000011         9.74091383E-16
  0.270999998         8.73543331E-16
  0.272000015         5.96149465E-16
  0.273000002         1.59587161E-16
  0.273999989        -3.86206790E-16
  0.275000006        -9.62494761E-16
  0.275999993        -1.47115615E-15
  0.277000010        -1.80929816E-15
  0.277999997        -1.88717141E-15
  0.279000014        -1.64656905E-15
  0.280000001        -1.07636479E-15
  0.280999988        -2.21903071E-16
  0.282000005         8.14362410E-16
  0.282999992         1.88230838E-15
  0.284000009         2.80331843E-15
  0.284999996         3.39706058E-15
  0.286000013         3.51213360E-15
  0.287000000         3.05577512E-15
  0.287999988         2.01747726E-15
  0.289000005         4.81865715E-16
  0.289999992        -1.37246993E-15
  0.291000009        -3.28956659E-15
  0.291999996        -4.96714647E-15
  0.293000013        -6.09886253E-15
  0.294000000        -6.42242912E-15
  0.294999987        -5.76694335E-15
  0.296000004        -4.09208605E-15
  0.296999991        -1.51230311E-15
  0.298000008         1.69961428E-15
  0.298999995         5.13280875E-15
  0.300000012         8.28272607E-15
  0.300999999         1.06162171E-14
  0.301999986         1.16503978E-14
  0.303000003         1.10350394E-14
  0.303999990         8.62602514E-15
  0.305000007         4.53684865E-15
  0.305999994        -8.43444492E-16
  0.307000011        -6.87369439E-15
  0.307999998        -1.27274654E-14
  0.308999985        -1.74981100E-14
  0.310000002        -2.03295022E-14
  0.310999990        -2.05537102E-14
  0.312000006        -1.78134180E-14
  0.312999994        -1.21472258E-14
  0.314000010        -4.02059647E-15
  0.314999998         5.70636949E-15
  0.316000015         1.58724064E-14
  0.317000002         2.51568650E-14
  0.317999989         3.22480961E-14
  0.319000006         3.60123749E-14
  0.319999993         3.56382811E-14
  0.321000010         3.07380633E-14
  0.321999997         2.13974939E-14
  0.323000014         8.17677496E-15
  0.324000001        -7.92627682E-15
  0.324999988        -2.55360613E-14
  0.326000005        -4.29702491E-14
  0.326999992        -5.83188351E-14
  0.328000009        -6.95392908E-14
  0.328999996        -7.45854794E-14
  0.330000013        -7.15908994E-14
  0.331000000        -5.91196403E-14
  0.331999987        -3.64798320E-14
  0.333000004        -4.06731838E-15
  0.333999991         3.63222297E-14
  0.335000008         8.12971923E-14
  0.335999995         1.25881632E-13
  0.337000012         1.63810927E-13
  0.338000000         1.88147539E-13
  0.338999987         1.92192223E-13
  0.340000004         1.70596434E-13
  0.340999991         1.20516187E-13
  0.342000008         4.26070786E-14
  0.342999995        -5.83462112E-14
  0.344000012        -1.73334789E-13
  0.344999999        -2.89656916E-13
  0.345999986        -3.92064853E-13
  0.347000003        -4.64409869E-13
  0.347999990        -4.91580301E-13
  0.349000007        -4.61480734E-13
  0.349999994        -3.66807306E-13
  0.351000011        -2.06426076E-13
  0.351999998         1.37525531E-14
  0.352999985         2.80420598E-13
  0.354000002         5.72998029E-13
  0.354999989         8.64183562E-13
  0.356000006         1.12092822E-12
  0.356999993         1.30592726E-12
  0.358000010         1.37983201E-12
  0.358999997         1.30445383E-12
  0.360000014         1.04720085E-12
  0.361000001         5.86827624E-13
  0.361999989        -7.97410979E-14
  0.363000005        -9.30183231E-13
  0.363999993        -1.91030460E-12
  0.365000010        -2.92989266E-12
  0.365999997        -3.86270573E-12
  0.367000014        -4.55232249E-12
  0.368000001        -4.82510993E-12
  0.368999988        -4.51066354E-12
  0.370000005        -3.46884587E-12
  0.370999992        -1.62107740E-12
  0.372000009         1.01791318E-12
  0.372999996         4.31287905E-12
  0.374000013         7.99106354E-12
  0.375000000         1.16410579E-11
  0.375999987         1.47321669E-11
  0.377000004         1.66570733E-11
  0.377999991         1.67978392E-11
  0.379000008         1.46118950E-11
  0.379999995         9.73097818E-12
  0.381000012         2.06234986E-12
  0.381999999        -8.12130398E-12
  0.382999986        -2.01188007E-11
  0.384000003        -3.27799315E-11
  0.384999990        -4.45413914E-11
  0.386000007        -5.35290250E-11
  0.386999995        -5.77297446E-11
  0.388000011        -5.52280131E-11
  0.388999999        -4.44918442E-11
  0.389999986        -2.46825910E-11
  0.391000003         4.04674818E-12
  0.391999990         4.03076045E-11
  0.393000007         8.13326489E-11
  0.393999994         1.22977920E-10
  0.395000011         1.59906713E-10
  0.395999998         1.85976359E-10
  0.397000015         1.94827904E-10
  0.398000002         1.80651771E-10
  0.398999989         1.39074030E-10
  0.400000006         6.80789869E-11
  0.400999993        -3.11395562E-11
  0.402000010        -1.53521501E-10
  0.402999997        -2.89804458E-10
  0.404000014        -4.26623264E-10
  0.405000001        -5.47132006E-10
  0.405999988        -6.32191355E-10
  0.407000005        -6.62106980E-10
  0.407999992        -6.18837426E-10
  0.409000009        -4.88518226E-10
  0.409999996        -2.64082423E-10
  0.411000013         5.22990956E-11
  0.412000000         4.47271442E-10
  0.412999988         8.95165719E-10
  0.414000005         1.35798561E-09
  0.414999992         1.78675086E-09
  0.416000009         2.12434204E-09
  0.416999996         2.30985875E-09
  0.418000013         2.28435404E-09
  0.419000000         1.99763051E-09
  0.419999987         1.41562262E-09
  0.421000004         5.27732247E-10
  0.421999991        -6.46622422E-10
  0.423000008        -2.05304485E-09
  0.423999995        -3.59957331E-09
  0.425000012        -5.15716625E-09
  0.425999999        -6.56378774E-09
  0.426999986        -7.63237207E-09
  0.428000003        -8.16264656E-09
  0.428999990        -7.95645150E-09
  0.430000007        -6.83586521E-09
  0.430999994        -4.66312189E-09
  0.432000011        -1.36108569E-09
  0.432999998         3.06710324E-09
  0.433999985         8.52059312E-09
  0.435000002         1.47868482E-08
  0.435999990         2.15321219E-08
  0.437000006         2.82969115E-08
  0.437999994         3.44964270E-08
  0.439000010         3.94254585E-08
  0.439999998         4.22664641E-08
  0.441000015         4.20989075E-08
  0.442000002         3.79074905E-08
  0.442999989         2.85863706E-08
  0.444000006         1.29361881E-08
  0.444999993        -1.03494333E-08
  0.446000010        -4.27111750E-08
  0.446999997        -8.57680860E-08
  0.448000014        -1.41381193E-07
  0.449000001        -2.11738580E-07
  0.449999988        -2.99463778E-07
  0.451000005        -4.07748502E-07
  0.451999992        -5.40510143E-07
  0.453000009        -7.02575107E-07
  0.453999996        -8.99887311E-07
  0.455000013        -1.13974363E-06
  0.456000000        -1.43105592E-06
  0.456999987        -1.78464416E-06
  0.458000004        -2.21355845E-06
  0.458999991        -2.73344131E-06
  0.460000008        -3.36292806E-06
  0.460999995        -4.12409690E-06
  0.462000012        -5.04297532E-06
  0.463000000        -6.15011186E-06
  0.463999987        -7.48122011E-06
  0.465000004        -9.07791309E-06
  0.465999991        -1.09885250E-05
  0.467000008        -1.32690411E-05
  0.467999995        -1.59841420E-05
  0.469000012        -1.92083662E-05
  0.469999999        -2.30273945E-05
  0.470999986        -2.75394614E-05
  0.472000003        -3.28569186E-05
  0.472999990        -3.91078756E-05
  0.474000007        -4.64380246E-05
  0.474999994        -5.50125224E-05
  0.476000011        -6.50180082E-05
  0.476999998        -7.66646990E-05
  0.477999985        -9.01885651E-05
  0.479000002        -1.05853505E-04
  0.479999989        -1.23953636E-04
  0.481000006        -1.44815494E-04
  0.481999993        -1.68800179E-04
  0.483000010        -1.96305526E-04
  0.483999997        -2.27768018E-04
  0.485000014        -2.63664610E-04
  0.486000001        -3.04514280E-04
  0.486999989        -3.50879185E-04
  0.488000005        -4.03365673E-04
  0.488999993        -4.62624535E-04
  0.490000010        -5.29351062E-04
  0.490999997        -6.04283996E-04
  0.492000014        -6.88204425E-04
  0.493000001        -7.81933020E-04
  0.493999988        -8.86327180E-04
  0.495000005        -1.00227632E-03
  0.495999992        -1.13069697E-03
  0.497000009        -1.27252575E-03
  0.497999996        -1.42871193E-03
  0.499000013        -1.60020764E-03
  0.500000000        -1.78795797E-03
  0.500999987        -1.99288758E-03
  0.501999974        -2.21588882E-03
  0.503000021        -2.45780568E-03
  0.504000008        -2.71941791E-03
  0.504999995        -3.00142309E-03
  0.505999982        -3.30441818E-03
  0.507000029        -3.62887955E-03
  0.508000016        -3.97514226E-03
  0.509000003        -4.34337882E-03
  0.509999990        -4.73357737E-03
  0.510999978        -5.14551997E-03
  0.512000024        -5.57876145E-03
  0.513000011        -6.03260845E-03
  0.513999999        -6.50609890E-03
  0.514999986        -6.99798530E-03
  0.515999973        -7.50671653E-03
  0.517000020        -8.03042483E-03
  0.518000007        -8.56691226E-03
  0.518999994        -9.11364798E-03
  0.519999981        -9.66775604E-03
  0.521000028        -1.02260252E-02
  0.522000015        -1.07849045E-02
  0.523000002        -1.13405176E-02
  0.523999989        -1.18886754E-02
  0.524999976        -1.24248983E-02
  0.526000023        -1.29444385E-02
  0.527000010        -1.34423152E-02
  0.527999997        -1.39133530E-02
  0.528999984        -1.43522201E-02
  0.529999971        -1.47534804E-02
  0.531000018        -1.51116485E-02
  0.532000005        -1.54212452E-02
  0.532999992        -1.56768598E-02
  0.533999979        -1.58732217E-02
  0.535000026        -1.60052590E-02
  0.536000013        -1.60681792E-02
  0.537000000        -1.60575323E-02
  0.537999988        -1.59692913E-02
  0.538999975        -1.57999117E-02
  0.540000021        -1.55464020E-02
  0.541000009        -1.52063929E-02
  0.541999996        -1.47781912E-02
  0.542999983        -1.42608350E-02
  0.544000030        -1.36541370E-02
  0.545000017        -1.29587231E-02
  0.546000004        -1.21760638E-02
  0.546999991        -1.13084922E-02
  0.547999978        -1.03592128E-02
  0.549000025        -9.33229830E-03
  0.550000012        -8.23267736E-03
  0.550999999        -7.06611015E-03
  0.551999986        -5.83914714E-03
  0.552999973        -4.55908524E-03
  0.554000020        -3.23390472E-03
  0.555000007        -1.87219889E-03
  0.555999994        -4.83095762E-04
  0.556999981         9.23832820E-04
  0.558000028         2.33866787E-03
  0.559000015         3.75124719E-03
  0.560000002         5.15127461E-03
  0.560999990         6.52843108E-03
  0.561999977         7.87248928E-03
  0.563000023         9.17343143E-03
  0.564000010         1.04215592E-02
  0.564999998         1.16076050E-02
  0.565999985         1.27228415E-02
  0.566999972         1.37591781E-02
  0.568000019         1.47092557E-02
  0.569000006         1.55665288E-02
  0.569999993         1.63253397E-02
  0.570999980         1.69809777E-02
  0.572000027         1.75297316E-02
  0.573000014         1.79689191E-02
  0.574000001         1.82969254E-02
  0.574999988         1.85131989E-02
  0.575999975         1.86182503E-02
  0.577000022         1.86136421E-02
  0.578000009         1.85019486E-02
  0.578999996         1.82867218E-02
  0.579999983         1.79724284E-02
  0.580999970         1.75643899E-02
  0.582000017         1.70687083E-02
  0.583000004         1.64921712E-02
  0.583999991         1.58421826E-02
  0.584999979         1.51266456E-02
  0.586000025         1.43538704E-02
  0.587000012         1.35324709E-02
  0.588000000         1.26712574E-02
  0.588999987         1.17791370E-02
  0.589999974         1.08650047E-02
  0.591000021         9.93764587E-03
  0.592000008         9.00564343E-03
  0.592999995         8.07728618E-03
  0.593999982         7.16048293E-03
  0.595000029         6.26269076E-03
  0.596000016         5.39084570E-03
  0.597000003         4.55130357E-03
  0.597999990         3.74979083E-03
  0.598999977         2.99136736E-03
  0.600000024         2.28039525E-03
  0.601000011         1.62051967E-03
  0.601999998         1.01465965E-03
  0.602999985         4.65006568E-04
  0.603999972        -2.69657285E-05
  0.605000019        -4.60484443E-04
  0.606000006        -8.35451356E-04
  0.606999993        -1.15241052E-03
  0.607999980        -1.41250796E-03
  0.609000027        -1.61744724E-03
  0.610000014        -1.76943839E-03
  0.611000001        -1.87114486E-03
  0.611999989        -1.92562491E-03
  0.612999976        -1.93627295E-03
  0.614000022        -1.90675829E-03
  0.615000010        -1.84096396E-03
  0.615999997        -1.74292712E-03
  0.616999984        -1.61678041E-03
  0.617999971        -1.46669464E-03
  0.619000018        -1.29682489E-03
  0.620000005        -1.11125875E-03
  0.620999992        -9.13969241E-04
  0.621999979        -7.08771404E-04
  0.623000026        -4.99283953E-04
  0.624000013        -2.88896204E-04
  0.625000000        -8.07402976E-05
  0.625999987         1.22331418E-04
  0.626999974         3.17764236E-04
  0.628000021         5.03313495E-04
  0.629000008         6.77052652E-04
  0.629999995         8.37376108E-04
  0.630999982         9.82997124E-04
  0.632000029         1.11294154E-03
  0.633000016         1.22653611E-03
  0.634000003         1.32339390E-03
  0.634999990         1.40339683E-03
  0.635999978         1.46667543E-03
  0.637000024         1.51358661E-03
  0.638000011         1.54469011E-03
  0.638999999         1.56072329E-03
  0.639999986         1.56257523E-03
  0.640999973         1.55125908E-03
  0.642000020         1.52788567E-03
  0.643000007         1.49363722E-03
  0.643999994         1.44974131E-03
  0.644999981         1.39744778E-03
  0.646000028         1.33800681E-03
  0.647000015         1.27264857E-03
  0.648000002         1.20256585E-03
  0.648999989         1.12889637E-03
  0.649999976         1.05270988E-03
  0.651000023         9.74996190E-04
  0.652000010         8.96656129E-04
  0.652999997         8.18495755E-04
  0.653999984         7.41222815E-04
  0.654999971         6.65446045E-04
  0.656000018         5.91675867E-04
  0.657000005         5.20327652E-04
  0.657999992         4.51725646E-04
  0.658999979         3.86108906E-04
  0.660000026         3.23638436E-04
  0.661000013         2.64405797E-04
  0.662000000         2.08442492E-04
  0.662999988         1.55730406E-04
  0.663999975         1.06212145E-04
  0.665000021         5.98012957E-05
  0.666000009         1.63921395E-05
  0.666999996        -2.41311918E-05
  0.667999983        -6.18863269E-05
  0.669000030        -9.69848043E-05
  0.670000017        -1.29525200E-04
  0.671000004        -1.59587042E-04
  0.671999991        -1.87225902E-04
  0.672999978        -2.12469764E-04
  0.674000025        -2.35316897E-04
  0.675000012        -2.55735009E-04
  0.675999999        -2.73662125E-04
  0.676999986        -2.89008516E-04
  0.677999973        -3.01659835E-04
  0.679000020        -3.11481213E-04
  0.680000007        -3.18322069E-04
  0.680999994        -3.22021428E-04
  0.681999981        -3.22413980E-04
  0.683000028        -3.19336366E-04
  0.684000015        -3.12633871E-04
  0.685000002        -3.02167406E-04
  0.685999990        -2.87820207E-04
  0.686999977        -2.69504410E-04
  0.688000023        -2.47166987E-04
  0.689000010        -2.20795017E-04