-0.1200000E+00  0.0000000E+00
-0.1189000E+00  0.0000000E+00
-0.1178000E+00  0.0000000E+00
-0.1167000E+00  0.0000000E+00
-0.1156000E+00  0.0000000E+00
-0.1145000E+00  0.0000000E+00
-0.1134000E+00  0.0000000E+00
-0.1123000E+00  0.0000000E+00
-0.1112000E+00  0.0000000E+00
-0.1101000E+00  0.0000000E+00
-0.1090000E+00  0.0000000E+00
-0.1079000E+00  0.0000000E+00
-0.1068000E+00  0.0000000E+00
-0.1057000E+00  0.0000000E+00
-0.1046000E+00  0.0000000E+00
-0.1035000E+00  0.0000000E+00
-0.1024000E+00  0.0000000E+00
-0.1013000E+00  0.0000000E+00
-0.1002000E+00  0.0000000E+00
-0.9910000E-01  0.0000000E+00
-0.9800000E-01  0.0000000E+00
-0.9690000E-01  0.0000000E+00
-0.9580000E-01  0.0000000E+00
-0.9470000E-01  0.0000000E+00
-0.9360000E-01  0.0000000E+00
-0.9250000E-01  0.0000000E+00
-0.9140000E-01  0.0000000E+00
-0.9030000E-01  0.0000000E+00
-0.8920000E-01  0.0000000E+00
-0.8810000E-01  0.0000000E+00
-0.8700000E-01  0.0000000E+00
-0.8590000E-01  0.0000000E+00
-0.8480000E-01  0.0000000E+00
-0.8370000E-01  0.0000000E+00
-0.8260000E-01  0.0000000E+00
-0.8150000E-01  0.0000000E+00
-0.8040000E-01  0.0000000E+00
-0.7930000E-01  0.0000000E+00
-0.7820000E-01  0.0000000E+00
-0.7710000E-01  0.0000000E+00
-0.7600000E-01  0.0000000E+00
-0.7490000E-01  0.0000000E+00
-0.7380000E-01  0.0000000E+00
-0.7270000E-01  0.0000000E+00
-0.7160000E-01  0.0000000E+00
-0.7050000E-01  0.0000000E+00
-0.6940000E-01  0.0000000E+00
-0.6830000E-01  0.0000000E+00
-0.6720000E-01  0.0000000E+00
-0.6610000E-01  0.0000000E+00
-0.6500000E-01  0.0000000E+00
-0.6390000E-01  0.0000000E+00
-0.6280000E-01  0.0000000E+00
-0.6170000E-01  0.0000000E+00
-0.6060000E-01  0.0000000E+00
-0.5950000E-01  0.0000000E+00
-0.5840000E-01  0.0000000E+00
-0.5730000E-01  0.0000000E+00
-0.5620000E-01  0.0000000E+00
-0.5510000E-01  0.0000000E+00
-0.5400000E-01  0.0000000E+00
-0.5290000E-01  0.0000000E+00
-0.5180000E-01  0.0000000E+00
-0.5070000E-01  0.0000000E+00
-0.4960000E-01  0.0000000E+00
-0.4850000E-01  0.0000000E+00
-0.4740000E-01  0.0000000E+00
-0.4630000E-01  0.0000000E+00
-0.4520000E-01  0.0000000E+00
-0.4410000E-01  0.0000000E+00
-0.4300000E-01  0.0000000E+00
-0.4190000E-01  0.0000000E+00
-0.4080000E-01  0.0000000E+00
-0.3970000E-01  0.0000000E+00
-0.3860000E-01  0.0000000E+00
-0.3750000E-01  0.0000000E+00
-0.3640000E-01  0.0000000E+00
-0.3530000E-01  0.0000000E+00
-0.3420000E-01  0.0000000E+00
-0.3310000E-01  0.0000000E+00
-0.3200000E-01  0.0000000E+00
-0.3090000E-01 -0.0000000E+00
-0.2980000E-01 -0.0000000E+00
-0.2870000E-01 -0.0000000E+00
-0.2760000E-01  0.0000000E+00
-0.2650000E-01  0.0000000E+00
-0.2540000E-01 -0.0000000E+00
-0.2430000E-01 -0.0000000E+00
-0.2320000E-01 -0.0000000E+00
-0.2210000E-01  0.0000000E+00
-0.2100000E-01  0.0000000E+00
-0.1990000E-01 -0.2105869E-37
-0.1880000E-01 -0.6982146E-37
-0.1770000E-01 -0.9874896E-37
-0.1660000E-01 -0.0000000E+00
-0.1550000E-01  0.2683513E-36
-0.1440000E-01  0.6084867E-36
-0.1330000E-01  0.6790391E-36
-0.1220000E-01  0.2109799E-37
-0.1110000E-01 -0.1631626E-35
-0.1000000E-01 -0.3752999E-35
-0.8900000E-02 -0.4496280E-35
-0.7800000E-02 -0.1065970E-35
-0.6700000E-02  0.8246454E-35
-0.5600000E-02  0.2077804E-34
-0.4500000E-02  0.2673277E-34
-0.3400000E-02  0.1090165E-34
-0.2300000E-02 -0.3736235E-34
-0.1200000E-02 -0.1065824E-33
-0.1000000E-03 -0.1478774E-33
 0.1000000E-02 -0.8163417E-34
 0.2100000E-02  0.1542650E-33
 0.3200000E-02  0.5164199E-33
 0.4300000E-02  0.7748969E-33
 0.5400000E-02  0.5338969E-33
 0.6500000E-02 -0.5485235E-33
 0.7600000E-02 -0.2341507E-32
 0.8700000E-02 -0.3831220E-32
 0.9800000E-02 -0.3153370E-32
 0.1090000E-01  0.1468865E-32
 0.1200000E-01  0.9833126E-32
 0.1310000E-01  0.1777871E-31
 0.1420000E-01  0.1700976E-31
 0.1530000E-01 -0.1173396E-32
 0.1640000E-01 -0.3778307E-31
 0.1750000E-01 -0.7706400E-31
 0.1860000E-01 -0.8424010E-31
 0.1970000E-01 -0.1925237E-31
 0.2080000E-01  0.1305151E-30
 0.2190000E-01  0.3107100E-30
 0.2300000E-01  0.3843647E-30
 0.2410000E-01  0.1781991E-30
 0.2520000E-01 -0.3924188E-30
 0.2630000E-01 -0.1160474E-29
 0.2740000E-01 -0.1620450E-29
 0.2850000E-01 -0.1068397E-29
 0.2960000E-01  0.9483932E-30
 0.3070000E-01  0.3995025E-29
 0.3180000E-01  0.6328506E-29
 0.3290000E-01  0.5262053E-29
 0.3400000E-01 -0.1313282E-29
 0.3510000E-01 -0.1257696E-28
 0.3620000E-01 -0.2293981E-28
 0.3730000E-01 -0.2276186E-28
 0.3840000E-01 -0.3178268E-29
 0.3950000E-01  0.3567363E-28
 0.4060000E-01  0.7725204E-28
 0.4170000E-01  0.8903025E-28
 0.4280000E-01  0.3676307E-28
 0.4390000E-01 -0.8826317E-28
 0.4500000E-01 -0.2415097E-27
 0.4610000E-01 -0.3197929E-27
 0.4720000E-01 -0.2002086E-27
 0.4830000E-01  0.1744443E-27
 0.4940000E-01  0.6983620E-27
 0.5050000E-01  0.1064278E-26
 0.5160000E-01  0.8595930E-27
 0.5270000E-01 -0.1804838E-27
 0.5380000E-01 -0.1851270E-26
 0.5490000E-01 -0.3297077E-26
 0.5600000E-01 -0.3216912E-26
 0.5710000E-01 -0.5717786E-27
 0.5820000E-01  0.4410764E-26
 0.5930000E-01  0.9519150E-26
 0.6040000E-01  0.1089288E-25
 0.6150000E-01  0.4876570E-26
 0.6260000E-01 -0.9011599E-26
 0.6370000E-01 -0.2554588E-25
 0.6480000E-01 -0.3394734E-25
 0.6590000E-01 -0.2240226E-25
 0.6700000E-01  0.1363637E-25
 0.6810000E-01  0.6322997E-25
 0.6920000E-01  0.9812861E-25
 0.7030000E-01  0.8283787E-25
 0.7140000E-01 -0.3439630E-26
 0.7250000E-01 -0.1419887E-24
 0.7360000E-01 -0.2636870E-24
 0.7470000E-01 -0.2688038E-24
 0.7580000E-01 -0.8164540E-25
 0.7690000E-01  0.2791938E-24
 0.7800000E-01  0.6573953E-24
 0.7910000E-01  0.7902785E-24
 0.8020000E-01  0.4363470E-24
 0.8130000E-01 -0.4375472E-24
 0.8240000E-01 -0.1510815E-23
 0.8350000E-01 -0.2134995E-23
 0.8460000E-01 -0.1610138E-23
 0.8570000E-01  0.3451695E-24
 0.8680000E-01  0.3158476E-23
 0.8790000E-01  0.5333300E-23
 0.8900000E-01  0.4995629E-23
 0.9010000E-01  0.1006251E-23
 0.9120000E-01 -0.5841624E-23
 0.9230000E-01 -0.1233862E-22
 0.9340000E-01 -0.1380970E-22
 0.9450000E-01 -0.6589619E-23
 0.9560000E-01  0.8908936E-23
 0.9670000E-01  0.2636525E-22
 0.9780000E-01  0.3486660E-22
 0.9890000E-01  0.2406289E-22
 0.1000000E+00 -0.8460374E-23
 0.1011000E+00 -0.5155682E-22
 0.1022000E+00 -0.8137319E-22
 0.1033000E+00 -0.7128992E-22
 0.1044000E+00 -0.8599003E-23
 0.1055000E+00  0.9017419E-22
 0.1066000E+00  0.1763611E-21
 0.1077000E+00  0.1865339E-21
 0.1088000E+00  0.7802683E-22
 0.1099000E+00 -0.1328326E-21
 0.1110000E+00 -0.3542023E-21
 0.1121000E+00 -0.4449750E-21
 0.1132000E+00 -0.2857911E-21
 0.1143000E+00  0.1322271E-21
 0.1154000E+00  0.6520169E-21
 0.1165000E+00  0.9799461E-21
 0.1176000E+00  0.8180273E-21
 0.1187000E+00  0.5682604E-22
 0.1198000E+00 -0.1071418E-20
 0.1209000E+00 -0.1996935E-20
 0.1220000E+00 -0.2038127E-20
 0.1231000E+00 -0.7952075E-21
 0.1242000E+00  0.1473983E-20
 0.1253000E+00  0.3747216E-20
 0.1264000E+00  0.4579912E-20
 0.1275000E+00  0.2858046E-20
 0.1286000E+00 -0.1357042E-20
 0.1297000E+00 -0.6397988E-20
 0.1308000E+00 -0.9415308E-20
 0.1319000E+00 -0.7720815E-20
 0.1330000E+00 -0.5516078E-21
 0.1341000E+00  0.9706231E-20
 0.1352000E+00  0.1781883E-19
 0.1363000E+00  0.1791870E-19
 0.1374000E+00  0.6950748E-20
 0.1385000E+00 -0.1236666E-19
 0.1396000E+00 -0.3111183E-19
 0.1407000E+00 -0.3746096E-19
 0.1418000E+00 -0.2300569E-19
 0.1429000E+00  0.1078370E-19
 0.1440000E+00  0.4994125E-19
 0.1451000E+00  0.7223596E-19
 0.1462000E+00  0.5802801E-19
 0.1473000E+00  0.3313869E-20
 0.1484000E+00 -0.7238022E-19
 0.1495000E+00 -0.1299231E-18
 0.1506000E+00 -0.1279323E-18
 0.1517000E+00 -0.4739558E-19
 0.1528000E+00  0.8916259E-19
 0.1539000E+00  0.2175703E-18
 0.1550000E+00  0.2573230E-18
 0.1561000E+00  0.1551637E-18
 0.1572000E+00 -0.7374736E-19
 0.1583000E+00 -0.3329368E-18
 0.1594000E+00 -0.4768578E-18
 0.1605000E+00 -0.3829762E-18
 0.1616000E+00 -0.3254646E-19
 0.1627000E+00  0.4460104E-18
 0.1638000E+00  0.8087475E-18
 0.1649000E+00  0.8066116E-18
 0.1660000E+00  0.3320495E-18
 0.1671000E+00 -0.4752690E-18
 0.1682000E+00 -0.1238886E-17
 0.1693000E+00 -0.1499787E-17
 0.1704000E+00 -0.9639624E-18
 0.1715000E+00  0.2774610E-18
 0.1726000E+00  0.1694234E-17
 0.1737000E+00  0.2507850E-17
 0.1748000E+00  0.2082024E-17
 0.1759000E+00  0.3361726E-18
 0.1770000E+00 -0.2057019E-17
 0.1781000E+00 -0.3865769E-17
 0.1792000E+00 -0.3875973E-17
 0.1803000E+00 -0.1611900E-17
 0.1814000E+00  0.2187172E-17
 0.1825000E+00  0.5681262E-17
 0.1836000E+00  0.6724016E-17
 0.1847000E+00  0.4047657E-17
 0.1858000E+00 -0.1757400E-17
 0.1869000E+00 -0.8098813E-17
 0.1880000E+00 -0.1137682E-16
 0.1891000E+00 -0.8828916E-17
 0.1902000E+00 -0.3646516E-18
 0.1913000E+00  0.1068281E-16
 0.1924000E+00  0.1860087E-16
 0.1935000E+00  0.1798416E-16
 0.1946000E+00  0.6919994E-17
 0.1957000E+00 -0.1103948E-16
 0.1968000E+00 -0.2754595E-16
 0.1979000E+00 -0.3301481E-16
 0.1990000E+00 -0.2172892E-16
 0.2001000E+00  0.4056718E-17
 0.2012000E+00  0.3356362E-16
 0.2023000E+00  0.5159894E-16
 0.2034000E+00  0.4602917E-16
 0.2045000E+00  0.1513131E-16
 0.2056000E+00 -0.2934407E-16
 0.2067000E+00 -0.6601329E-16
 0.2078000E+00 -0.7385001E-16
 0.2089000E+00 -0.4392687E-16
 0.2100000E+00  0.1338237E-16
 0.2111000E+00  0.7072212E-16
 0.2122000E+00  0.9615033E-16
 0.2133000E+00  0.7051496E-16
 0.2144000E+00  0.8319001E-18
 0.2155000E+00 -0.7883964E-16
 0.2166000E+00 -0.1220655E-15
 0.2177000E+00 -0.9494966E-16
 0.2188000E+00  0.1031385E-17
 0.2199000E+00  0.1219964E-15
 0.2210000E+00  0.1979594E-15
 0.2221000E+00  0.1681677E-15
 0.2232000E+00  0.1931808E-16
 0.2243000E+00 -0.1946742E-15
 0.2254000E+00 -0.3668096E-15
 0.2265000E+00 -0.3846616E-15
 0.2276000E+00 -0.1922487E-15
 0.2287000E+00  0.1652030E-15
 0.2298000E+00  0.5419599E-15
 0.2309000E+00  0.7470502E-15
 0.2320000E+00  0.6352227E-15
 0.2331000E+00  0.1917614E-15
 0.2342000E+00 -0.4350763E-15
 0.2353000E+00 -0.9803610E-15
 0.2364000E+00 -0.1176369E-14
 0.2375000E+00 -0.8851496E-15
 0.2386000E+00 -0.1834461E-15
 0.2397000E+00  0.6508137E-15
 0.2408000E+00  0.1256013E-14
 0.2419000E+00  0.1359127E-14
 0.2430000E+00  0.9178416E-15
 0.2441000E+00  0.1532611E-15
 0.2452000E+00 -0.5559846E-15
 0.2463000E+00 -0.8742508E-15
 0.2474000E+00 -0.7012374E-15
 0.2485000E+00 -0.2442246E-15
 0.2496000E+00  0.8847321E-16
 0.2507000E+00 -0.6400675E-16
 0.2518000E+00 -0.7516556E-15
 0.2529000E+00 -0.1594492E-14
 0.2540000E+00 -0.1912630E-14
 0.2551000E+00 -0.1084551E-14
 0.2562000E+00  0.1026254E-14
 0.2573000E+00  0.3811720E-14
 0.2584000E+00  0.6019825E-14
 0.2595000E+00  0.6249116E-14
 0.2606000E+00  0.3660320E-14
 0.2617000E+00 -0.1427855E-14
 0.2628000E+00 -0.7398587E-14
 0.2639000E+00 -0.1181999E-13
 0.2650000E+00 -0.1242800E-13
 0.2661000E+00 -0.8209971E-14
 0.2672000E+00 -0.7560740E-16
 0.2683000E+00  0.9268549E-14
 0.2694000E+00  0.1628385E-13
 0.2705000E+00  0.1804224E-13
 0.2716000E+00  0.1351716E-13
 0.2727000E+00  0.4111511E-14
 0.2738000E+00 -0.6863249E-14
 0.2749000E+00 -0.1555047E-13
 0.2760000E+00 -0.1912864E-13
 0.2771000E+00 -0.1686118E-13
 0.2782000E+00 -0.1012901E-13
 0.2793000E+00 -0.1489106E-14
 0.2804000E+00  0.6671560E-14
 0.2815000E+00  0.1309064E-13
 0.2826000E+00  0.1762694E-13
 0.2837000E+00  0.2033076E-13
 0.2848000E+00  0.2026964E-13
 0.2859000E+00  0.1509976E-13
 0.2870000E+00  0.2085021E-14
 0.2881000E+00 -0.1956383E-13
 0.2892000E+00 -0.4614022E-13
 0.2903000E+00 -0.6836942E-13
 0.2914000E+00 -0.7322228E-13
 0.2925000E+00 -0.4883539E-13
 0.2936000E+00  0.8908338E-14
 0.2947000E+00  0.9094173E-13
 0.2958000E+00  0.1737859E-12
 0.2969000E+00  0.2244009E-12
 0.2980000E+00  0.2106260E-12
 0.2991000E+00  0.1141261E-12
 0.3002000E+00 -0.5889251E-13
 0.3013000E+00 -0.2737794E-12
 0.3024000E+00 -0.4728410E-12
 0.3035000E+00 -0.5892751E-12
 0.3046000E+00 -0.5657630E-12
 0.3057000E+00 -0.3722067E-12
 0.3068000E+00 -0.1755224E-13
 0.3079000E+00  0.4471529E-12
 0.3090000E+00  0.9345335E-12
 0.3101000E+00  0.1333544E-11
 0.3112000E+00  0.1526619E-11
 0.3123000E+00  0.1409811E-11
 0.3134000E+00  0.9154636E-12
 0.3145000E+00  0.3665605E-13
 0.3156000E+00 -0.1149615E-11
 0.3167000E+00 -0.2467345E-11
 0.3178000E+00 -0.3644430E-11
 0.3189000E+00 -0.4343324E-11
 0.3200000E+00 -0.4223958E-11
 0.3211000E+00 -0.3033323E-11
 0.3222000E+00 -0.7039678E-12
 0.3233000E+00  0.2565979E-11
 0.3244000E+00  0.6281196E-11
 0.3255000E+00  0.9688555E-11
 0.3266000E+00  0.1189392E-10
 0.3277000E+00  0.1204182E-10
 0.3288000E+00  0.9524348E-11
 0.3299000E+00  0.4174180E-11
 0.3310000E+00 -0.3603688E-11
 0.3321000E+00 -0.1279661E-10
 0.3332000E+00 -0.2186322E-10
 0.3343000E+00 -0.2892509E-10
 0.3354000E+00 -0.3205271E-10
 0.3365000E+00 -0.2961306E-10
 0.3376000E+00 -0.2063566E-10
 0.3387000E+00 -0.5143805E-11
 0.3398000E+00  0.1561032E-10
 0.3409000E+00  0.3907130E-10
 0.3420000E+00  0.6152447E-10
 0.3431000E+00  0.7849247E-10
 0.3442000E+00  0.8537694E-10
 0.3453000E+00  0.7828350E-10
 0.3464000E+00  0.5491139E-10
 0.3475000E+00  0.1534713E-10
 0.3486000E+00 -0.3741177E-10
 0.3497000E+00 -0.9735328E-10
 0.3508000E+00 -0.1558582E-09
 0.3519000E+00 -0.2026258E-09
 0.3530000E+00 -0.2270368E-09
 0.3541000E+00 -0.2197924E-09
 0.3552000E+00 -0.1746182E-09
 0.3563000E+00 -0.8979490E-10
 0.3574000E+00  0.3071702E-10
 0.3585000E+00  0.1767618E-09
 0.3596000E+00  0.3322375E-09
 0.3607000E+00  0.4761951E-09
 0.3618000E+00  0.5847846E-09
 0.3629000E+00  0.6339404E-09
 0.3640000E+00  0.6025880E-09
 0.3651000E+00  0.4760475E-09
 0.3662000E+00  0.2492391E-09
 0.3673000E+00 -0.7073647E-10
 0.3684000E+00 -0.4630470E-09
 0.3695000E+00 -0.8929400E-09
 0.3706000E+00 -0.1313146E-08
 0.3717000E+00 -0.1666978E-08
 0.3728000E+00 -0.1893092E-08
 0.3739000E+00 -0.1931738E-08
 0.3750000E+00 -0.1732162E-08
 0.3761000E+00 -0.1260625E-08
 0.3772000E+00 -0.5083325E-09
 0.3783000E+00  0.5016353E-09
 0.3794000E+00  0.1709410E-08
 0.3805000E+00  0.3016446E-08
 0.3816000E+00  0.4287523E-08
 0.3827000E+00  0.5357176E-08
 0.3838000E+00  0.6040679E-08
 0.3849000E+00  0.6149178E-08
 0.3860000E+00  0.5508149E-08
 0.3871000E+00  0.3977938E-08
 0.3882000E+00  0.1474927E-08
 0.3893000E+00 -0.2008233E-08
 0.3904000E+00 -0.6384866E-08
 0.3915000E+00 -0.1146036E-07
 0.3926000E+00 -0.1692316E-07
 0.3937000E+00 -0.2234133E-07
 0.3948000E+00 -0.2716455E-07
 0.3959000E+00 -0.3073056E-07
 0.3970000E+00 -0.3227418E-07
 0.3981000E+00 -0.3093568E-07
 0.3992000E+00 -0.2576473E-07
 0.4003000E+00 -0.1571529E-07
 0.4014000E+00  0.3726935E-09
 0.4025000E+00  0.2380902E-07
 0.4036000E+00  0.5610927E-07
 0.4047000E+00  0.9907333E-07
 0.4058000E+00  0.1548874E-06
 0.4069000E+00  0.2262508E-06
 0.4080000E+00  0.3165268E-06
 0.4091000E+00  0.4299211E-06
 0.4102000E+00  0.5716873E-06
 0.4113000E+00  0.7483649E-06
 0.4124000E+00  0.9680513E-06
 0.4135000E+00  0.1240715E-05
 0.4146000E+00  0.1578556E-05
 0.4157000E+00  0.1996417E-05
 0.4168000E+00  0.2512263E-05
 0.4179000E+00  0.3147724E-05
 0.4190000E+00  0.3928729E-05
 0.4201000E+00  0.4886232E-05
 0.4212000E+00  0.6057042E-05
 0.4223000E+00  0.7484771E-05
 0.4234000E+00  0.9220910E-05
 0.4245000E+00  0.1132604E-04
 0.4256000E+00  0.1387116E-04
 0.4267000E+00  0.1693924E-04
 0.4278000E+00  0.2062680E-04
 0.4289000E+00  0.2504578E-04
 0.4300000E+00  0.3032546E-04
 0.4311000E+00  0.3661463E-04
 0.4322000E+00  0.4408381E-04
 0.4333000E+00  0.5292770E-04
 0.4344000E+00  0.6336768E-04
 0.4355000E+00  0.7565446E-04
 0.4366000E+00  0.9007075E-04
 0.4377000E+00  0.1069339E-03
 0.4388000E+00  0.1265989E-03
 0.4399000E+00  0.1494602E-03
 0.4410000E+00  0.1759550E-03
 0.4421000E+00  0.2065648E-03
 0.4432000E+00  0.2418174E-03
 0.4443000E+00  0.2822880E-03
 0.4454000E+00  0.3286005E-03
 0.4465000E+00  0.3814268E-03
 0.4476000E+00  0.4414868E-03
 0.4487000E+00  0.5095464E-03
 0.4498000E+00  0.5864146E-03
 0.4509000E+00  0.6729400E-03
 0.4520000E+00  0.7700051E-03
 0.4531000E+00  0.8785193E-03
 0.4542000E+00  0.9994105E-03
 0.4553000E+00  0.1133615E-02
 0.4564000E+00  0.1282066E-02
 0.4575000E+00  0.1445679E-02
 0.4586000E+00  0.1625333E-02
 0.4597000E+00  0.1821860E-02
 0.4608000E+00  0.2036017E-02
 0.4619000E+00  0.2268471E-02
 0.4630000E+00  0.2519771E-02
 0.4641000E+00  0.2790328E-02
 0.4652000E+00  0.3080386E-02
 0.4663000E+00  0.3389997E-02
 0.4674000E+00  0.3718993E-02
 0.4685000E+00  0.4066965E-02
 0.4696000E+00  0.4433227E-02
 0.4707000E+00  0.4816804E-02
 0.4718000E+00  0.5216398E-02
 0.4729000E+00  0.5630375E-02
 0.4740000E+00  0.6056744E-02
 0.4751000E+00  0.6493145E-02
 0.4762000E+00  0.6936841E-02
 0.4773000E+00  0.7384713E-02
 0.4784000E+00  0.7833264E-02
 0.4795000E+00  0.8278629E-02
 0.4806000E+00  0.8716590E-02
 0.4817000E+00  0.9142598E-02
 0.4828000E+00  0.9551807E-02
 0.4839000E+00  0.9939112E-02
 0.4850000E+00  0.1029919E-01
 0.4861000E+00  0.1062657E-01
 0.4872000E+00  0.1091567E-01
 0.4883000E+00  0.1116089E-01
 0.4894000E+00  0.1135668E-01
 0.4905000E+00  0.1149762E-01
 0.4916000E+00  0.1157849E-01
 0.4927000E+00  0.1159437E-01
 0.4938000E+00  0.1154072E-01
 0.4949000E+00  0.1141349E-01
 0.4960000E+00  0.1120915E-01
 0.4971000E+00  0.1092487E-01
 0.4982000E+00  0.1055848E-01
 0.4993000E+00  0.1010864E-01
 0.5004000E+00  0.9574827E-02
 0.5015000E+00  0.8957441E-02
 0.5026000E+00  0.8257809E-02
 0.5037000E+00  0.7478226E-02
 0.5048000E+00  0.6621968E-02
 0.5059000E+00  0.5693287E-02
 0.5070000E+00  0.4697388E-02
 0.5081000E+00  0.3640398E-02
 0.5092000E+00  0.2529315E-02
 0.5103000E+00  0.1371941E-02
 0.5114000E+00  0.1768045E-03
 0.5125000E+00 -0.1046933E-02
 0.5136000E+00 -0.2289582E-02
 0.5147000E+00 -0.3541044E-02
 0.5158000E+00 -0.4790942E-02
 0.5169000E+00 -0.6028748E-02
 0.5180000E+00 -0.7243923E-02
 0.5191000E+00 -0.8426053E-02
 0.5202000E+00 -0.9564988E-02
 0.5213000E+00 -0.1065098E-01
 0.5224000E+00 -0.1167479E-01
 0.5235000E+00 -0.1262788E-01
 0.5246000E+00 -0.1350242E-01
 0.5257000E+00 -0.1429150E-01
 0.5268000E+00 -0.1498912E-01
 0.5279000E+00 -0.1559034E-01
 0.5290000E+00 -0.1609127E-01
 0.5301000E+00 -0.1648916E-01
 0.5312000E+00 -0.1678238E-01
 0.5323000E+00 -0.1697046E-01
 0.5334000E+00 -0.1705404E-01
 0.5345000E+00 -0.1703487E-01
 0.5356000E+00 -0.1691572E-01
 0.5367000E+00 -0.1670037E-01
 0.5378000E+00 -0.1639348E-01
 0.5389000E+00 -0.1600055E-01
 0.5400000E+00 -0.1552780E-01
 0.5411000E+00 -0.1498204E-01
 0.5422000E+00 -0.1437063E-01
 0.5433000E+00 -0.1370128E-01
 0.5444000E+00 -0.1298200E-01
 0.5455000E+00 -0.1222095E-01
 0.5466000E+00 -0.1142635E-01
 0.5477000E+00 -0.1060637E-01
 0.5488000E+00 -0.9768987E-02
 0.5499000E+00 -0.8921963E-02
 0.5510000E+00 -0.8072704E-02
 0.5521000E+00 -0.7228210E-02
 0.5532000E+00 -0.6395006E-02
 0.5543000E+00 -0.5579091E-02
 0.5554000E+00 -0.4785892E-02
 0.5565000E+00 -0.4020239E-02
 0.5576000E+00 -0.3286340E-02
 0.5587000E+00 -0.2587772E-02
 0.5598000E+00 -0.1927488E-02
 0.5609000E+00 -0.1307822E-02
 0.5620000E+00 -0.7305092E-03
 0.5631000E+00 -0.1967135E-03
 0.5642000E+00  0.2929433E-03
 0.5653000E+00  0.7383438E-03
 0.5664000E+00  0.1139833E-02
 0.5675000E+00  0.1498171E-02
 0.5686000E+00  0.1814488E-02
 0.5697000E+00  0.2090235E-02
 0.5708000E+00  0.2327134E-02
 0.5719000E+00  0.2527135E-02
 0.5730000E+00  0.2692364E-02
 0.5741000E+00  0.2825086E-02
 0.5752000E+00  0.2927655E-02
 0.5763000E+00  0.3002483E-02
 0.5774000E+00  0.3051997E-02
 0.5785000E+00  0.3078614E-02
 0.5796000E+00  0.3084708E-02
 0.5807000E+00  0.3072588E-02
 0.5818000E+00  0.3044476E-02
 0.5829000E+00  0.3002493E-02
 0.5840000E+00  0.2948636E-02
 0.5851000E+00  0.2884779E-02
 0.5862000E+00  0.2812658E-02
 0.5873000E+00  0.2733870E-02
 0.5884000E+00  0.2649877E-02
 0.5895000E+00  0.2561997E-02
 0.5906000E+00  0.2471416E-02
 0.5917000E+00  0.2379181E-02
 0.5928000E+00  0.2286214E-02
 0.5939000E+00  0.2193311E-02
 0.5950000E+00  0.2101158E-02
 0.5961000E+00  0.2010338E-02
 0.5972000E+00  0.1921335E-02
 0.5983000E+00  0.1834551E-02
 0.5994000E+00  0.1750302E-02
 0.6005000E+00  0.1668837E-02
 0.6016000E+00  0.1590336E-02
 0.6027000E+00  0.1514927E-02
 0.6038000E+00  0.1442687E-02
 0.6049000E+00  0.1373656E-02
 0.6060000E+00  0.1307838E-02
 0.6071000E+00  0.1245211E-02
 0.6082000E+00  0.1185726E-02
 0.6093000E+00  0.1129312E-02
 0.6104000E+00  0.1075884E-02
 0.6115000E+00  0.1025343E-02
 0.6126000E+00  0.9775826E-03
 0.6137000E+00  0.9324895E-03
 0.6148000E+00  0.8899465E-03
 0.6159000E+00  0.8498329E-03
 0.6170000E+00  0.8120263E-03
 0.6181000E+00  0.7764031E-03
 0.6192000E+00  0.7428394E-03
 0.6203000E+00  0.7112122E-03
 0.6214000E+00  0.6813992E-03
 0.6225000E+00  0.6532787E-03
 0.6236000E+00  0.6267295E-03
 0.6247000E+00  0.6016313E-03
 0.6258000E+00  0.5778658E-03
 0.6269000E+00  0.5553173E-03
 0.6280000E+00  0.5338725E-03
 0.6291000E+00  0.5134201E-03
 0.6302000E+00  0.4938485E-03
 0.6313000E+00  0.4750449E-03
 0.6324000E+00  0.4568939E-03
 0.6335000E+00  0.4392783E-03
 0.6346000E+00  0.4220789E-03
 0.6357000E+00  0.4051747E-03
 0.6368000E+00  0.3884423E-03
 0.6379000E+00  0.3717541E-03
 0.6390000E+00  0.3549774E-03
 0.6401000E+00  0.3379737E-03
 0.6412000E+00  0.3205990E-03
 0.6423000E+00  0.3027038E-03
 0.6434000E+00  0.2841338E-03
 0.6445000E+00  0.2647293E-03
 0.6456000E+00  0.2443239E-03
 0.6467000E+00  0.2227442E-03
 0.6478000E+00  0.1998090E-03
 0.6489000E+00  0.1753311E-03
 0.6500000E+00  0.1491194E-03
 0.6511000E+00  0.1209814E-03
 0.6522000E+00  0.9072635E-04
 0.6533000E+00  0.5816620E-04
 0.6544000E+00  0.2311825E-04
 0.6555000E+00 -0.1459247E-04
 0.6566000E+00 -0.5512937E-04
 0.6577000E+00 -0.9863942E-04
 0.6588000E+00 -0.1452477E-03
 0.6599000E+00 -0.1950520E-03
 0.6610000E+00 -0.2481177E-03
 0.6621000E+00 -0.3044723E-03
 0.6632000E+00 -0.3641002E-03
 0.6643000E+00 -0.4269356E-03
 0.6654000E+00 -0.4928561E-03
 0.6665000E+00 -0.5616746E-03
 0.6676000E+00 -0.6331328E-03
 0.6687000E+00 -0.7068946E-03
 0.6698000E+00 -0.7825404E-03
 0.6709000E+00 -0.8595617E-03
 0.6720000E+00 -0.9373556E-03
 0.6731000E+00 -0.1015220E-02
 0.6742000E+00 -0.1092349E-02
 0.6753000E+00 -0.1167835E-02
 0.6764000E+00 -0.1240664E-02
 0.6775000E+00 -0.1309719E-02
 0.6786000E+00 -0.1373788E-02
 0.6797000E+00 -0.1431563E-02
 0.6808000E+00 -0.1481653E-02
 0.6819000E+00 -0.1522593E-02
 0.6830000E+00 -0.1552856E-02
 0.6841000E+00 -0.1570868E-02
 0.6852000E+00 -0.1575035E-02
 0.6863000E+00 -0.1563754E-02
 0.6874000E+00 -0.1535446E-02
 0.6885000E+00 -0.1488573E-02
 0.6896000E+00 -0.1421665E-02
 0.6907000E+00 -0.1333350E-02
 0.6918000E+00 -0.1222385E-02
 0.6929000E+00 -0.1087687E-02
 0.6940000E+00 -0.9283641E-03
 0.6951000E+00 -0.7437516E-03
 0.6962000E+00 -0.5334396E-03
 0.6973000E+00 -0.2973015E-03
 0.6984000E+00 -0.3552061E-04
 0.6995000E+00  0.2513861E-03
 0.7006000E+00  0.5625476E-03
 0.7017000E+00  0.8967220E-03
 0.7028000E+00  0.1252286E-02
 0.7039000E+00  0.1627230E-02
 0.7050000E+00  0.2019159E-02
 0.7061000E+00  0.2425304E-02
 0.7072000E+00  0.2842532E-02
 0.7083000E+00  0.3267368E-02
 0.7094000E+00  0.3696019E-02
 0.7105000E+00  0.4124413E-02
 0.7116000E+00  0.4548233E-02
 0.7127000E+00  0.4962965E-02
 0.7138000E+00  0.5363955E-02
 0.7149000E+00  0.5746461E-02
 0.7160000E+00  0.6105719E-02
 0.7171000E+00  0.6437003E-02
 0.7182000E+00  0.6735697E-02
 0.7193000E+00  0.6997368E-02
 0.7204000E+00  0.7217827E-02
 0.7215000E+00  0.7393204E-02
 0.7226000E+00  0.7520005E-02
 0.7237000E+00  0.7595172E-02
 0.7248000E+00  0.7616139E-02
 0.7259000E+00  0.7580879E-02
 0.7270000E+00  0.7487943E-02
 0.7281000E+00  0.7336503E-02
 0.7292000E+00  0.7126366E-02
 0.7303000E+00  0.6857995E-02
 0.7314000E+00  0.6532503E-02
 0.7325000E+00  0.6151649E-02
 0.7336000E+00  0.5717815E-02
 0.7347000E+00  0.5233980E-02
 0.7358000E+00  0.4703681E-02
 0.7369000E+00  0.4130961E-02
 0.7380000E+00  0.3520315E-02
 0.7391000E+00  0.2876617E-02
 0.7402000E+00  0.2205047E-02
 0.7413000E+00  0.1511015E-02
 0.7424000E+00  0.8000766E-03
 0.7435000E+00  0.7785385E-04
 0.7446000E+00 -0.6500521E-03
 0.7457000E+00 -0.1378144E-02
 0.7468000E+00 -0.2101114E-02
 0.7479000E+00 -0.2813920E-02
 0.7490000E+00 -0.3511861E-02
 0.7501000E+00 -0.4190637E-02
 0.7512000E+00 -0.4846410E-02
 0.7523000E+00 -0.5475840E-02
 0.7534000E+00 -0.6076124E-02
 0.7545000E+00 -0.6645019E-02
 0.7556000E+00 -0.7180853E-02
 0.7567000E+00 -0.7682526E-02
 0.7578000E+00 -0.8149494E-02
 0.7589000E+00 -0.8581745E-02
 0.7600000E+00 -0.8979758E-02
 0.7611000E+00 -0.9344460E-02
 0.7622000E+00 -0.9677164E-02
 0.7633000E+00 -0.9979513E-02
 0.7644000E+00 -0.1025340E-01
 0.7655000E+00 -0.1050089E-01
 0.7666000E+00 -0.1072412E-01
 0.7677000E+00 -0.1092527E-01
 0.7688000E+00 -0.1110639E-01
 0.7699000E+00 -0.1126939E-01
 0.7710000E+00 -0.1141593E-01
 0.7721000E+00 -0.1154736E-01
 0.7732000E+00 -0.1166462E-01
 0.7743000E+00 -0.1176821E-01
 0.7754000E+00 -0.1185813E-01
 0.7765000E+00 -0.1193385E-01
 0.7776000E+00 -0.1199427E-01
 0.7787000E+00 -0.1203774E-01
 0.7798000E+00 -0.1206203E-01
 0.7809000E+00 -0.1206438E-01
 0.7820000E+00 -0.1204149E-01
 0.7831000E+00 -0.1198961E-01
 0.7842000E+00 -0.1190453E-01
 0.7853000E+00 -0.1178172E-01
 0.7864000E+00 -0.1161638E-01
 0.7875000E+00 -0.1140354E-01
 0.7886000E+00 -0.1113814E-01
 0.7897000E+00 -0.1081517E-01
 0.7908000E+00 -0.1042976E-01
 0.7919000E+00 -0.9977272E-02
 0.7930000E+00 -0.9453462E-02
 0.7941000E+00 -0.8854547E-02
 0.7952000E+00 -0.8177325E-02
 0.7963000E+00 -0.7419274E-02
 0.7974000E+00 -0.6578632E-02
 0.7985000E+00 -0.5654476E-02
 0.7996000E+00 -0.4646792E-02
 0.8007000E+00 -0.3556522E-02
 0.8018000E+00 -0.2385603E-02
 0.8029000E+00 -0.1136991E-02
 0.8040000E+00  0.1853421E-03
 0.8051000E+00  0.1576419E-02
 0.8062000E+00  0.3030291E-02
 0.8073000E+00  0.4540087E-02
 0.8084000E+00  0.6098078E-02
 0.8095000E+00  0.7695752E-02
 0.8106000E+00  0.9323913E-02
 0.8117000E+00  0.1097278E-01
 0.8128000E+00  0.1263211E-01
 0.8139000E+00  0.1429133E-01
 0.8150000E+00  0.1593965E-01
 0.8161000E+00  0.1756617E-01
 0.8172000E+00  0.1916008E-01
 0.8183000E+00  0.2071072E-01
 0.8194000E+00  0.2220776E-01
 0.8205000E+00  0.2364132E-01
 0.8216000E+00  0.2500205E-01
 0.8227000E+00  0.2628130E-01
 0.8238000E+00  0.2747121E-01
 0.8249000E+00  0.2856473E-01
 0.8260000E+00  0.2955577E-01
 0.8271000E+00  0.3043921E-01
 0.8282000E+00  0.3121092E-01
 0.8293000E+00  0.3186785E-01
 0.8304000E+00  0.3240798E-01
 0.8315000E+00  0.3283035E-01
 0.8326000E+00  0.3313500E-01
 0.8337000E+00  0.3332296E-01
 0.8348000E+00  0.3339616E-01
 0.8359000E+00  0.3335742E-01
 0.8370000E+00  0.3321029E-01
 0.8381000E+00  0.3295906E-01
 0.8392000E+00  0.3260856E-01
 0.8403000E+00  0.3216413E-01
 0.8414000E+00  0.3163145E-01
 0.8425000E+00  0.3101644E-01
 0.8436000E+00  0.3032516E-01
 0.8447000E+00  0.2956365E-01
 0.8458000E+00  0.2873787E-01
 0.8469000E+00  0.2785353E-01
 0.8480000E+00  0.2691606E-01
 0.8491000E+00  0.2593046E-01
 0.8502000E+00  0.2490123E-01
 0.8513000E+00  0.2383235E-01
 0.8524000E+00  0.2272713E-01
 0.8535000E+00  0.2158826E-01
 0.8546000E+00  0.2041774E-01
 0.8557000E+00  0.1921687E-01
 0.8568000E+00  0.1798628E-01
 0.8579000E+00  0.1672594E-01
 0.8590000E+00  0.1543523E-01
 0.8601000E+00  0.1411298E-01
 0.8612000E+00  0.1275759E-01
 0.8623000E+00  0.1136708E-01
 0.8634000E+00  0.9939244E-02
 0.8645000E+00  0.8471736E-02
 0.8656000E+00  0.6962217E-02
 0.8667000E+00  0.5408482E-02
 0.8678000E+00  0.3808603E-02
 0.8689000E+00  0.2161069E-02
 0.8700000E+00  0.4649201E-03
 0.8711000E+00 -0.1280120E-02
 0.8722000E+00 -0.3073530E-02
 0.8733000E+00 -0.4913875E-02
 0.8744000E+00 -0.6798713E-02
 0.8755000E+00 -0.8724510E-02
 0.8766000E+00 -0.1068658E-01
 0.8777000E+00 -0.1267904E-01
 0.8788000E+00 -0.1469484E-01
 0.8799000E+00 -0.1672570E-01
 0.8810000E+00 -0.1876226E-01
 0.8821000E+00 -0.2079405E-01
 0.8832000E+00 -0.2280965E-01
 0.8843000E+00 -0.2479675E-01
 0.8854000E+00 -0.2674232E-01
 0.8865000E+00 -0.2863277E-01
 0.8876000E+00 -0.3045409E-01
 0.8887000E+00 -0.3219207E-01
 0.8898000E+00 -0.3383250E-01
 0.8909000E+00 -0.3536138E-01
 0.8920000E+00 -0.3676512E-01
 0.8931000E+00 -0.3803075E-01
 0.8942000E+00 -0.3914617E-01
 0.8953000E+00 -0.4010028E-01
 0.8964000E+00 -0.4088323E-01
 0.8975000E+00 -0.4148658E-01
 0.8986000E+00 -0.4190342E-01
 0.8997000E+00 -0.4212850E-01
 0.9008000E+00 -0.4215836E-01
 0.9019000E+00 -0.4199137E-01
 0.9030000E+00 -0.4162782E-01
 0.9041000E+00 -0.4106988E-01
 0.9052000E+00 -0.4032167E-01
 0.9063000E+00 -0.3938912E-01
 0.9074000E+00 -0.3827997E-01
 0.9085000E+00 -0.3700364E-01
 0.9096000E+00 -0.3557108E-01
 0.9107000E+00 -0.3399467E-01
 0.9118000E+00 -0.3228805E-01
 0.9129000E+00 -0.3046590E-01
 0.9140000E+00 -0.2854380E-01
 0.9151000E+00 -0.2653795E-01
 0.9162000E+00 -0.2446502E-01
 0.9173000E+00 -0.2234188E-01
 0.9184000E+00 -0.2018545E-01
 0.9195000E+00 -0.1801244E-01
 0.9206000E+00 -0.1583919E-01
 0.9217000E+00 -0.1368146E-01
 0.9228000E+00 -0.1155428E-01
 0.9239000E+00 -0.9471764E-02
 0.9250000E+00 -0.7446997E-02
 0.9261000E+00 -0.5491912E-02
 0.9272000E+00 -0.3617198E-02
 0.9283000E+00 -0.1832230E-02
 0.9294000E+00 -0.1450159E-03
 0.9305000E+00  0.1437834E-02
 0.9316000E+00  0.2911103E-02
 0.9327000E+00  0.4270956E-02
 0.9338000E+00  0.5514893E-02
 0.9349000E+00  0.6641702E-02
 0.9360000E+00  0.7651389E-02
 0.9371000E+00  0.8545105E-02
 0.9382000E+00  0.9325054E-02
 0.9393000E+00  0.9994381E-02
 0.9404000E+00  0.1055707E-01
 0.9415000E+00  0.1101780E-01
 0.9426000E+00  0.1138188E-01
 0.9437000E+00  0.1165507E-01
 0.9448000E+00  0.1184351E-01
 0.9459000E+00  0.1195363E-01
 0.9470000E+00  0.1199199E-01
 0.9481000E+00  0.1196524E-01
 0.9492000E+00  0.1187998E-01
 0.9503000E+00  0.1174269E-01
 0.9514000E+00  0.1155967E-01
 0.9525000E+00  0.1133698E-01
 0.9536000E+00  0.1108039E-01
 0.9547000E+00  0.1079535E-01
 0.9558000E+00  0.1048692E-01
 0.9569000E+00  0.1015983E-01
 0.9580000E+00  0.9818362E-02
 0.9591000E+00  0.9466419E-02
 0.9602000E+00  0.9107484E-02
 0.9613000E+00  0.8744649E-02
 0.9624000E+00  0.8380617E-02
 0.9635000E+00  0.8017731E-02
 0.9646000E+00  0.7657980E-02
 0.9657000E+00  0.7303025E-02
 0.9668000E+00  0.6954216E-02
 0.9679000E+00  0.6612622E-02
 0.9690000E+00  0.6279047E-02
 0.9701000E+00  0.5954064E-02
 0.9712000E+00  0.5638031E-02
 0.9723000E+00  0.5331115E-02
 0.9734000E+00  0.5033309E-02
 0.9745000E+00  0.4744453E-02
 0.9756000E+00  0.4464252E-02
 0.9767000E+00  0.4192295E-02
 0.9778000E+00  0.3928073E-02
 0.9789000E+00  0.3670993E-02