-0.1200000E+00  0.0000000E+00
-0.1189000E+00  0.0000000E+00
-0.1178000E+00  0.0000000E+00
-0.1167000E+00  0.0000000E+00
-0.1156000E+00  0.0000000E+00
-0.1145000E+00  0.0000000E+00
-0.1134000E+00  0.0000000E+00
-0.1123000E+00  0.0000000E+00
-0.1112000E+00  0.0000000E+00
-0.1101000E+00  0.0000000E+00
-0.1090000E+00  0.0000000E+00
-0.1079000E+00  0.0000000E+00
-0.1068000E+00  0.0000000E+00
-0.1057000E+00  0.0000000E+00
-0.1046000E+00 -0.0000000E+00
-0.1035000E+00 -0.1593376E-37
-0.1024000E+00 -0.1330018E-36
-0.1013000E+00 -0.7037402E-36
-0.1002000E+00 -0.3011516E-35
-0.9910000E-01 -0.1065063E-34
-0.9800000E-01 -0.3111154E-34
-0.9690000E-01 -0.7387778E-34
-0.9580000E-01 -0.1364380E-33
-0.9470000E-01 -0.1709228E-33
-0.9360000E-01 -0.5091061E-34
-0.9250000E-01  0.3845156E-33
-0.9140000E-01  0.1119621E-32
-0.9030000E-01  0.1707241E-32
-0.8920000E-01  0.1574083E-32
-0.8810000E-01  0.1534420E-32
-0.8700000E-01  0.5157821E-32
-0.8590000E-01  0.1424842E-31
-0.8480000E-01  0.1200117E-31
-0.8370000E-01 -0.5515358E-31
-0.8260000E-01 -0.2436024E-30
-0.8150000E-01 -0.4475222E-30
-0.8040000E-01 -0.1333250E-30
-0.7930000E-01  0.1644646E-29
-0.7820000E-01  0.5162257E-29
-0.7710000E-01  0.7431641E-29
-0.7600000E-01 -0.1588115E-30
-0.7490000E-01 -0.2835983E-28
-0.7380000E-01 -0.7357271E-28
-0.7270000E-01 -0.9016084E-28
-0.7160000E-01  0.2149363E-28
-0.7050000E-01  0.3552365E-27
-0.6940000E-01  0.8223451E-27
-0.6830000E-01  0.9212985E-27
-0.6720000E-01 -0.2709791E-27
-0.6610000E-01 -0.3452136E-26
-0.6500000E-01 -0.7591656E-26
-0.6390000E-01 -0.8318205E-26
-0.6280000E-01  0.1619719E-26
-0.6170000E-01  0.2699544E-25
-0.6060000E-01  0.5934207E-25
-0.5950000E-01  0.6689732E-25
-0.5840000E-01 -0.2351689E-27
-0.5730000E-01 -0.1735257E-24
-0.5620000E-01 -0.3986588E-24
-0.5510000E-01 -0.4775207E-24
-0.5400000E-01 -0.1036383E-24
-0.5290000E-01  0.9242172E-24
-0.5180000E-01  0.2325054E-23
-0.5070000E-01  0.3019139E-23
-0.4960000E-01  0.1308299E-23
-0.4850000E-01 -0.4031659E-23
-0.4740000E-01 -0.1183820E-22
-0.4630000E-01 -0.1691966E-22
-0.4520000E-01 -0.1074243E-22
-0.4410000E-01  0.1361958E-22
-0.4300000E-01  0.5261891E-22
-0.4190000E-01  0.8417088E-22
-0.4080000E-01  0.6931458E-22
-0.3970000E-01 -0.2783534E-22
-0.3860000E-01 -0.2024270E-21
-0.3750000E-01 -0.3717524E-21
-0.3640000E-01 -0.3743372E-21
-0.3530000E-01 -0.4125284E-22
-0.3420000E-01  0.6572892E-21
-0.3310000E-01  0.1453149E-20
-0.3200000E-01  0.1740924E-20
-0.3090000E-01  0.8007365E-21
-0.2980000E-01 -0.1680466E-20
-0.2870000E-01 -0.4982055E-20
-0.2760000E-01 -0.7065169E-20
-0.2650000E-01 -0.5159138E-20
-0.2540000E-01  0.2555288E-20
-0.2430000E-01  0.1467490E-19
-0.2320000E-01  0.2511257E-19
-0.2210000E-01  0.2426618E-19
-0.2100000E-01  0.3899698E-20
-0.1990000E-01 -0.3534488E-19
-0.1880000E-01 -0.7777097E-19
-0.1770000E-01 -0.9357964E-19
-0.1660000E-01 -0.5132829E-19
-0.1550000E-01  0.5952387E-19
-0.1440000E-01  0.2060786E-18
-0.1330000E-01  0.3063939E-18
-0.1220000E-01  0.2563174E-18
-0.1110000E-01 -0.9669056E-20
-0.1000000E-01 -0.4460267E-18
-0.8900000E-02 -0.8572126E-18
-0.7800000E-02 -0.9410649E-18
-0.6700000E-02 -0.4342216E-18
-0.5600000E-02  0.6813842E-18
-0.4500000E-02  0.2019091E-17
-0.3400000E-02  0.2813071E-17
-0.2300000E-02  0.2217199E-17
-0.1200000E-02 -0.1728903E-18
-0.1000000E-03 -0.3804411E-17
 0.1000000E-02 -0.7008149E-17
 0.2100000E-02 -0.7491043E-17
 0.3200000E-02 -0.3496175E-17
 0.4300000E-02  0.4787622E-17
 0.5400000E-02  0.1435794E-16
 0.6500000E-02  0.1990134E-16
 0.7600000E-02  0.1600940E-16
 0.8700000E-02  0.5135267E-18
 0.9800000E-02 -0.2264689E-16
 0.1090000E-01 -0.4303786E-16
 0.1200000E-01 -0.4718201E-16
 0.1310000E-01 -0.2540051E-16
 0.1420000E-01  0.2070169E-16
 0.1530000E-01  0.7441421E-16
 0.1640000E-01  0.1076062E-15
 0.1750000E-01  0.9274083E-16
 0.1860000E-01  0.1931239E-16
 0.1970000E-01 -0.9339352E-16
 0.2080000E-01 -0.1962079E-15
 0.2190000E-01 -0.2274395E-15
 0.2300000E-01 -0.1438510E-15
 0.2410000E-01  0.4803417E-16
 0.2520000E-01  0.2784443E-15
 0.2630000E-01  0.4326436E-15
 0.2740000E-01  0.4010552E-15
 0.2850000E-01  0.1427473E-15
 0.2960000E-01 -0.2699612E-15
 0.3070000E-01 -0.6573326E-15
 0.3180000E-01 -0.8007101E-15
 0.3290000E-01 -0.5534896E-15
 0.3400000E-01  0.5618576E-16
 0.3510000E-01  0.7920033E-15
 0.3620000E-01  0.1284270E-14
 0.3730000E-01  0.1200878E-14
 0.3840000E-01  0.4438198E-15
 0.3950000E-01 -0.7337320E-15
 0.4060000E-01 -0.1778196E-14
 0.4170000E-01 -0.2070566E-14
 0.4280000E-01 -0.1260844E-14
 0.4390000E-01  0.4625674E-15
 0.4500000E-01  0.2339708E-14
 0.4610000E-01  0.3323696E-14
 0.4720000E-01  0.2604756E-14
 0.4830000E-01  0.1381453E-15
 0.4940000E-01 -0.3123394E-14
 0.5050000E-01 -0.5502440E-14
 0.5160000E-01 -0.5353542E-14
 0.5270000E-01 -0.2004494E-14
 0.5380000E-01  0.3596629E-14
 0.5490000E-01  0.8964579E-14
 0.5600000E-01  0.1103065E-13
 0.5710000E-01  0.7663461E-14
 0.5820000E-01 -0.9292914E-15
 0.5930000E-01 -0.1170160E-13
 0.6040000E-01 -0.1965190E-13
 0.6150000E-01 -0.1993871E-13
 0.6260000E-01 -0.1039723E-13
 0.6370000E-01  0.6758690E-14
 0.6480000E-01  0.2508584E-13
 0.6590000E-01  0.3619529E-13
 0.6700000E-01  0.3341660E-13
 0.6810000E-01  0.1526282E-13
 0.6920000E-01 -0.1303407E-13
 0.7030000E-01 -0.4093863E-13
 0.7140000E-01 -0.5667370E-13
 0.7250000E-01 -0.5228356E-13
 0.7360000E-01 -0.2739350E-13
 0.7470000E-01  0.1019552E-13
 0.7580000E-01  0.4750640E-13
 0.7690000E-01  0.7164766E-13
 0.7800000E-01  0.7483230E-13
 0.7910000E-01  0.5675404E-13
 0.8020000E-01  0.2335410E-13
 0.8130000E-01 -0.1694117E-13
 0.8240000E-01 -0.5693539E-13
 0.8350000E-01 -0.9180096E-13
 0.8460000E-01 -0.1168969E-12
 0.8570000E-01 -0.1241614E-12
 0.8680000E-01 -0.1008470E-12
 0.8790000E-01 -0.3395717E-13
 0.8900000E-01  0.7939058E-13
 0.9010000E-01  0.2200696E-12
 0.9120000E-01  0.3414719E-12
 0.9230000E-01  0.3781604E-12
 0.9340000E-01  0.2710095E-12
 0.9450000E-01  0.2129288E-14
 0.9560000E-01 -0.3758857E-12
 0.9670000E-01 -0.7351077E-12
 0.9780000E-01 -0.9045482E-12
 0.9890000E-01 -0.7371562E-12
 0.1000000E+00 -0.1900662E-12
 0.1011000E+00  0.6176367E-12
 0.1022000E+00  0.1405924E-11
 0.1033000E+00  0.1812362E-11
 0.1044000E+00  0.1534860E-11
 0.1055000E+00  0.4903922E-12
 0.1066000E+00 -0.1080195E-11
 0.1077000E+00 -0.2625602E-11
 0.1088000E+00 -0.3442959E-11
 0.1099000E+00 -0.2950112E-11
 0.1110000E+00 -0.9795920E-12
 0.1121000E+00  0.2030587E-11
 0.1132000E+00  0.5059885E-11
 0.1143000E+00  0.6786413E-11
 0.1154000E+00  0.6070431E-11
 0.1165000E+00  0.2485354E-11
 0.1176000E+00 -0.3313868E-11
 0.1187000E+00 -0.9574844E-11
 0.1198000E+00 -0.1387215E-10
 0.1209000E+00 -0.1390178E-10
 0.1220000E+00 -0.8414449E-11
 0.1231000E+00  0.2044333E-11
 0.1242000E+00  0.1491046E-10
 0.1253000E+00  0.2608261E-10
 0.1264000E+00  0.3106937E-10
 0.1275000E+00  0.2651003E-10
 0.1286000E+00  0.1159115E-10
 0.1297000E+00 -0.1116086E-10
 0.1308000E+00 -0.3609151E-10
 0.1319000E+00 -0.5571986E-10
 0.1330000E+00 -0.6284835E-10
 0.1341000E+00 -0.5288338E-10
 0.1352000E+00 -0.2562200E-10
 0.1363000E+00  0.1414242E-10
 0.1374000E+00  0.5750764E-10
 0.1385000E+00  0.9367422E-10
 0.1396000E+00  0.1128448E-09
 0.1407000E+00  0.1088951E-09
 0.1418000E+00  0.8093550E-10
 0.1429000E+00  0.3325170E-10
 0.1440000E+00 -0.2628604E-10
 0.1451000E+00 -0.8864604E-10
 0.1462000E+00 -0.1458214E-09
 0.1473000E+00 -0.1917786E-09
 0.1484000E+00 -0.2217170E-09
 0.1495000E+00 -0.2300509E-09
 0.1506000E+00 -0.2083814E-09
 0.1517000E+00 -0.1451469E-09
 0.1528000E+00 -0.2834434E-10
 0.1539000E+00  0.1483869E-09
 0.1550000E+00  0.3776373E-09
 0.1561000E+00  0.6309265E-09
 0.1572000E+00  0.8559056E-09
 0.1583000E+00  0.9812299E-09
 0.1594000E+00  0.9303273E-09
 0.1605000E+00  0.6423099E-09
 0.1616000E+00  0.9520744E-10
 0.1627000E+00 -0.6753147E-09
 0.1638000E+00 -0.1568574E-08
 0.1649000E+00 -0.2427260E-08
 0.1660000E+00 -0.3061755E-08
 0.1671000E+00 -0.3285756E-08
 0.1682000E+00 -0.2954832E-08
 0.1693000E+00 -0.1998538E-08
 0.1704000E+00 -0.4387705E-09
 0.1715000E+00  0.1608176E-08
 0.1726000E+00  0.3942930E-08
 0.1737000E+00  0.6300703E-08
 0.1748000E+00  0.8367683E-08
 0.1759000E+00  0.9791962E-08
 0.1770000E+00  0.1019134E-07
 0.1781000E+00  0.9167142E-08
 0.1792000E+00  0.6337069E-08
 0.1803000E+00  0.1398169E-08
 0.1814000E+00 -0.5777256E-08
 0.1825000E+00 -0.1502296E-07
 0.1836000E+00 -0.2576061E-07
 0.1847000E+00 -0.3691348E-07
 0.1858000E+00 -0.4688165E-07
 0.1869000E+00 -0.5359529E-07
 0.1880000E+00 -0.5464050E-07
 0.1891000E+00 -0.4742708E-07
 0.1902000E+00 -0.2934785E-07
 0.1913000E+00  0.2127928E-08
 0.1924000E+00  0.4947474E-07
 0.1935000E+00  0.1152677E-06
 0.1946000E+00  0.2024667E-06
 0.1957000E+00  0.3147872E-06
 0.1968000E+00  0.4571035E-06
 0.1979000E+00  0.6358298E-06
 0.1990000E+00  0.8592543E-06
 0.2001000E+00  0.1137833E-05
 0.2012000E+00  0.1484496E-05
 0.2023000E+00  0.1915025E-05
 0.2034000E+00  0.2448597E-05
 0.2045000E+00  0.3108520E-05
 0.2056000E+00  0.3923175E-05
 0.2067000E+00  0.4927145E-05
 0.2078000E+00  0.6162435E-05
 0.2089000E+00  0.7679760E-05
 0.2100000E+00  0.9539838E-05
 0.2111000E+00  0.1181473E-04
 0.2122000E+00  0.1458932E-04
 0.2133000E+00  0.1796302E-04
 0.2144000E+00  0.2205193E-04
 0.2155000E+00  0.2699138E-04
 0.2166000E+00  0.3293918E-04
 0.2177000E+00  0.4007916E-04
 0.2188000E+00  0.4862520E-04
 0.2199000E+00  0.5882546E-04
 0.2210000E+00  0.7096666E-04
 0.2221000E+00  0.8537844E-04
 0.2232000E+00  0.1024377E-03
 0.2243000E+00  0.1225733E-03
 0.2254000E+00  0.1462702E-03
 0.2265000E+00  0.1740754E-03
 0.2276000E+00  0.2066024E-03
 0.2287000E+00  0.2445371E-03
 0.2298000E+00  0.2886434E-03
 0.2309000E+00  0.3397684E-03
 0.2320000E+00  0.3988470E-03
 0.2331000E+00  0.4669057E-03
 0.2342000E+00  0.5450661E-03
 0.2353000E+00  0.6345462E-03
 0.2364000E+00  0.7366613E-03
 0.2375000E+00  0.8528234E-03
 0.2386000E+00  0.9845399E-03
 0.2397000E+00  0.1133409E-02
 0.2408000E+00  0.1301112E-02
 0.2419000E+00  0.1489410E-02
 0.2430000E+00  0.1700124E-02
 0.2441000E+00  0.1935128E-02
 0.2452000E+00  0.2196322E-02
 0.2463000E+00  0.2485616E-02
 0.2474000E+00  0.2804900E-02
 0.2485000E+00  0.3156015E-02
 0.2496000E+00  0.3540724E-02
 0.2507000E+00  0.3960669E-02
 0.2518000E+00  0.4417337E-02
 0.2529000E+00  0.4912014E-02
 0.2540000E+00  0.5445740E-02
 0.2551000E+00  0.6019258E-02
 0.2562000E+00  0.6632965E-02
 0.2573000E+00  0.7286853E-02
 0.2584000E+00  0.7980466E-02
 0.2595000E+00  0.8712837E-02
 0.2606000E+00  0.9482444E-02
 0.2617000E+00  0.1028716E-01
 0.2628000E+00  0.1112422E-01
 0.2639000E+00  0.1199015E-01
 0.2650000E+00  0.1288078E-01
 0.2661000E+00  0.1379120E-01
 0.2672000E+00  0.1471573E-01
 0.2683000E+00  0.1564794E-01
 0.2694000E+00  0.1658064E-01
 0.2705000E+00  0.1750592E-01
 0.2716000E+00  0.1841515E-01
 0.2727000E+00  0.1929910E-01
 0.2738000E+00  0.2014794E-01
 0.2749000E+00  0.2095134E-01
 0.2760000E+00  0.2169859E-01
 0.2771000E+00  0.2237869E-01
 0.2782000E+00  0.2298048E-01
 0.2793000E+00  0.2349275E-01
 0.2804000E+00  0.2390445E-01
 0.2815000E+00  0.2420479E-01
 0.2826000E+00  0.2438342E-01
 0.2837000E+00  0.2443064E-01
 0.2848000E+00  0.2433753E-01
 0.2859000E+00  0.2409615E-01
 0.2870000E+00  0.2369970E-01
 0.2881000E+00  0.2314269E-01
 0.2892000E+00  0.2242107E-01
 0.2903000E+00  0.2153238E-01
 0.2914000E+00  0.2047586E-01
 0.2925000E+00  0.1925255E-01
 0.2936000E+00  0.1786533E-01
 0.2947000E+00  0.1631903E-01
 0.2958000E+00  0.1462039E-01
 0.2969000E+00  0.1277807E-01
 0.2980000E+00  0.1080265E-01
 0.2991000E+00  0.8706499E-02
 0.3002000E+00  0.6503685E-02
 0.3013000E+00  0.4209856E-02
 0.3024000E+00  0.1842062E-02
 0.3035000E+00 -0.5814392E-03
 0.3046000E+00 -0.3041389E-02
 0.3057000E+00 -0.5517766E-02
 0.3068000E+00 -0.7990032E-02
 0.3079000E+00 -0.1043740E-01
 0.3090000E+00 -0.1283909E-01
 0.3101000E+00 -0.1517463E-01
 0.3112000E+00 -0.1742410E-01
 0.3123000E+00 -0.1956841E-01
 0.3134000E+00 -0.2158956E-01
 0.3145000E+00 -0.2347088E-01
 0.3156000E+00 -0.2519725E-01
 0.3167000E+00 -0.2675529E-01
 0.3178000E+00 -0.2813352E-01
 0.3189000E+00 -0.2932252E-01
 0.3200000E+00 -0.3031499E-01
 0.3211000E+00 -0.3110585E-01
 0.3222000E+00 -0.3169228E-01
 0.3233000E+00 -0.3207369E-01
 0.3244000E+00 -0.3225170E-01
 0.3255000E+00 -0.3223007E-01
 0.3266000E+00 -0.3201459E-01
 0.3277000E+00 -0.3161297E-01
 0.3288000E+00 -0.3103465E-01
 0.3299000E+00 -0.3029063E-01
 0.3310000E+00 -0.2939329E-01
 0.3321000E+00 -0.2835618E-01
 0.3332000E+00 -0.2719377E-01
 0.3343000E+00 -0.2592126E-01
 0.3354000E+00 -0.2455432E-01
 0.3365000E+00 -0.2310891E-01
 0.3376000E+00 -0.2160100E-01
 0.3387000E+00 -0.2004639E-01
 0.3398000E+00 -0.1846054E-01
 0.3409000E+00 -0.1685833E-01
 0.3420000E+00 -0.1525394E-01
 0.3431000E+00 -0.1366070E-01
 0.3442000E+00 -0.1209098E-01
 0.3453000E+00 -0.1055609E-01
 0.3464000E+00 -0.9066207E-02
 0.3475000E+00 -0.7630329E-02
 0.3486000E+00 -0.6256243E-02
 0.3497000E+00 -0.4950507E-02
 0.3508000E+00 -0.3718464E-02
 0.3519000E+00 -0.2564262E-02
 0.3530000E+00 -0.1490906E-02
 0.3541000E+00 -0.5003086E-03
 0.3552000E+00  0.4066312E-03
 0.3563000E+00  0.1229951E-02
 0.3574000E+00  0.1970535E-02
 0.3585000E+00  0.2630028E-02
 0.3596000E+00  0.3210738E-02
 0.3607000E+00  0.3715548E-02
 0.3618000E+00  0.4147826E-02
 0.3629000E+00  0.4511341E-02
 0.3640000E+00  0.4810172E-02
 0.3651000E+00  0.5048634E-02
 0.3662000E+00  0.5231194E-02
 0.3673000E+00  0.5362400E-02
 0.3684000E+00  0.5446816E-02
 0.3695000E+00  0.5488968E-02
 0.3706000E+00  0.5493293E-02
 0.3717000E+00  0.5464101E-02
 0.3728000E+00  0.5405542E-02
 0.3739000E+00  0.5321581E-02
 0.3750000E+00  0.5215973E-02
 0.3761000E+00  0.5092246E-02
 0.3772000E+00  0.4953687E-02
 0.3783000E+00  0.4803333E-02
 0.3794000E+00  0.4643967E-02
 0.3805000E+00  0.4478113E-02
 0.3816000E+00  0.4308041E-02
 0.3827000E+00  0.4135774E-02
 0.3838000E+00  0.3963096E-02
 0.3849000E+00  0.3791561E-02
 0.3860000E+00  0.3622504E-02
 0.3871000E+00  0.3457055E-02
 0.3882000E+00  0.3296140E-02
 0.3893000E+00  0.3140500E-02
 0.3904000E+00  0.2990700E-02
 0.3915000E+00  0.2847143E-02
 0.3926000E+00  0.2710086E-02
 0.3937000E+00  0.2579658E-02
 0.3948000E+00  0.2455877E-02
 0.3959000E+00  0.2338669E-02
 0.3970000E+00  0.2227880E-02
 0.3981000E+00  0.2123293E-02
 0.3992000E+00  0.2024639E-02
 0.4003000E+00  0.1931610E-02
 0.4014000E+00  0.1843869E-02
 0.4025000E+00  0.1761059E-02
 0.4036000E+00  0.1682819E-02
 0.4047000E+00  0.1608786E-02
 0.4058000E+00  0.1538614E-02
 0.4069000E+00  0.1471977E-02
 0.4080000E+00  0.1408580E-02
 0.4091000E+00  0.1348163E-02
 0.4102000E+00  0.1290499E-02
 0.4113000E+00  0.1235401E-02
 0.4124000E+00  0.1182710E-02
 0.4135000E+00  0.1132298E-02
 0.4146000E+00  0.1084068E-02
 0.4157000E+00  0.1037943E-02
 0.4168000E+00  0.9938725E-03
 0.4179000E+00  0.9518220E-03
 0.4190000E+00  0.9117689E-03
 0.4201000E+00  0.8736967E-03
 0.4212000E+00  0.8375891E-03
 0.4223000E+00  0.8034250E-03
 0.4234000E+00  0.7711752E-03
 0.4245000E+00  0.7407984E-03
 0.4256000E+00  0.7122392E-03
 0.4267000E+00  0.6854256E-03
 0.4278000E+00  0.6602683E-03
 0.4289000E+00  0.6366603E-03
 0.4300000E+00  0.6144777E-03
 0.4311000E+00  0.5935805E-03
 0.4322000E+00  0.5738147E-03
 0.4333000E+00  0.5550123E-03
 0.4344000E+00  0.5369937E-03
 0.4355000E+00  0.5195698E-03
 0.4366000E+00  0.5025447E-03
 0.4377000E+00  0.4857195E-03
 0.4388000E+00  0.4688941E-03
 0.4399000E+00  0.4518688E-03
 0.4410000E+00  0.4344422E-03
 0.4421000E+00  0.4164081E-03
 0.4432000E+00  0.3975507E-03
 0.4443000E+00  0.3776380E-03
 0.4454000E+00  0.3564162E-03
 0.4465000E+00  0.3336017E-03
 0.4476000E+00  0.3088730E-03
 0.4487000E+00  0.2818612E-03
 0.4498000E+00  0.2521383E-03
 0.4509000E+00  0.2192055E-03
 0.4520000E+00  0.1824805E-03
 0.4531000E+00  0.1412846E-03
 0.4542000E+00  0.9483007E-04
 0.4553000E+00  0.4220741E-04
 0.4564000E+00 -0.1762639E-04
 0.4575000E+00 -0.8585926E-04
 0.4586000E+00 -0.1638341E-03
 0.4597000E+00 -0.2530578E-03
 0.4608000E+00 -0.3552080E-03
 0.4619000E+00 -0.4721385E-03
 0.4630000E+00 -0.6058827E-03
 0.4641000E+00 -0.7586538E-03
 0.4652000E+00 -0.9328439E-03
 0.4663000E+00 -0.1131020E-02
 0.4674000E+00 -0.1355914E-02
 0.4685000E+00 -0.1610417E-02
 0.4696000E+00 -0.1897558E-02
 0.4707000E+00 -0.2220489E-02
 0.4718000E+00 -0.2582463E-02
 0.4729000E+00 -0.2986805E-02
 0.4740000E+00 -0.3436878E-02
 0.4751000E+00 -0.3936054E-02
 0.4762000E+00 -0.4487667E-02
 0.4773000E+00 -0.5094966E-02
 0.4784000E+00 -0.5761063E-02
 0.4795000E+00 -0.6488870E-02
 0.4806000E+00 -0.7281028E-02
 0.4817000E+00 -0.8139830E-02
 0.4828000E+00 -0.9067142E-02
 0.4839000E+00 -0.1006432E-01
 0.4850000E+00 -0.1113211E-01
 0.4861000E+00 -0.1227058E-01
 0.4872000E+00 -0.1347898E-01
 0.4883000E+00 -0.1475570E-01
 0.4894000E+00 -0.1609813E-01
 0.4905000E+00 -0.1750260E-01
 0.4916000E+00 -0.1896427E-01
 0.4927000E+00 -0.2047706E-01
 0.4938000E+00 -0.2203359E-01
 0.4949000E+00 -0.2362511E-01
 0.4960000E+00 -0.2524149E-01
 0.4971000E+00 -0.2687116E-01
 0.4982000E+00 -0.2850116E-01
 0.4993000E+00 -0.3011720E-01
 0.5004000E+00 -0.3170363E-01
 0.5015000E+00 -0.3324363E-01
 0.5026000E+00 -0.3471930E-01
 0.5037000E+00 -0.3611177E-01
 0.5048000E+00 -0.3740145E-01
 0.5059000E+00 -0.3856820E-01
 0.5070000E+00 -0.3959161E-01
 0.5081000E+00 -0.4045122E-01
 0.5092000E+00 -0.4112687E-01
 0.5103000E+00 -0.4159896E-01
 0.5114000E+00 -0.4184882E-01
 0.5125000E+00 -0.4185901E-01
 0.5136000E+00 -0.4161366E-01
 0.5147000E+00 -0.4109882E-01
 0.5158000E+00 -0.4030278E-01
 0.5169000E+00 -0.3921634E-01
 0.5180000E+00 -0.3783311E-01
 0.5191000E+00 -0.3614975E-01
 0.5202000E+00 -0.3416618E-01
 0.5213000E+00 -0.3188572E-01
 0.5224000E+00 -0.2931521E-01
 0.5235000E+00 -0.2646509E-01
 0.5246000E+00 -0.2334934E-01
 0.5257000E+00 -0.1998551E-01
 0.5268000E+00 -0.1639451E-01
 0.5279000E+00 -0.1260051E-01
 0.5290000E+00 -0.8630641E-02
 0.5301000E+00 -0.4514744E-02
 0.5312000E+00 -0.2849964E-03
 0.5323000E+00  0.4024459E-02
 0.5334000E+00  0.8377943E-02
 0.5345000E+00  0.1273870E-01
 0.5356000E+00  0.1706938E-01
 0.5367000E+00  0.2133252E-01
 0.5378000E+00  0.2549107E-01
 0.5389000E+00  0.2950889E-01
 0.5400000E+00  0.3335122E-01
 0.5411000E+00  0.3698514E-01
 0.5422000E+00  0.4038005E-01
 0.5433000E+00  0.4350800E-01
 0.5444000E+00  0.4634413E-01
 0.5455000E+00  0.4886689E-01
 0.5466000E+00  0.5105834E-01
 0.5477000E+00  0.5290435E-01
 0.5488000E+00  0.5439465E-01
 0.5499000E+00  0.5552300E-01
 0.5510000E+00  0.5628712E-01
 0.5521000E+00  0.5668865E-01
 0.5532000E+00  0.5673305E-01
 0.5543000E+00  0.5642939E-01
 0.5554000E+00  0.5579020E-01
 0.5565000E+00  0.5483112E-01
 0.5576000E+00  0.5357065E-01
 0.5587000E+00  0.5202983E-01
 0.5598000E+00  0.5023182E-01
 0.5609000E+00  0.4820159E-01
 0.5620000E+00  0.4596549E-01
 0.5631000E+00  0.4355085E-01
 0.5642000E+00  0.4098565E-01
 0.5653000E+00  0.3829808E-01
 0.5664000E+00  0.3551620E-01
 0.5675000E+00  0.3266763E-01
 0.5686000E+00  0.2977918E-01
 0.5697000E+00  0.2687660E-01
 0.5708000E+00  0.2398431E-01
 0.5719000E+00  0.2112520E-01
 0.5730000E+00  0.1832046E-01
 0.5741000E+00  0.1558937E-01
 0.5752000E+00  0.1294929E-01
 0.5763000E+00  0.1041548E-01
 0.5774000E+00  0.8001135E-02
 0.5785000E+00  0.5717350E-02
 0.5796000E+00  0.3573129E-02
 0.5807000E+00  0.1575452E-02
 0.5818000E+00 -0.2706599E-03
 0.5829000E+00 -0.1962040E-02
 0.5840000E+00 -0.3497272E-02
 0.5851000E+00 -0.4876561E-02
 0.5862000E+00 -0.6101596E-02
 0.5873000E+00 -0.7175407E-02
 0.5884000E+00 -0.8102214E-02
 0.5895000E+00 -0.8887271E-02
 0.5906000E+00 -0.9536716E-02
 0.5917000E+00 -0.1005742E-01
 0.5928000E+00 -0.1045683E-01
 0.5939000E+00 -0.1074286E-01
 0.5950000E+00 -0.1092373E-01
 0.5961000E+00 -0.1100786E-01
 0.5972000E+00 -0.1100376E-01
 0.5983000E+00 -0.1091989E-01
 0.5994000E+00 -0.1076463E-01
 0.6005000E+00 -0.1054615E-01
 0.6016000E+00 -0.1027239E-01
 0.6027000E+00 -0.9950944E-02
 0.6038000E+00 -0.9589076E-02
 0.6049000E+00 -0.9193645E-02
 0.6060000E+00 -0.8771095E-02
 0.6071000E+00 -0.8327427E-02
 0.6082000E+00 -0.7868193E-02
 0.6093000E+00 -0.7398492E-02
 0.6104000E+00 -0.6922973E-02
 0.6115000E+00 -0.6445846E-02
 0.6126000E+00 -0.5970892E-02
 0.6137000E+00 -0.5501483E-02
 0.6148000E+00 -0.5040602E-02
 0.6159000E+00 -0.4590861E-02
 0.6170000E+00 -0.4154527E-02
 0.6181000E+00 -0.3733547E-02
 0.6192000E+00 -0.3329573E-02
 0.6203000E+00 -0.2943984E-02
 0.6214000E+00 -0.2577917E-02
 0.6225000E+00 -0.2232276E-02
 0.6236000E+00 -0.1907764E-02
 0.6247000E+00 -0.1604890E-02
 0.6258000E+00 -0.1323988E-02
 0.6269000E+00 -0.1065233E-02
 0.6280000E+00 -0.8286529E-03
 0.6291000E+00 -0.6141355E-03
 0.6302000E+00 -0.4214432E-03
 0.6313000E+00 -0.2502184E-03
 0.6324000E+00 -0.9999207E-04
 0.6335000E+00  0.2980864E-04
 0.6346000E+00  0.1398539E-03
 0.6357000E+00  0.2309045E-03
 0.6368000E+00  0.3038057E-03
 0.6379000E+00  0.3594841E-03
 0.6390000E+00  0.3989418E-03
 0.6401000E+00  0.4232522E-03
 0.6412000E+00  0.4335526E-03
 0.6423000E+00  0.4310346E-03
 0.6434000E+00  0.4169335E-03
 0.6445000E+00  0.3925162E-03
 0.6456000E+00  0.3590688E-03
 0.6467000E+00  0.3178845E-03
 0.6478000E+00  0.2702517E-03
 0.6489000E+00  0.2174418E-03
 0.6500000E+00  0.1606960E-03
 0.6511000E+00  0.1012121E-03
 0.6522000E+00  0.4013105E-04
 0.6533000E+00 -0.2147407E-04
 0.6544000E+00 -0.8260841E-04
 0.6555000E+00 -0.1423633E-03
 0.6566000E+00 -0.1999228E-03
 0.6577000E+00 -0.2545704E-03
 0.6588000E+00 -0.3056942E-03
 0.6599000E+00 -0.3527916E-03
 0.6610000E+00 -0.3954715E-03
 0.6621000E+00 -0.4334531E-03
 0.6632000E+00 -0.4665609E-03
 0.6643000E+00 -0.4947170E-03
 0.6654000E+00 -0.5179325E-03
 0.6665000E+00 -0.5362977E-03
 0.6676000E+00 -0.5499743E-03
 0.6687000E+00 -0.5591866E-03
 0.6698000E+00 -0.5642127E-03
 0.6709000E+00 -0.5653742E-03
 0.6720000E+00 -0.5630244E-03
 0.6731000E+00 -0.5575367E-03
 0.6742000E+00 -0.5492933E-03
 0.6753000E+00 -0.5386753E-03
 0.6764000E+00 -0.5260541E-03
 0.6775000E+00 -0.5117825E-03
 0.6786000E+00 -0.4961879E-03
 0.6797000E+00 -0.4795648E-03
 0.6808000E+00 -0.4621701E-03
 0.6819000E+00 -0.4442207E-03
 0.6830000E+00 -0.4258945E-03
 0.6841000E+00 -0.4073325E-03
 0.6852000E+00 -0.3886408E-03
 0.6863000E+00 -0.3698935E-03
 0.6874000E+00 -0.3511331E-03
 0.6885000E+00 -0.3323729E-03
 0.6896000E+00 -0.3135995E-03
 0.6907000E+00 -0.2947776E-03
 0.6918000E+00 -0.2758555E-03
 0.6929000E+00 -0.2567699E-03
 0.6940000E+00 -0.2374492E-03
 0.6951000E+00 -0.2178161E-03
 0.6962000E+00 -0.1977891E-03
 0.6973000E+00 -0.1772852E-03
 0.6984000E+00 -0.1562233E-03
 0.6995000E+00 -0.1345279E-03
 0.7006000E+00 -0.1121319E-03
 0.7017000E+00 -0.8897721E-04
 0.7028000E+00 -0.6501354E-04
 0.7039000E+00 -0.4019573E-04
 0.7050000E+00 -0.1448128E-04
 0.7061000E+00  0.1217112E-04
 0.7072000E+00  0.3980231E-04
 0.7083000E+00  0.6845287E-04
 0.7094000E+00  0.9816351E-04
 0.7105000E+00  0.1289756E-03
 0.7116000E+00  0.1609309E-03
 0.7127000E+00  0.1940708E-03
 0.7138000E+00  0.2284337E-03
 0.7149000E+00  0.2640522E-03
 0.7160000E+00  0.3009503E-03
 0.7171000E+00  0.3391415E-03
 0.7182000E+00  0.3786274E-03
 0.7193000E+00  0.4193965E-03
 0.7204000E+00  0.4614218E-03
 0.7215000E+00  0.5046562E-03
 0.7226000E+00  0.5490268E-03
 0.7237000E+00  0.5944273E-03
 0.7248000E+00  0.6407115E-03
 0.7259000E+00  0.6876875E-03
 0.7270000E+00  0.7351142E-03
 0.7281000E+00  0.7827002E-03
 0.7292000E+00  0.8301038E-03
 0.7303000E+00  0.8769331E-03
 0.7314000E+00  0.9227470E-03
 0.7325000E+00  0.9670554E-03
 0.7336000E+00  0.1009320E-02
 0.7347000E+00  0.1048959E-02
 0.7358000E+00  0.1085351E-02
 0.7369000E+00  0.1117845E-02
 0.7380000E+00  0.1145768E-02
 0.7391000E+00  0.1168438E-02
 0.7402000E+00  0.1185167E-02
 0.7413000E+00  0.1195276E-02
 0.7424000E+00  0.1198102E-02
 0.7435000E+00  0.1193012E-02
 0.7446000E+00  0.1179417E-02
 0.7457000E+00  0.1156794E-02
 0.7468000E+00  0.1124695E-02
 0.7479000E+00  0.1082762E-02
 0.7490000E+00  0.1030731E-02
 0.7501000E+00  0.9684440E-03
 0.7512000E+00  0.8958512E-03
 0.7523000E+00  0.8130207E-03
 0.7534000E+00  0.7201467E-03
 0.7545000E+00  0.6175557E-03
 0.7556000E+00  0.5057079E-03
 0.7567000E+00  0.3851937E-03
 0.7578000E+00  0.2567270E-03
 0.7589000E+00  0.1211383E-03
 0.7600000E+00 -0.2063197E-04
 0.7611000E+00 -0.1675399E-03
 0.7622000E+00 -0.3184466E-03
 0.7633000E+00 -0.4721322E-03
 0.7644000E+00 -0.6273129E-03
 0.7655000E+00 -0.7826620E-03
 0.7666000E+00 -0.9368296E-03
 0.7677000E+00 -0.1088460E-02
 0.7688000E+00 -0.1236208E-02
 0.7699000E+00 -0.1378749E-02
 0.7710000E+00 -0.1514800E-02
 0.7721000E+00 -0.1643133E-02
 0.7732000E+00 -0.1762596E-02
 0.7743000E+00 -0.1872126E-02
 0.7754000E+00 -0.1970772E-02
 0.7765000E+00 -0.2057699E-02
 0.7776000E+00 -0.2132199E-02
 0.7787000E+00 -0.2193700E-02
 0.7798000E+00 -0.2241771E-02
 0.7809000E+00 -0.2276129E-02
 0.7820000E+00 -0.2296636E-02
 0.7831000E+00 -0.2303304E-02
 0.7842000E+00 -0.2296288E-02
 0.7853000E+00 -0.2275880E-02
 0.7864000E+00 -0.2242501E-02
 0.7875000E+00 -0.2196694E-02
 0.7886000E+00 -0.2139120E-02
 0.7897000E+00 -0.2070543E-02
 0.7908000E+00 -0.1991824E-02
 0.7919000E+00 -0.1903906E-02
 0.7930000E+00 -0.1807799E-02
 0.7941000E+00 -0.1704564E-02
 0.7952000E+00 -0.1595299E-02
 0.7963000E+00 -0.1481124E-02
 0.7974000E+00 -0.1363166E-02
 0.7985000E+00 -0.1242546E-02
 0.7996000E+00 -0.1120367E-02
 0.8007000E+00 -0.9977049E-03
 0.8018000E+00 -0.8755946E-03
 0.8029000E+00 -0.7550210E-03
 0.8040000E+00 -0.6369095E-03
 0.8051000E+00 -0.5221163E-03
 0.8062000E+00 -0.4114222E-03
 0.8073000E+00 -0.3055276E-03
 0.8084000E+00 -0.2050495E-03
 0.8095000E+00 -0.1105180E-03
 0.8106000E+00 -0.2237423E-04
 0.8117000E+00  0.5903136E-04
 0.8128000E+00  0.1334390E-03
 0.8139000E+00  0.2006765E-03
 0.8150000E+00  0.2606540E-03
 0.8161000E+00  0.3133579E-03
 0.8172000E+00  0.3588455E-03
 0.8183000E+00  0.3972405E-03
 0.8194000E+00  0.4287308E-03
 0.8205000E+00  0.4535640E-03
 0.8216000E+00  0.4720417E-03
 0.8227000E+00  0.4845103E-03
 0.8238000E+00  0.4913511E-03
 0.8249000E+00  0.4929705E-03
 0.8260000E+00  0.4897919E-03
 0.8271000E+00  0.4822490E-03
 0.8282000E+00  0.4707804E-03
 0.8293000E+00  0.4558226E-03
 0.8304000E+00  0.4378033E-03
 0.8315000E+00  0.4171339E-03
 0.8326000E+00  0.3942039E-03
 0.8337000E+00  0.3693757E-03
 0.8348000E+00  0.3429806E-03
 0.8359000E+00  0.3153128E-03
 0.8370000E+00  0.2866228E-03
 0.8381000E+00  0.2571096E-03
 0.8392000E+00  0.2269143E-03
 0.8403000E+00  0.1961170E-03
 0.8414000E+00  0.1647363E-03
 0.8425000E+00  0.1327306E-03
 0.8436000E+00  0.9999917E-04
 0.8447000E+00  0.6638087E-04
 0.8458000E+00  0.3165220E-04
 0.8469000E+00 -0.4474660E-05
 0.8480000E+00 -0.4235180E-04
 0.8491000E+00 -0.8239329E-04
 0.8502000E+00 -0.1250715E-03
 0.8513000E+00 -0.1709131E-03
 0.8524000E+00 -0.2204963E-03
 0.8535000E+00 -0.2744464E-03
 0.8546000E+00 -0.3334314E-03
 0.8557000E+00 -0.3981536E-03
 0.8568000E+00 -0.4693396E-03
 0.8579000E+00 -0.5477287E-03
 0.8590000E+00 -0.6340623E-03
 0.8601000E+00 -0.7290736E-03
 0.8612000E+00 -0.8334777E-03
 0.8623000E+00 -0.9479614E-03
 0.8634000E+00 -0.1073170E-02
 0.8645000E+00 -0.1209695E-02
 0.8656000E+00 -0.1358055E-02
 0.8667000E+00 -0.1518680E-02
 0.8678000E+00 -0.1691897E-02
 0.8689000E+00 -0.1877909E-02
 0.8700000E+00 -0.2076778E-02
 0.8711000E+00 -0.2288409E-02
 0.8722000E+00 -0.2512529E-02
 0.8733000E+00 -0.2748678E-02
 0.8744000E+00 -0.2996190E-02
 0.8755000E+00 -0.3254184E-02
 0.8766000E+00 -0.3521552E-02
 0.8777000E+00 -0.3796946E-02
 0.8788000E+00 -0.4078773E-02
 0.8799000E+00 -0.4365189E-02
 0.8810000E+00 -0.4654099E-02
 0.8821000E+00 -0.4943158E-02
 0.8832000E+00 -0.5229781E-02
 0.8843000E+00 -0.5511155E-02
 0.8854000E+00 -0.5784250E-02
 0.8865000E+00 -0.6045841E-02
 0.8876000E+00 -0.6292538E-02
 0.8887000E+00 -0.6520818E-02
 0.8898000E+00 -0.6727069E-02
 0.8909000E+00 -0.6907627E-02
 0.8920000E+00 -0.7058825E-02
 0.8931000E+00 -0.7177037E-02
 0.8942000E+00 -0.7258730E-02
 0.8953000E+00 -0.7300515E-02
 0.8964000E+00 -0.7299212E-02
 0.8975000E+00 -0.7251911E-02
 0.8986000E+00 -0.7156034E-02
 0.8997000E+00 -0.7009393E-02
 0.9008000E+00 -0.6810239E-02
 0.9019000E+00 -0.6557322E-02
 0.9030000E+00 -0.6249926E-02
 0.9041000E+00 -0.5887918E-02
 0.9052000E+00 -0.5471783E-02
 0.9063000E+00 -0.5002649E-02
 0.9074000E+00 -0.4482302E-02
 0.9085000E+00 -0.3913198E-02
 0.9096000E+00 -0.3298450E-02
 0.9107000E+00 -0.2641822E-02
 0.9118000E+00 -0.1947706E-02
 0.9129000E+00 -0.1221087E-02
 0.9140000E+00 -0.4675027E-03
 0.9151000E+00  0.3070165E-03
 0.9162000E+00  0.1096017E-02
 0.9173000E+00  0.1892696E-02
 0.9184000E+00  0.2689991E-02
 0.9195000E+00  0.3480663E-02
 0.9206000E+00  0.4257395E-02
 0.9217000E+00  0.5012885E-02
 0.9228000E+00  0.5739949E-02
 0.9239000E+00  0.6431620E-02
 0.9250000E+00  0.7081243E-02
 0.9261000E+00  0.7682575E-02
 0.9272000E+00  0.8229868E-02
 0.9283000E+00  0.8717961E-02
 0.9294000E+00  0.9142343E-02
 0.9305000E+00  0.9499236E-02
 0.9316000E+00  0.9785638E-02
 0.9327000E+00  0.9999372E-02
 0.9338000E+00  0.1013911E-01
 0.9349000E+00  0.1020440E-01
 0.9360000E+00  0.1019565E-01
 0.9371000E+00  0.1011414E-01
 0.9382000E+00  0.9961977E-02
 0.9393000E+00  0.9742084E-02
 0.9404000E+00  0.9458115E-02
 0.9415000E+00  0.9114417E-02
 0.9426000E+00  0.8715956E-02
 0.9437000E+00  0.8268245E-02
 0.9448000E+00  0.7777256E-02
 0.9459000E+00  0.7249340E-02
 0.9470000E+00  0.6691125E-02
 0.9481000E+00  0.6109415E-02
 0.9492000E+00  0.5511092E-02
 0.9503000E+00  0.4903021E-02
 0.9514000E+00  0.4291951E-02
 0.9525000E+00  0.3684437E-02
 0.9536000E+00  0.3086753E-02
 0.9547000E+00  0.2504817E-02
 0.9558000E+00  0.1944116E-02
 0.9569000E+00  0.1409650E-02
 0.9580000E+00  0.9058791E-03
 0.9591000E+00  0.4366918E-03
 0.9602000E+00  0.5375038E-05
 0.9613000E+00 -0.3854032E-03
 0.9624000E+00 -0.7336067E-03
 0.9635000E+00 -0.1037835E-02
 0.9646000E+00 -0.1297319E-02
 0.9657000E+00 -0.1511900E-02
 0.9668000E+00 -0.1682006E-02
 0.9679000E+00 -0.1808609E-02
 0.9690000E+00 -0.1893190E-02
 0.9701000E+00 -0.1937688E-02
 0.9712000E+00 -0.1944460E-02
 0.9723000E+00 -0.1916225E-02
 0.9734000E+00 -0.1856018E-02
 0.9745000E+00 -0.1767127E-02
 0.9756000E+00 -0.1653043E-02
 0.9767000E+00 -0.1517399E-02
 0.9778000E+00 -0.1363926E-02
 0.9789000E+00 -0.1196397E-02