-0.1200000E+00  0.0000000E+00
-0.1189000E+00  0.0000000E+00
-0.1178000E+00  0.0000000E+00
-0.1167000E+00  0.0000000E+00
-0.1156000E+00  0.0000000E+00
-0.1145000E+00  0.0000000E+00
-0.1134000E+00  0.0000000E+00
-0.1123000E+00  0.0000000E+00
-0.1112000E+00  0.0000000E+00
-0.1101000E+00  0.0000000E+00
-0.1090000E+00  0.0000000E+00
-0.1079000E+00  0.0000000E+00
-0.1068000E+00  0.0000000E+00
-0.1057000E+00  0.0000000E+00
-0.1046000E+00  0.0000000E+00
-0.1035000E+00  0.0000000E+00
-0.1024000E+00  0.0000000E+00
-0.1013000E+00  0.0000000E+00
-0.1002000E+00  0.0000000E+00
-0.9910000E-01  0.0000000E+00
-0.9800000E-01  0.0000000E+00
-0.9690000E-01  0.0000000E+00
-0.9580000E-01  0.0000000E+00
-0.9470000E-01  0.0000000E+00
-0.9360000E-01  0.0000000E+00
-0.9250000E-01  0.0000000E+00
-0.9140000E-01  0.0000000E+00
-0.9030000E-01  0.0000000E+00
-0.8920000E-01  0.0000000E+00
-0.8810000E-01  0.0000000E+00
-0.8700000E-01  0.0000000E+00
-0.8590000E-01  0.0000000E+00
-0.8480000E-01  0.0000000E+00
-0.8370000E-01  0.0000000E+00
-0.8260000E-01  0.0000000E+00
-0.8150000E-01  0.0000000E+00
-0.8040000E-01  0.0000000E+00
-0.7930000E-01  0.0000000E+00
-0.7820000E-01  0.0000000E+00
-0.7710000E-01  0.0000000E+00
-0.7600000E-01  0.0000000E+00
-0.7490000E-01  0.0000000E+00
-0.7380000E-01  0.0000000E+00
-0.7270000E-01  0.0000000E+00
-0.7160000E-01  0.0000000E+00
-0.7050000E-01  0.0000000E+00
-0.6940000E-01  0.0000000E+00
-0.6830000E-01  0.0000000E+00
-0.6720000E-01  0.0000000E+00
-0.6610000E-01  0.0000000E+00
-0.6500000E-01  0.0000000E+00
-0.6390000E-01  0.0000000E+00
-0.6280000E-01  0.0000000E+00
-0.6170000E-01  0.0000000E+00
-0.6060000E-01  0.0000000E+00
-0.5950000E-01  0.0000000E+00
-0.5840000E-01  0.0000000E+00
-0.5730000E-01  0.0000000E+00
-0.5620000E-01  0.0000000E+00
-0.5510000E-01  0.0000000E+00
-0.5400000E-01  0.0000000E+00
-0.5290000E-01  0.0000000E+00
-0.5180000E-01  0.0000000E+00
-0.5070000E-01  0.0000000E+00
-0.4960000E-01  0.0000000E+00
-0.4850000E-01  0.0000000E+00
-0.4740000E-01  0.0000000E+00
-0.4630000E-01  0.0000000E+00
-0.4520000E-01  0.0000000E+00
-0.4410000E-01  0.0000000E+00
-0.4300000E-01  0.0000000E+00
-0.4190000E-01  0.0000000E+00
-0.4080000E-01  0.0000000E+00
-0.3970000E-01  0.0000000E+00
-0.3860000E-01  0.0000000E+00
-0.3750000E-01  0.0000000E+00
-0.3640000E-01  0.0000000E+00
-0.3530000E-01  0.0000000E+00
-0.3420000E-01  0.0000000E+00
-0.3310000E-01  0.0000000E+00
-0.3200000E-01  0.0000000E+00
-0.3090000E-01  0.0000000E+00
-0.2980000E-01  0.0000000E+00
-0.2870000E-01  0.0000000E+00
-0.2760000E-01  0.0000000E+00
-0.2650000E-01  0.0000000E+00
-0.2540000E-01  0.0000000E+00
-0.2430000E-01  0.0000000E+00
-0.2320000E-01  0.0000000E+00
-0.2210000E-01  0.0000000E+00
-0.2100000E-01  0.0000000E+00
-0.1990000E-01  0.0000000E+00
-0.1880000E-01  0.0000000E+00
-0.1770000E-01  0.0000000E+00
-0.1660000E-01  0.0000000E+00
-0.1550000E-01  0.0000000E+00
-0.1440000E-01  0.0000000E+00
-0.1330000E-01  0.0000000E+00
-0.1220000E-01  0.0000000E+00
-0.1110000E-01  0.0000000E+00
-0.1000000E-01  0.0000000E+00
-0.8900000E-02  0.0000000E+00
-0.7800000E-02  0.0000000E+00
-0.6700000E-02  0.0000000E+00
-0.5600000E-02  0.0000000E+00
-0.4500000E-02  0.0000000E+00
-0.3400000E-02  0.0000000E+00
-0.2300000E-02  0.0000000E+00
-0.1200000E-02  0.0000000E+00
-0.1000000E-03  0.0000000E+00
 0.1000000E-02  0.0000000E+00
 0.2100000E-02  0.0000000E+00
 0.3200000E-02  0.0000000E+00
 0.4300000E-02  0.0000000E+00
 0.5400000E-02  0.0000000E+00
 0.6500000E-02  0.0000000E+00
 0.7600000E-02  0.0000000E+00
 0.8700000E-02  0.0000000E+00
 0.9800000E-02  0.0000000E+00
 0.1090000E-01  0.0000000E+00
 0.1200000E-01  0.0000000E+00
 0.1310000E-01  0.0000000E+00
 0.1420000E-01  0.0000000E+00
 0.1530000E-01  0.0000000E+00
 0.1640000E-01  0.0000000E+00
 0.1750000E-01  0.0000000E+00
 0.1860000E-01  0.0000000E+00
 0.1970000E-01  0.0000000E+00
 0.2080000E-01  0.0000000E+00
 0.2190000E-01  0.0000000E+00
 0.2300000E-01  0.0000000E+00
 0.2410000E-01  0.0000000E+00
 0.2520000E-01  0.0000000E+00
 0.2630000E-01  0.0000000E+00
 0.2740000E-01  0.0000000E+00
 0.2850000E-01  0.0000000E+00
 0.2960000E-01  0.0000000E+00
 0.3070000E-01  0.0000000E+00
 0.3180000E-01  0.0000000E+00
 0.3290000E-01  0.0000000E+00
 0.3400000E-01  0.0000000E+00
 0.3510000E-01  0.0000000E+00
 0.3620000E-01  0.0000000E+00
 0.3730000E-01  0.0000000E+00
 0.3840000E-01  0.0000000E+00
 0.3950000E-01  0.0000000E+00
 0.4060000E-01  0.0000000E+00
 0.4170000E-01  0.0000000E+00
 0.4280000E-01  0.0000000E+00
 0.4390000E-01  0.0000000E+00
 0.4500000E-01  0.0000000E+00
 0.4610000E-01  0.0000000E+00
 0.4720000E-01  0.0000000E+00
 0.4830000E-01  0.0000000E+00
 0.4940000E-01  0.0000000E+00
 0.5050000E-01  0.0000000E+00
 0.5160000E-01  0.0000000E+00
 0.5270000E-01  0.0000000E+00
 0.5380000E-01  0.0000000E+00
 0.5490000E-01  0.0000000E+00
 0.5600000E-01  0.0000000E+00
 0.5710000E-01  0.0000000E+00
 0.5820000E-01  0.0000000E+00
 0.5930000E-01  0.0000000E+00
 0.6040000E-01  0.0000000E+00
 0.6150000E-01  0.0000000E+00
 0.6260000E-01  0.0000000E+00
 0.6370000E-01  0.0000000E+00
 0.6480000E-01  0.0000000E+00
 0.6590000E-01  0.0000000E+00
 0.6700000E-01  0.0000000E+00
 0.6810000E-01  0.0000000E+00
 0.6920000E-01  0.0000000E+00
 0.7030000E-01  0.0000000E+00
 0.7140000E-01  0.0000000E+00
 0.7250000E-01  0.0000000E+00
 0.7360000E-01  0.0000000E+00
 0.7470000E-01  0.0000000E+00
 0.7580000E-01  0.0000000E+00
 0.7690000E-01  0.0000000E+00
 0.7800000E-01  0.0000000E+00
 0.7910000E-01  0.0000000E+00
 0.8020000E-01  0.0000000E+00
 0.8130000E-01  0.0000000E+00
 0.8240000E-01  0.0000000E+00
 0.8350000E-01  0.0000000E+00
 0.8460000E-01  0.0000000E+00
 0.8570000E-01  0.0000000E+00
 0.8680000E-01  0.0000000E+00
 0.8790000E-01  0.0000000E+00
 0.8900000E-01  0.0000000E+00
 0.9010000E-01  0.0000000E+00
 0.9120000E-01  0.0000000E+00
 0.9230000E-01  0.0000000E+00
 0.9340000E-01  0.0000000E+00
 0.9450000E-01  0.0000000E+00
 0.9560000E-01  0.0000000E+00
 0.9670000E-01  0.0000000E+00
 0.9780000E-01  0.0000000E+00
 0.9890000E-01  0.0000000E+00
 0.1000000E+00 -0.0000000E+00
 0.1011000E+00 -0.0000000E+00
 0.1022000E+00 -0.0000000E+00
 0.1033000E+00 -0.0000000E+00
 0.1044000E+00 -0.0000000E+00
 0.1055000E+00  0.0000000E+00
 0.1066000E+00  0.1899690E-37
 0.1077000E+00  0.3220600E-37
 0.1088000E+00  0.1481419E-37
 0.1099000E+00 -0.2521154E-37
 0.1110000E+00 -0.9195788E-37
 0.1121000E+00 -0.1593530E-36
 0.1132000E+00 -0.1596028E-36
 0.1143000E+00 -0.4204287E-37
 0.1154000E+00  0.1798158E-36
 0.1165000E+00  0.4361194E-36
 0.1176000E+00  0.5765756E-36
 0.1187000E+00  0.4412712E-36
 0.1198000E+00 -0.5181862E-37
 0.1209000E+00 -0.8171324E-36
 0.1220000E+00 -0.1583927E-35
 0.1231000E+00 -0.1894445E-35
 0.1242000E+00 -0.1281281E-35
 0.1253000E+00  0.4723601E-36
 0.1264000E+00  0.3041142E-35
 0.1275000E+00  0.5428169E-35
 0.1286000E+00  0.6096647E-35
 0.1297000E+00  0.3562240E-35
 0.1308000E+00 -0.2637105E-35
 0.1319000E+00 -0.1106757E-34
 0.1330000E+00 -0.1809862E-34
 0.1341000E+00 -0.1875018E-34
 0.1352000E+00 -0.8894638E-35
 0.1363000E+00  0.1180879E-34
 0.1374000E+00  0.3755410E-34
 0.1385000E+00  0.5632773E-34
 0.1396000E+00  0.5347249E-34
 0.1407000E+00  0.1874703E-34
 0.1418000E+00 -0.4535423E-34
 0.1429000E+00 -0.1182206E-33
 0.1440000E+00 -0.1633579E-33
 0.1451000E+00 -0.1409332E-33
 0.1462000E+00 -0.2872297E-34
 0.1473000E+00  0.1562911E-33
 0.1484000E+00  0.3477482E-33
 0.1495000E+00  0.4426987E-33
 0.1506000E+00  0.3414409E-33
 0.1517000E+00  0.4980977E-35
 0.1528000E+00 -0.4939679E-33
 0.1539000E+00 -0.9584361E-33
 0.1550000E+00 -0.1118408E-32
 0.1561000E+00 -0.7468015E-33
 0.1572000E+00  0.1950410E-33
 0.1583000E+00  0.1450584E-32
 0.1594000E+00  0.2477406E-32
 0.1605000E+00  0.2619509E-32
 0.1616000E+00  0.1418576E-32
 0.1627000E+00 -0.1048576E-32
 0.1638000E+00 -0.3983096E-32
 0.1649000E+00 -0.5996556E-32
 0.1660000E+00 -0.5624951E-32
 0.1671000E+00 -0.2099262E-32
 0.1682000E+00  0.3948393E-32
 0.1693000E+00  0.1026169E-31
 0.1704000E+00  0.1354168E-31
 0.1715000E+00  0.1083700E-31
 0.1726000E+00  0.1296943E-32
 0.1737000E+00 -0.1254011E-31
 0.1748000E+00 -0.2482128E-31
 0.1759000E+00 -0.2831087E-31
 0.1770000E+00 -0.1783141E-31
 0.1781000E+00  0.6111430E-32
 0.1792000E+00  0.3546205E-31
 0.1803000E+00  0.5621503E-31
 0.1814000E+00  0.5390965E-31
 0.1825000E+00  0.2143415E-31
 0.1836000E+00 -0.3433566E-31
 0.1847000E+00 -0.9119569E-31
 0.1858000E+00 -0.1182896E-30
 0.1869000E+00 -0.9004901E-31
 0.1880000E+00 -0.2298391E-32
 0.1891000E+00  0.1176732E-30
 0.1902000E+00  0.2149162E-30
 0.1913000E+00  0.2274437E-30
 0.1924000E+00  0.1182601E-30
 0.1935000E+00 -0.9499963E-31
 0.1946000E+00 -0.3303057E-30
 0.1957000E+00 -0.4640309E-30
 0.1968000E+00 -0.3853013E-30
 0.1979000E+00 -0.6278623E-31
 0.1990000E+00  0.4091141E-30
 0.2001000E+00  0.8181081E-30
 0.2012000E+00  0.9110083E-30
 0.2023000E+00  0.5215815E-30
 0.2034000E+00 -0.3042679E-30
 0.2045000E+00 -0.1257371E-29
 0.2056000E+00 -0.1843816E-29
 0.2067000E+00 -0.1596010E-29
 0.2078000E+00 -0.3458687E-30
 0.2089000E+00  0.1570567E-29
 0.2100000E+00  0.3316618E-29
 0.2111000E+00  0.3840232E-29
 0.2122000E+00  0.2384114E-29
 0.2133000E+00 -0.9818340E-30
 0.2144000E+00 -0.5093597E-29
 0.2155000E+00 -0.7935718E-29
 0.2166000E+00 -0.7443572E-29
 0.2177000E+00 -0.2624820E-29
 0.2188000E+00  0.5501181E-29
 0.2199000E+00  0.1372528E-28
 0.2210000E+00  0.1760011E-28
 0.2221000E+00  0.1340480E-28
 0.2232000E+00  0.4165699E-30
 0.2243000E+00 -0.1762821E-28
 0.2254000E+00 -0.3295055E-28
 0.2265000E+00 -0.3644984E-28
 0.2276000E+00 -0.2207010E-28
 0.2287000E+00  0.8946367E-29
 0.2298000E+00  0.4620717E-28
 0.2309000E+00  0.7250261E-28
 0.2320000E+00  0.7049103E-28
 0.2331000E+00  0.3167352E-28
 0.2342000E+00 -0.3627598E-28
 0.2353000E+00 -0.1081740E-27
 0.2364000E+00 -0.1486100E-27
 0.2375000E+00 -0.1268376E-27
 0.2386000E+00 -0.3401046E-28
 0.2397000E+00  0.1053633E-27
 0.2408000E+00  0.2354296E-27
 0.2419000E+00  0.2876067E-27
 0.2430000E+00  0.2114264E-27
 0.2441000E+00  0.5641123E-29
 0.2452000E+00 -0.2661119E-27
 0.2463000E+00 -0.4876718E-27
 0.2474000E+00 -0.5328819E-27
 0.2485000E+00 -0.3258299E-27
 0.2496000E+00  0.1062317E-27
 0.2507000E+00  0.6159348E-27
 0.2518000E+00  0.9737435E-27
 0.2529000E+00  0.9577439E-27
 0.2540000E+00  0.4655354E-27
 0.2551000E+00 -0.4009015E-27
 0.2562000E+00 -0.1326884E-26
 0.2573000E+00 -0.1878757E-26
 0.2584000E+00 -0.1681963E-26
 0.2595000E+00 -0.6195162E-27
 0.2606000E+00  0.1040393E-26
 0.2617000E+00  0.2668836E-26
 0.2628000E+00  0.3481390E-26
 0.2639000E+00  0.2872747E-26
 0.2650000E+00  0.7531899E-27
 0.2661000E+00 -0.2274445E-26
 0.2672000E+00 -0.5023144E-26
 0.2683000E+00 -0.6136004E-26
 0.2694000E+00 -0.4685384E-26
 0.2705000E+00 -0.7172888E-27
 0.2716000E+00  0.4531614E-26
 0.2727000E+00  0.8927360E-26
 0.2738000E+00  0.1022674E-25
 0.2749000E+00  0.7105323E-26
 0.2760000E+00 -0.3941525E-29
 0.2771000E+00 -0.8702731E-26
 0.2782000E+00 -0.1529617E-25
 0.2793000E+00 -0.1622733E-25
 0.2804000E+00 -0.9778863E-26
 0.2815000E+00  0.2698042E-26
 0.2826000E+00  0.1671393E-25
 0.2837000E+00  0.2602841E-25
 0.2848000E+00  0.2517527E-25
 0.2859000E+00  0.1220016E-25
 0.2870000E+00 -0.9621910E-26
 0.2881000E+00 -0.3212045E-25
 0.2892000E+00 -0.4491829E-25
 0.2903000E+00 -0.3974947E-25
 0.2914000E+00 -0.1476436E-25
 0.2925000E+00  0.2317132E-25
 0.2936000E+00  0.5968130E-25
 0.2947000E+00  0.7779033E-25
 0.2958000E+00  0.6508461E-25
 0.2969000E+00  0.2032525E-25
 0.2980000E+00 -0.4361289E-25
 0.2991000E+00 -0.1025707E-24
 0.3002000E+00 -0.1295962E-24
 0.3013000E+00 -0.1063966E-24
 0.3024000E+00 -0.3317230E-25
 0.3035000E+00  0.6791251E-25
 0.3046000E+00  0.1584051E-24
 0.3057000E+00  0.1975685E-24
 0.3068000E+00  0.1599803E-24
 0.3079000E+00  0.4947888E-25
 0.3090000E+00 -0.9748063E-25
 0.3101000E+00 -0.2224919E-24
 0.3112000E+00 -0.2675977E-24
 0.3123000E+00 -0.2014043E-24
 0.3134000E+00 -0.3774414E-25
 0.3145000E+00  0.1629305E-24
 0.3156000E+00  0.3131800E-24
 0.3167000E+00  0.3341117E-24
 0.3178000E+00  0.1935042E-24
 0.3189000E+00 -0.7043844E-25
 0.3200000E+00 -0.3532786E-24
 0.3211000E+00 -0.5198943E-24
 0.3222000E+00 -0.4611924E-24
 0.3233000E+00 -0.1502746E-24
 0.3244000E+00  0.3275218E-24
 0.3255000E+00  0.7893744E-24
 0.3266000E+00  0.1016634E-23
 0.3277000E+00  0.8449939E-24
 0.3288000E+00  0.2487099E-24
 0.3299000E+00 -0.6192499E-24
 0.3310000E+00 -0.1456798E-23
 0.3321000E+00 -0.1911817E-23
 0.3332000E+00 -0.1720308E-23
 0.3343000E+00 -0.8312171E-24
 0.3354000E+00  0.5372509E-24
 0.3365000E+00  0.1944291E-23
 0.3376000E+00  0.2871819E-23
 0.3387000E+00  0.2921322E-23
 0.3398000E+00  0.1986427E-23
 0.3409000E+00  0.3253575E-24
 0.3420000E+00 -0.1509614E-23
 0.3431000E+00 -0.2872414E-23
 0.3442000E+00 -0.3281687E-23
 0.3453000E+00 -0.2631476E-23
 0.3464000E+00 -0.1255514E-23
 0.3475000E+00  0.2008624E-24
 0.3486000E+00  0.1066356E-23
 0.3497000E+00  0.9749734E-24
 0.3508000E+00  0.9287234E-25
 0.3519000E+00 -0.8851031E-24
 0.3530000E+00 -0.1009339E-23
 0.3541000E+00  0.4589265E-24
 0.3552000E+00  0.3573364E-23
 0.3563000E+00  0.7443404E-23
 0.3574000E+00  0.1036164E-22
 0.3585000E+00  0.1035104E-22
 0.3596000E+00  0.5986439E-23
 0.3607000E+00 -0.2804068E-23
 0.3618000E+00 -0.1430236E-22
 0.3629000E+00 -0.2518682E-22
 0.3640000E+00 -0.3139344E-22
 0.3651000E+00 -0.2944146E-22
 0.3662000E+00 -0.1779788E-22
 0.3673000E+00  0.2220796E-23
 0.3684000E+00  0.2640050E-22
 0.3695000E+00  0.4855114E-22
 0.3706000E+00  0.6216859E-22
 0.3717000E+00  0.6232363E-22
 0.3728000E+00  0.4715889E-22
 0.3739000E+00  0.1850247E-22
 0.3750000E+00 -0.1857345E-22
 0.3761000E+00 -0.5703254E-22
 0.3772000E+00 -0.8948337E-22
 0.3783000E+00 -0.1095424E-21
 0.3794000E+00 -0.1125742E-21
 0.3805000E+00 -0.9581174E-22
 0.3816000E+00 -0.5823915E-22
 0.3827000E+00 -0.7886800E-24
 0.3838000E+00  0.7276288E-22
 0.3849000E+00  0.1543098E-21
 0.3860000E+00  0.2300845E-21
 0.3871000E+00  0.2806748E-21
 0.3882000E+00  0.2835640E-21
 0.3893000E+00  0.2187060E-21
 0.3904000E+00  0.7643228E-22
 0.3915000E+00 -0.1344028E-21
 0.3926000E+00 -0.3811444E-21
 0.3937000E+00 -0.6081267E-21
 0.3948000E+00 -0.7455763E-21
 0.3959000E+00 -0.7263890E-21
 0.3970000E+00 -0.5076560E-21
 0.3981000E+00 -0.9125556E-22
 0.3992000E+00  0.4634421E-21
 0.4003000E+00  0.1040953E-20
 0.4014000E+00  0.1488378E-20
 0.4025000E+00  0.1650038E-20
 0.4036000E+00  0.1411462E-20
 0.4047000E+00  0.7419727E-21
 0.4058000E+00 -0.2768054E-21
 0.4069000E+00 -0.1447706E-20
 0.4080000E+00 -0.2486451E-20
 0.4091000E+00 -0.3080687E-20
 0.4102000E+00 -0.2970047E-20
 0.4113000E+00 -0.2030046E-20
 0.4124000E+00 -0.3379751E-21
 0.4135000E+00  0.1801099E-20
 0.4146000E+00  0.3884715E-20
 0.4157000E+00  0.5305443E-20
 0.4168000E+00  0.5496175E-20
 0.4179000E+00  0.4102620E-20
 0.4190000E+00  0.1142906E-20
 0.4201000E+00 -0.2893985E-20
 0.4212000E+00 -0.7057020E-20
 0.4223000E+00 -0.1007959E-19
 0.4234000E+00 -0.1066475E-19
 0.4245000E+00 -0.7870498E-20
 0.4256000E+00 -0.1514189E-20
 0.4267000E+00  0.7518570E-20
 0.4278000E+00  0.1718606E-19
 0.4289000E+00  0.2452684E-19
 0.4300000E+00  0.2626185E-19
 0.4311000E+00  0.1970739E-19
 0.4322000E+00  0.3830579E-20
 0.4333000E+00 -0.1982398E-19
 0.4344000E+00 -0.4666410E-19
 0.4355000E+00 -0.6934187E-19
 0.4366000E+00 -0.7899109E-19
 0.4377000E+00 -0.6737460E-19
 0.4388000E+00 -0.2962331E-19
 0.4399000E+00  0.3303749E-19
 0.4410000E+00  0.1113836E-18
 0.4421000E+00  0.1879576E-18
 0.4432000E+00  0.2391608E-18
 0.4443000E+00  0.2398819E-18
 0.4454000E+00  0.1702223E-18
 0.4465000E+00  0.2313384E-19
 0.4476000E+00 -0.1888733E-18
 0.4487000E+00 -0.4301538E-18
 0.4498000E+00 -0.6435604E-18
 0.4509000E+00 -0.7586248E-18
 0.4520000E+00 -0.7062874E-18
 0.4531000E+00 -0.4383950E-18
 0.4542000E+00  0.5169230E-19
 0.4553000E+00  0.7125597E-18
 0.4564000E+00  0.1428069E-17
 0.4575000E+00  0.2025677E-17
 0.4586000E+00  0.2302603E-17
 0.4597000E+00  0.2068947E-17
 0.4608000E+00  0.1202188E-17
 0.4619000E+00 -0.2973563E-18
 0.4630000E+00 -0.2264121E-17
 0.4641000E+00 -0.4353229E-17
 0.4652000E+00 -0.6067778E-17
 0.4663000E+00 -0.6834198E-17
 0.4674000E+00 -0.6122411E-17
 0.4685000E+00 -0.3595166E-17
 0.4696000E+00  0.7414188E-18
 0.4707000E+00  0.6423391E-17
 0.4718000E+00  0.1249082E-16
 0.4729000E+00  0.1756028E-16
 0.4740000E+00  0.2002585E-16
 0.4751000E+00  0.1838093E-16
 0.4762000E+00  0.1162121E-16
 0.4773000E+00 -0.3432936E-18
 0.4784000E+00 -0.1636364E-16
 0.4795000E+00 -0.3392110E-16
 0.4806000E+00 -0.4928315E-16
 0.4817000E+00 -0.5800036E-16
 0.4828000E+00 -0.5573425E-16
 0.4839000E+00 -0.3932535E-16
 0.4850000E+00 -0.7925988E-17
 0.4861000E+00  0.3604718E-16
 0.4872000E+00  0.8641968E-16
 0.4883000E+00  0.1334836E-15
 0.4894000E+00  0.1651128E-15
 0.4905000E+00  0.1687913E-15
 0.4916000E+00  0.1343752E-15
 0.4927000E+00  0.5718689E-16
 0.4938000E+00 -0.5915828E-16
 0.4949000E+00 -0.2009146E-15
 0.4960000E+00 -0.3440797E-15
 0.4971000E+00 -0.4565381E-15
 0.4982000E+00 -0.5026964E-15
 0.4993000E+00 -0.4503516E-15
 0.5004000E+00 -0.2789581E-15
 0.5015000E+00  0.1210066E-16
 0.5026000E+00  0.3970497E-15
 0.5037000E+00  0.8210417E-15
 0.5048000E+00  0.1203002E-14
 0.5059000E+00  0.1445073E-14
 0.5070000E+00  0.1448637E-14
 0.5081000E+00  0.1135476E-14
 0.5092000E+00  0.4710889E-15
 0.5103000E+00 -0.5141479E-15
 0.5114000E+00 -0.1711145E-14
 0.5125000E+00 -0.2930740E-14
 0.5136000E+00 -0.3918894E-14
 0.5147000E+00 -0.4390239E-14
 0.5158000E+00 -0.4078518E-14
 0.5169000E+00 -0.2798476E-14
 0.5180000E+00 -0.5097932E-15
 0.5191000E+00  0.2629555E-14
 0.5202000E+00  0.6234686E-14
 0.5213000E+00  0.9703228E-14
 0.5224000E+00  0.1227223E-13
 0.5235000E+00  0.1312514E-13
 0.5246000E+00  0.1154203E-13
 0.5257000E+00  0.7075682E-14
 0.5268000E+00 -0.2743229E-15
 0.5279000E+00 -0.9924906E-14
 0.5290000E+00 -0.2064853E-13
 0.5301000E+00 -0.3062237E-13
 0.5312000E+00 -0.3761038E-13
 0.5323000E+00 -0.3928121E-13
 0.5334000E+00 -0.3363962E-13
 0.5345000E+00 -0.1952010E-13
 0.5356000E+00  0.2935002E-14
 0.5367000E+00  0.3191000E-13
 0.5378000E+00  0.6376602E-13
 0.5389000E+00  0.9319797E-13
 0.5400000E+00  0.1137567E-12
 0.5411000E+00  0.1187420E-12
 0.5422000E+00  0.1024046E-12
 0.5433000E+00  0.6131734E-13
 0.5444000E+00 -0.4291107E-14
 0.5455000E+00 -0.8950098E-13
 0.5466000E+00 -0.1842410E-12
 0.5477000E+00 -0.2736504E-12
 0.5488000E+00 -0.3394280E-12
 0.5499000E+00 -0.3621999E-12
 0.5510000E+00 -0.3247584E-12
 0.5521000E+00 -0.2158297E-12
 0.5532000E+00 -0.3383707E-13
 0.5543000E+00  0.2100153E-12
 0.5554000E+00  0.4900772E-12
 0.5565000E+00  0.7666910E-12
 0.5576000E+00  0.9892355E-12
 0.5587000E+00  0.1101950E-11
 0.5598000E+00  0.1052285E-11
 0.5609000E+00  0.8010027E-12
 0.5620000E+00  0.3327706E-12
 0.5631000E+00 -0.3344500E-12
 0.5642000E+00 -0.1143148E-11
 0.5653000E+00 -0.1995035E-11
 0.5664000E+00 -0.2756395E-11
 0.5675000E+00 -0.3270866E-11
 0.5686000E+00 -0.3379461E-11
 0.5697000E+00 -0.2946447E-11
 0.5708000E+00 -0.1888300E-11
 0.5719000E+00 -0.2018300E-12
 0.5730000E+00  0.2013347E-11
 0.5741000E+00  0.4543090E-11
 0.5752000E+00  0.7062422E-11
 0.5763000E+00  0.9157976E-11
 0.5774000E+00  0.1037044E-10
 0.5785000E+00  0.1025535E-10
 0.5796000E+00  0.8457326E-11
 0.5807000E+00  0.4789601E-11
 0.5818000E+00 -0.6921889E-12
 0.5829000E+00 -0.7634698E-11
 0.5840000E+00 -0.1536307E-10
 0.5851000E+00 -0.2290001E-10
 0.5862000E+00 -0.2903534E-10
 0.5873000E+00 -0.3244793E-10
 0.5884000E+00 -0.3187462E-10
 0.5895000E+00 -0.2631260E-10
 0.5906000E+00 -0.1523360E-10
 0.5917000E+00  0.1218213E-11
 0.5928000E+00  0.2207701E-10
 0.5939000E+00  0.4548729E-10
 0.5950000E+00  0.6874579E-10
 0.5961000E+00  0.8847262E-10
 0.5972000E+00  0.1009176E-09
 0.5983000E+00  0.1023907E-09
 0.5994000E+00  0.8978471E-10
 0.6005000E+00  0.6114226E-10
 0.6016000E+00  0.1619863E-10
 0.6027000E+00 -0.4317514E-10
 0.6038000E+00 -0.1127098E-09
 0.6049000E+00 -0.1857290E-09
 0.6060000E+00 -0.2534498E-09
 0.6071000E+00 -0.3056193E-09
 0.6082000E+00 -0.3314787E-09
 0.6093000E+00 -0.3210019E-09
 0.6104000E+00 -0.2663132E-09
 0.6115000E+00 -0.1631471E-09
 0.6126000E+00 -0.1218260E-10
 0.6137000E+00  0.1799303E-09
 0.6148000E+00  0.4000352E-09
 0.6159000E+00  0.6285807E-09
 0.6170000E+00  0.8404921E-09
 0.6181000E+00  0.1006848E-08
 0.6192000E+00  0.1097326E-08
 0.6203000E+00  0.1083296E-08
 0.6214000E+00  0.9413386E-09
 0.6225000E+00  0.6569068E-09
 0.6236000E+00  0.2277635E-09
 0.6247000E+00 -0.3331756E-09
 0.6258000E+00 -0.9959807E-09
 0.6269000E+00 -0.1713159E-08
 0.6280000E+00 -0.2420673E-08
 0.6291000E+00 -0.3040665E-08
 0.6302000E+00 -0.3485887E-08
 0.6313000E+00 -0.3665685E-08
 0.6324000E+00 -0.3493240E-08
 0.6335000E+00 -0.2893636E-08
 0.6346000E+00 -0.1812222E-08
 0.6357000E+00 -0.2227194E-09
 0.6368000E+00  0.1865519E-08
 0.6379000E+00  0.4401568E-08
 0.6390000E+00  0.7288667E-08
 0.6401000E+00  0.1038182E-07
 0.6412000E+00  0.1348721E-07
 0.6423000E+00  0.1636305E-07
 0.6434000E+00  0.1872142E-07
 0.6445000E+00  0.2023018E-07
 0.6456000E+00  0.2051392E-07
 0.6467000E+00  0.1915279E-07
 0.6478000E+00  0.1567785E-07
 0.6489000E+00  0.9561439E-08
 0.6500000E+00  0.2013261E-09
 0.6511000E+00 -0.1310292E-07
 0.6522000E+00 -0.3118258E-07
 0.6533000E+00 -0.5504274E-07
 0.6544000E+00 -0.8591680E-07
 0.6555000E+00 -0.1253338E-06
 0.6566000E+00 -0.1751998E-06
 0.6577000E+00 -0.2378945E-06
 0.6588000E+00 -0.3163858E-06
 0.6599000E+00 -0.4143622E-06
 0.6610000E+00 -0.5363882E-06
 0.6621000E+00 -0.6880826E-06
 0.6632000E+00 -0.8763257E-06
 0.6643000E+00 -0.1109497E-05
 0.6654000E+00 -0.1397749E-05
 0.6665000E+00 -0.1753325E-05
 0.6676000E+00 -0.2190916E-05
 0.6687000E+00 -0.2728079E-05
 0.6698000E+00 -0.3385705E-05
 0.6709000E+00 -0.4188554E-05
 0.6720000E+00 -0.5165865E-05
 0.6731000E+00 -0.6352031E-05
 0.6742000E+00 -0.7787361E-05
 0.6753000E+00 -0.9518925E-05
 0.6764000E+00 -0.1160148E-04
 0.6775000E+00 -0.1409849E-04
 0.6786000E+00 -0.1708322E-04
 0.6797000E+00 -0.2063994E-04
 0.6808000E+00 -0.2486517E-04
 0.6819000E+00 -0.2986902E-04
 0.6830000E+00 -0.3577657E-04
 0.6841000E+00 -0.4272931E-04
 0.6852000E+00 -0.5088656E-04
 0.6863000E+00 -0.6042690E-04
 0.6874000E+00 -0.7154960E-04
 0.6885000E+00 -0.8447589E-04
 0.6896000E+00 -0.9945019E-04
 0.6907000E+00 -0.1167411E-03
 0.6918000E+00 -0.1366422E-03
 0.6929000E+00 -0.1594727E-03
 0.6940000E+00 -0.1855773E-03
 0.6951000E+00 -0.2153262E-03
 0.6962000E+00 -0.2491142E-03
 0.6973000E+00 -0.2873596E-03
 0.6984000E+00 -0.3305019E-03
 0.6995000E+00 -0.3789992E-03
 0.7006000E+00 -0.4333248E-03
 0.7017000E+00 -0.4939627E-03
 0.7028000E+00 -0.5614024E-03
 0.7039000E+00 -0.6361323E-03
 0.7050000E+00 -0.7186329E-03
 0.7061000E+00 -0.8093678E-03
 0.7072000E+00 -0.9087750E-03
 0.7083000E+00 -0.1017256E-02
 0.7094000E+00 -0.1135163E-02
 0.7105000E+00 -0.1262791E-02
 0.7116000E+00 -0.1400361E-02
 0.7127000E+00 -0.1548005E-02
 0.7138000E+00 -0.1705756E-02
 0.7149000E+00 -0.1873533E-02
 0.7160000E+00 -0.2051123E-02
 0.7171000E+00 -0.2238171E-02
 0.7182000E+00 -0.2434167E-02
 0.7193000E+00 -0.2638427E-02
 0.7204000E+00 -0.2850090E-02
 0.7215000E+00 -0.3068107E-02
 0.7226000E+00 -0.3291229E-02
 0.7237000E+00 -0.3518007E-02
 0.7248000E+00 -0.3746787E-02
 0.7259000E+00 -0.3975714E-02
 0.7270000E+00 -0.4202735E-02
 0.7281000E+00 -0.4425606E-02
 0.7292000E+00 -0.4641909E-02
 0.7303000E+00 -0.4849064E-02
 0.7314000E+00 -0.5044353E-02
 0.7325000E+00 -0.5224942E-02
 0.7336000E+00 -0.5387917E-02
 0.7347000E+00 -0.5530308E-02
 0.7358000E+00 -0.5649134E-02
 0.7369000E+00 -0.5741437E-02
 0.7380000E+00 -0.5804329E-02
 0.7391000E+00 -0.5835039E-02
 0.7402000E+00 -0.5830953E-02
 0.7413000E+00 -0.5789670E-02
 0.7424000E+00 -0.5709042E-02
 0.7435000E+00 -0.5587227E-02
 0.7446000E+00 -0.5422729E-02
 0.7457000E+00 -0.5214440E-02
 0.7468000E+00 -0.4961682E-02
 0.7479000E+00 -0.4664236E-02
 0.7490000E+00 -0.4322369E-02
 0.7501000E+00 -0.3936860E-02
 0.7512000E+00 -0.3509008E-02
 0.7523000E+00 -0.3040645E-02
 0.7534000E+00 -0.2534129E-02
 0.7545000E+00 -0.1992335E-02
 0.7556000E+00 -0.1418636E-02
 0.7567000E+00 -0.8168767E-03
 0.7578000E+00 -0.1913359E-03
 0.7589000E+00  0.4533168E-03
 0.7600000E+00  0.1112073E-02
 0.7611000E+00  0.1779643E-02
 0.7622000E+00  0.2450522E-02
 0.7633000E+00  0.3119055E-02
 0.7644000E+00  0.3779514E-02
 0.7655000E+00  0.4426170E-02
 0.7666000E+00  0.5053369E-02
 0.7677000E+00  0.5655606E-02
 0.7688000E+00  0.6227606E-02
 0.7699000E+00  0.6764385E-02
 0.7710000E+00  0.7261328E-02
 0.7721000E+00  0.7714242E-02
 0.7732000E+00  0.8119414E-02
 0.7743000E+00  0.8473658E-02
 0.7754000E+00  0.8774356E-02
 0.7765000E+00  0.9019481E-02
 0.7776000E+00  0.9207624E-02
 0.7787000E+00  0.9338004E-02
 0.7798000E+00  0.9410463E-02
 0.7809000E+00  0.9425468E-02
 0.7820000E+00  0.9384081E-02
 0.7831000E+00  0.9287940E-02
 0.7842000E+00  0.9139221E-02
 0.7853000E+00  0.8940594E-02
 0.7864000E+00  0.8695180E-02
 0.7875000E+00  0.8406490E-02
 0.7886000E+00  0.8078373E-02
 0.7897000E+00  0.7714951E-02
 0.7908000E+00  0.7320560E-02
 0.7919000E+00  0.6899678E-02
 0.7930000E+00  0.6456871E-02
 0.7941000E+00  0.5996726E-02
 0.7952000E+00  0.5523791E-02
 0.7963000E+00  0.5042522E-02
 0.7974000E+00  0.4557231E-02
 0.7985000E+00  0.4072038E-02
 0.7996000E+00  0.3590830E-02
 0.8007000E+00  0.3117229E-02
 0.8018000E+00  0.2654556E-02
 0.8029000E+00  0.2205814E-02
 0.8040000E+00  0.1773668E-02
 0.8051000E+00  0.1360433E-02
 0.8062000E+00  0.9680738E-03
 0.8073000E+00  0.5981996E-03
 0.8084000E+00  0.2520735E-03
 0.8095000E+00 -0.6937844E-04
 0.8106000E+00 -0.3655519E-03
 0.8117000E+00 -0.6361463E-03
 0.8128000E+00 -0.8811439E-03
 0.8139000E+00 -0.1100786E-02
 0.8150000E+00 -0.1295549E-02
 0.8161000E+00 -0.1466116E-02
 0.8172000E+00 -0.1613353E-02
 0.8183000E+00 -0.1738280E-02
 0.8194000E+00 -0.1842043E-02
 0.8205000E+00 -0.1925888E-02
 0.8216000E+00 -0.1991138E-02
 0.8227000E+00 -0.2039167E-02
 0.8238000E+00 -0.2071378E-02
 0.8249000E+00 -0.2089186E-02
 0.8260000E+00 -0.2093995E-02
 0.8271000E+00 -0.2087187E-02
 0.8282000E+00 -0.2070105E-02
 0.8293000E+00 -0.2044039E-02
 0.8304000E+00 -0.2010221E-02
 0.8315000E+00 -0.1969813E-02
 0.8326000E+00 -0.1923904E-02
 0.8337000E+00 -0.1873506E-02
 0.8348000E+00 -0.1819549E-02
 0.8359000E+00 -0.1762885E-02
 0.8370000E+00 -0.1704282E-02
 0.8381000E+00 -0.1644432E-02
 0.8392000E+00 -0.1583949E-02
 0.8403000E+00 -0.1523375E-02
 0.8414000E+00 -0.1463187E-02
 0.8425000E+00 -0.1403795E-02
 0.8436000E+00 -0.1345554E-02
 0.8447000E+00 -0.1288765E-02
 0.8458000E+00 -0.1233682E-02
 0.8469000E+00 -0.1180514E-02
 0.8480000E+00 -0.1129438E-02
 0.8491000E+00 -0.1080596E-02
 0.8502000E+00 -0.1034108E-02
 0.8513000E+00 -0.9900696E-03
 0.8524000E+00 -0.9485614E-03
 0.8535000E+00 -0.9096487E-03
 0.8546000E+00 -0.8733864E-03
 0.8557000E+00 -0.8398223E-03
 0.8568000E+00 -0.8089995E-03
 0.8579000E+00 -0.7809579E-03
 0.8590000E+00 -0.7557369E-03
 0.8601000E+00 -0.7333750E-03
 0.8612000E+00 -0.7139100E-03
 0.8623000E+00 -0.6973798E-03
 0.8634000E+00 -0.6838216E-03
 0.8645000E+00 -0.6732717E-03
 0.8656000E+00 -0.6657655E-03
 0.8667000E+00 -0.6613356E-03
 0.8678000E+00 -0.6600103E-03
 0.8689000E+00 -0.6618113E-03
 0.8700000E+00 -0.6667519E-03
 0.8711000E+00 -0.6748345E-03
 0.8722000E+00 -0.6860486E-03
 0.8733000E+00 -0.7003692E-03
 0.8744000E+00 -0.7177540E-03
 0.8755000E+00 -0.7381411E-03
 0.8766000E+00 -0.7614463E-03
 0.8777000E+00 -0.7875608E-03
 0.8788000E+00 -0.8163485E-03
 0.8799000E+00 -0.8476448E-03
 0.8810000E+00 -0.8812550E-03
 0.8821000E+00 -0.9169533E-03
 0.8832000E+00 -0.9544816E-03
 0.8843000E+00 -0.9935499E-03
 0.8854000E+00 -0.1033835E-02
 0.8865000E+00 -0.1074981E-02
 0.8876000E+00 -0.1116603E-02
 0.8887000E+00 -0.1158284E-02
 0.8898000E+00 -0.1199583E-02
 0.8909000E+00 -0.1240036E-02
 0.8920000E+00 -0.1279160E-02
 0.8931000E+00 -0.1316455E-02
 0.8942000E+00 -0.1351413E-02
 0.8953000E+00 -0.1383518E-02
 0.8964000E+00 -0.1412257E-02
 0.8975000E+00 -0.1437123E-02
 0.8986000E+00 -0.1457625E-02
 0.8997000E+00 -0.1473290E-02
 0.9008000E+00 -0.1483676E-02
 0.9019000E+00 -0.1488371E-02
 0.9030000E+00 -0.1487005E-02
 0.9041000E+00 -0.1479254E-02
 0.9052000E+00 -0.1464843E-02
 0.9063000E+00 -0.1443555E-02
 0.9074000E+00 -0.1415233E-02
 0.9085000E+00 -0.1379782E-02
 0.9096000E+00 -0.1337173E-02
 0.9107000E+00 -0.1287445E-02
 0.9118000E+00 -0.1230701E-02
 0.9129000E+00 -0.1167109E-02
 0.9140000E+00 -0.1096899E-02
 0.9151000E+00 -0.1020359E-02
 0.9162000E+00 -0.9378290E-03
 0.9173000E+00 -0.8496950E-03
 0.9184000E+00 -0.7563821E-03
 0.9195000E+00 -0.6583451E-03
 0.9206000E+00 -0.5560593E-03
 0.9217000E+00 -0.4500106E-03
 0.9228000E+00 -0.3406855E-03
 0.9239000E+00 -0.2285596E-03
 0.9250000E+00 -0.1140875E-03
 0.9261000E+00  0.2309267E-05
 0.9272000E+00  0.1202528E-03
 0.9283000E+00  0.2394196E-03
 0.9294000E+00  0.3595503E-03
 0.9305000E+00  0.4804587E-03
 0.9316000E+00  0.6020393E-03
 0.9327000E+00  0.7242740E-03
 0.9338000E+00  0.8472375E-03
 0.9349000E+00  0.9711016E-03
 0.9360000E+00  0.1096137E-02
 0.9371000E+00  0.1222712E-02
 0.9382000E+00  0.1351296E-02
 0.9393000E+00  0.1482448E-02
 0.9404000E+00  0.1616816E-02
 0.9415000E+00  0.1755128E-02
 0.9426000E+00  0.1898179E-02
 0.9437000E+00  0.2046824E-02
 0.9448000E+00  0.2201959E-02
 0.9459000E+00  0.2364503E-02
 0.9470000E+00  0.2535388E-02
 0.9481000E+00  0.2715527E-02
 0.9492000E+00  0.2905799E-02
 0.9503000E+00  0.3107022E-02
 0.9514000E+00  0.3319932E-02
 0.9525000E+00  0.3545155E-02
 0.9536000E+00  0.3783177E-02
 0.9547000E+00  0.4034326E-02
 0.9558000E+00  0.4298736E-02
 0.9569000E+00  0.4576326E-02
 0.9580000E+00  0.4866775E-02
 0.9591000E+00  0.5169494E-02
 0.9602000E+00  0.5483611E-02
 0.9613000E+00  0.5807948E-02
 0.9624000E+00  0.6141010E-02
 0.9635000E+00  0.6480969E-02
 0.9646000E+00  0.6825659E-02
 0.9657000E+00  0.7172575E-02
 0.9668000E+00  0.7518874E-02
 0.9679000E+00  0.7861388E-02
 0.9690000E+00  0.8196635E-02
 0.9701000E+00  0.8520845E-02
 0.9712000E+00  0.8829988E-02
 0.9723000E+00  0.9119807E-02
 0.9734000E+00  0.9385866E-02
 0.9745000E+00  0.9623593E-02
 0.9756000E+00  0.9828337E-02
 0.9767000E+00  0.9995429E-02
 0.9778000E+00  0.1012025E-01
 0.9789000E+00  0.1019829E-01