 -0.12000000000000000          0.0000000000000000     
 -0.11889999999999999          0.0000000000000000     
 -0.11780000000000000          0.0000000000000000     
 -0.11670000000000000          0.0000000000000000     
 -0.11559999999999999          0.0000000000000000     
 -0.11449999999999999          0.0000000000000000     
 -0.11340000000000000          0.0000000000000000     
 -0.11230000000000000          0.0000000000000000     
 -0.11119999999999999          0.0000000000000000     
 -0.11009999999999999          0.0000000000000000     
 -0.10900000000000000          0.0000000000000000     
 -0.10790000000000000          0.0000000000000000     
 -0.10679999999999999          0.0000000000000000     
 -0.10569999999999999          0.0000000000000000     
 -0.10460000000000000          0.0000000000000000     
 -0.10349999999999999          0.0000000000000000     
 -0.10239999999999999          0.0000000000000000     
 -0.10130000000000000          0.0000000000000000     
 -0.10020000000000000          0.0000000000000000     
  -9.9099999999999994E-002     0.0000000000000000     
  -9.7999999999999990E-002     0.0000000000000000     
  -9.6899999999999986E-002     0.0000000000000000     
  -9.5799999999999996E-002     0.0000000000000000     
  -9.4699999999999993E-002     0.0000000000000000     
  -9.3599999999999989E-002     0.0000000000000000     
  -9.2499999999999999E-002     0.0000000000000000     
  -9.1399999999999995E-002     0.0000000000000000     
  -9.0299999999999991E-002     0.0000000000000000     
  -8.9200000000000002E-002     0.0000000000000000     
  -8.8099999999999984E-002     0.0000000000000000     
  -8.6999999999999994E-002     0.0000000000000000     
  -8.5899999999999990E-002     0.0000000000000000     
  -8.4799999999999986E-002     0.0000000000000000     
  -8.3699999999999997E-002     0.0000000000000000     
  -8.2599999999999993E-002     0.0000000000000000     
  -8.1499999999999989E-002     0.0000000000000000     
  -8.0399999999999999E-002     0.0000000000000000     
  -7.9299999999999995E-002     0.0000000000000000     
  -7.8199999999999992E-002     0.0000000000000000     
  -7.7100000000000002E-002     0.0000000000000000     
  -7.5999999999999984E-002     0.0000000000000000     
  -7.4899999999999994E-002     0.0000000000000000     
  -7.3799999999999991E-002     0.0000000000000000     
  -7.2699999999999987E-002     0.0000000000000000     
  -7.1599999999999997E-002     0.0000000000000000     
  -7.0499999999999993E-002     0.0000000000000000     
  -6.9399999999999989E-002     0.0000000000000000     
  -6.8300000000000000E-002     0.0000000000000000     
  -6.7199999999999996E-002     0.0000000000000000     
  -6.6099999999999992E-002     0.0000000000000000     
  -6.5000000000000002E-002     0.0000000000000000     
  -6.3899999999999985E-002     0.0000000000000000     
  -6.2799999999999995E-002     0.0000000000000000     
  -6.1699999999999991E-002     0.0000000000000000     
  -6.0599999999999994E-002     0.0000000000000000     
  -5.9499999999999990E-002     0.0000000000000000     
  -5.8399999999999994E-002     0.0000000000000000     
  -5.7299999999999990E-002     0.0000000000000000     
  -5.6199999999999986E-002     0.0000000000000000     
  -5.5099999999999996E-002     0.0000000000000000     
  -5.3999999999999992E-002     0.0000000000000000     
  -5.2899999999999989E-002     0.0000000000000000     
  -5.1799999999999985E-002     0.0000000000000000     
  -5.0699999999999995E-002     0.0000000000000000     
  -4.9599999999999991E-002     0.0000000000000000     
  -4.8499999999999988E-002     0.0000000000000000     
  -4.7399999999999998E-002     0.0000000000000000     
  -4.6299999999999994E-002     0.0000000000000000     
  -4.5199999999999990E-002     0.0000000000000000     
  -4.4099999999999986E-002     0.0000000000000000     
  -4.2999999999999997E-002     0.0000000000000000     
  -4.1899999999999993E-002     0.0000000000000000     
  -4.0799999999999989E-002     0.0000000000000000     
  -3.9699999999999985E-002     0.0000000000000000     
  -3.8599999999999995E-002     0.0000000000000000     
  -3.7499999999999992E-002     0.0000000000000000     
  -3.6399999999999988E-002     0.0000000000000000     
  -3.5299999999999984E-002     0.0000000000000000     
  -3.4199999999999994E-002     0.0000000000000000     
  -3.3099999999999991E-002     0.0000000000000000     
  -3.1999999999999987E-002     0.0000000000000000     
  -3.0899999999999997E-002     0.0000000000000000     
  -2.9799999999999993E-002     0.0000000000000000     
  -2.8699999999999989E-002     0.0000000000000000     
  -2.7599999999999986E-002     0.0000000000000000     
  -2.6499999999999996E-002     0.0000000000000000     
  -2.5399999999999992E-002     0.0000000000000000     
  -2.4299999999999988E-002     0.0000000000000000     
  -2.3199999999999985E-002     0.0000000000000000     
  -2.2099999999999995E-002     0.0000000000000000     
  -2.0999999999999991E-002     0.0000000000000000     
  -1.9899999999999987E-002     0.0000000000000000     
  -1.8799999999999983E-002     0.0000000000000000     
  -1.7699999999999994E-002     0.0000000000000000     
  -1.6599999999999990E-002     0.0000000000000000     
  -1.5499999999999986E-002     0.0000000000000000     
  -1.4399999999999996E-002     0.0000000000000000     
  -1.3299999999999992E-002     0.0000000000000000     
  -1.2199999999999989E-002     0.0000000000000000     
  -1.1099999999999985E-002     0.0000000000000000     
  -9.9999999999999950E-003     0.0000000000000000     
  -8.8999999999999913E-003     0.0000000000000000     
  -7.7999999999999875E-003     0.0000000000000000     
  -6.6999999999999837E-003     0.0000000000000000     
  -5.5999999999999939E-003     0.0000000000000000     
  -4.4999999999999901E-003     0.0000000000000000     
  -3.3999999999999864E-003     0.0000000000000000     
  -2.2999999999999826E-003     0.0000000000000000     
  -1.1999999999999927E-003     0.0000000000000000     
  -9.9999999999988987E-005     0.0000000000000000     
   1.0000000000000148E-003     0.0000000000000000     
   2.1000000000000185E-003     0.0000000000000000     
   3.2000000000000084E-003     0.0000000000000000     
   4.3000000000000121E-003     0.0000000000000000     
   5.4000000000000159E-003     0.0000000000000000     
   6.5000000000000058E-003     0.0000000000000000     
   7.6000000000000234E-003     0.0000000000000000     
   8.7000000000000133E-003     0.0000000000000000     
   9.8000000000000032E-003     0.0000000000000000     
   1.0900000000000021E-002     0.0000000000000000     
   1.2000000000000011E-002     0.0000000000000000     
   1.3100000000000001E-002     0.0000000000000000     
   1.4200000000000018E-002     0.0000000000000000     
   1.5300000000000008E-002     0.0000000000000000     
   1.6400000000000026E-002     0.0000000000000000     
   1.7500000000000016E-002     0.0000000000000000     
   1.8600000000000005E-002     0.0000000000000000     
   1.9700000000000023E-002     0.0000000000000000     
   2.0800000000000013E-002     0.0000000000000000     
   2.1900000000000003E-002     0.0000000000000000     
   2.3000000000000020E-002     0.0000000000000000     
   2.4100000000000010E-002     0.0000000000000000     
   2.5200000000000000E-002     0.0000000000000000     
   2.6300000000000018E-002     0.0000000000000000     
   2.7400000000000008E-002     0.0000000000000000     
   2.8500000000000025E-002     0.0000000000000000     
   2.9600000000000015E-002     0.0000000000000000     
   3.0700000000000005E-002     0.0000000000000000     
   3.1800000000000023E-002     0.0000000000000000     
   3.2900000000000013E-002     0.0000000000000000     
   3.4000000000000002E-002     0.0000000000000000     
   3.5100000000000020E-002     0.0000000000000000     
   3.6200000000000010E-002     0.0000000000000000     
   3.7300000000000028E-002     0.0000000000000000     
   3.8400000000000017E-002     0.0000000000000000     
   3.9500000000000007E-002     0.0000000000000000     
   4.0600000000000025E-002     0.0000000000000000     
   4.1700000000000015E-002     0.0000000000000000     
   4.2800000000000005E-002     0.0000000000000000     
   4.3900000000000022E-002     0.0000000000000000     
   4.5000000000000012E-002     0.0000000000000000     
   4.6100000000000002E-002     0.0000000000000000     
   4.7200000000000020E-002     0.0000000000000000     
   4.8300000000000010E-002     0.0000000000000000     
   4.9400000000000027E-002     0.0000000000000000     
   5.0500000000000017E-002     0.0000000000000000     
   5.1600000000000007E-002     0.0000000000000000     
   5.2700000000000025E-002     0.0000000000000000     
   5.3800000000000014E-002     0.0000000000000000     
   5.4900000000000004E-002     0.0000000000000000     
   5.6000000000000022E-002     0.0000000000000000     
   5.7100000000000012E-002     0.0000000000000000     
   5.8200000000000002E-002     0.0000000000000000     
   5.9300000000000019E-002     0.0000000000000000     
   6.0400000000000009E-002     0.0000000000000000     
   6.1500000000000027E-002     0.0000000000000000     
   6.2600000000000017E-002     0.0000000000000000     
   6.3700000000000007E-002     0.0000000000000000     
   6.4800000000000024E-002     0.0000000000000000     
   6.5900000000000014E-002     0.0000000000000000     
   6.7000000000000004E-002     0.0000000000000000     
   6.8100000000000022E-002     0.0000000000000000     
   6.9200000000000012E-002     0.0000000000000000     
   7.0300000000000029E-002     0.0000000000000000     
   7.1400000000000019E-002     0.0000000000000000     
   7.2500000000000009E-002     0.0000000000000000     
   7.3600000000000027E-002     0.0000000000000000     
   7.4700000000000016E-002     0.0000000000000000     
   7.5800000000000006E-002     0.0000000000000000     
   7.6900000000000024E-002     0.0000000000000000     
   7.8000000000000014E-002     0.0000000000000000     
   7.9100000000000004E-002     0.0000000000000000     
   8.0200000000000021E-002     0.0000000000000000     
   8.1300000000000011E-002     0.0000000000000000     
   8.2400000000000029E-002     0.0000000000000000     
   8.3500000000000019E-002     0.0000000000000000     
   8.4600000000000009E-002     0.0000000000000000     
   8.5700000000000026E-002     0.0000000000000000     
   8.6800000000000016E-002     0.0000000000000000     
   8.7900000000000006E-002     0.0000000000000000     
   8.9000000000000024E-002     0.0000000000000000     
   9.0100000000000013E-002     0.0000000000000000     
   9.1200000000000003E-002     0.0000000000000000     
   9.2300000000000021E-002     0.0000000000000000     
   9.3400000000000011E-002     0.0000000000000000     
   9.4500000000000028E-002     0.0000000000000000     
   9.5600000000000018E-002     0.0000000000000000     
   9.6700000000000008E-002     0.0000000000000000     
   9.7800000000000026E-002     0.0000000000000000     
   9.8900000000000016E-002     0.0000000000000000     
  0.10000000000000001          0.0000000000000000     
  0.10110000000000002          0.0000000000000000     
  0.10220000000000001          0.0000000000000000     
  0.10330000000000003         -1.5937837090564782E-043
  0.10440000000000002         -1.2034235824059291E-042
  0.10550000000000001          1.2294200948362390E-039
  0.10660000000000003          1.6430245001963548E-039
  0.10770000000000002         -2.5950913392170063E-042
  0.10880000000000001         -2.5778887830340601E-039
  0.10990000000000003         -5.3382494376262683E-039
  0.11100000000000002         -5.3452482665562238E-039
  0.11210000000000001          1.1398361976302022E-041
  0.11320000000000002          1.1487532871409758E-038
  0.11430000000000001          3.9053217044306469E-038
  0.11540000000000003          1.4079898816640829E-038
  0.11650000000000002         -9.7842547122932310E-038
  0.11760000000000001         -2.6876664268731746E-037
  0.11870000000000003         -3.9584562393072561E-037
  0.11980000000000002         -3.2922527603560241E-037
  0.12090000000000001          2.4507103830832278E-038
  0.12200000000000003          6.0248740624160570E-037
  0.12310000000000001          1.1664140179109843E-036
  0.12420000000000003          1.3229727354089052E-036
  0.12530000000000002          6.7129866248408183E-037
  0.12640000000000001         -9.1277468671796433E-037
  0.12750000000000003         -3.0407978497314992E-036
  0.12860000000000002         -4.6826721239704075E-036
  0.12970000000000001         -4.4412493102257152E-036
  0.13080000000000003         -1.1845323896343059E-036
  0.13190000000000002          4.9994546082526544E-036
  0.13300000000000001          1.2124464926071625E-035
  0.13410000000000000          1.6324142561619573E-035
  0.13520000000000004          1.3090828649715545E-035
  0.13630000000000003         -3.0598111304927910E-037
  0.13740000000000002         -2.1985729596795742E-035
  0.13850000000000001         -4.3770617355440826E-035
  0.13960000000000000         -5.2364464634377167E-035
  0.14070000000000005         -3.4444555265855889E-035
  0.14180000000000004          1.5152846947335478E-035
  0.14290000000000003          8.5382491393109760E-035
  0.14400000000000002          1.4613123424022555E-034
  0.14510000000000001          1.5536419490142515E-034
  0.14620000000000000          7.7695239161044350E-035
  0.14730000000000004         -9.0416276854736442E-035
  0.14840000000000003         -3.0045077814753174E-034
  0.14950000000000002         -4.5167418653790786E-034
  0.15060000000000001         -4.2231743188385490E-034
  0.15170000000000000         -1.3054382685664673E-034
  0.15280000000000005          3.9521696674363898E-034
  0.15390000000000004          9.7368132256068815E-034
  0.15500000000000003          1.2961663337883215E-033
  0.15610000000000002          1.0409433703035121E-033
  0.15720000000000001          5.5152531418428068E-035
  0.15830000000000000         -1.4684180635924722E-033
  0.15940000000000004         -2.9267782275768734E-033
  0.16050000000000003         -3.4495798237630342E-033
  0.16160000000000002         -2.2700278767072573E-033
  0.16270000000000001          7.7960696974259036E-034
  0.16380000000000000          4.8759262632425233E-033
  0.16490000000000005          8.1952189570815418E-033
  0.16600000000000004          8.4785663749146260E-033
  0.16710000000000003          4.1197122125123027E-033
  0.16820000000000002         -4.6050110157085704E-033
  0.16930000000000001         -1.4808453110805245E-032
  0.17040000000000000         -2.1421476089349847E-032
  0.17150000000000004         -1.9070005078599372E-032
  0.17260000000000003         -4.9896667657970038E-033
  0.17370000000000002          1.8218586595499292E-032
  0.17480000000000001          4.1640707397901984E-032
  0.17590000000000000          5.2263757894659197E-032
  0.17700000000000005          3.8500393056263643E-032
  0.17810000000000004         -2.6545917018206527E-033
  0.17920000000000003         -6.0182755772530955E-032
  0.18030000000000002         -1.0914637112130699E-031
  0.18140000000000001         -1.1867573172749544E-031
  0.18250000000000000         -6.6709281541528093E-032
  0.18360000000000004          4.3947862155338318E-032
  0.18470000000000003          1.7672360309827644E-031
  0.18580000000000002          2.6753300471301169E-031
  0.18690000000000001          2.4898299602406162E-031
  0.18800000000000000          8.6394640586936479E-032
  0.18910000000000005         -1.8962968774582829E-031
  0.19020000000000004         -4.7364864831954519E-031
  0.19130000000000003         -6.1343325151363179E-031
  0.19240000000000002         -4.7511103848866255E-031
  0.19350000000000001         -2.4042269319482720E-032
  0.19460000000000005          6.1710524748092198E-031
  0.19570000000000004          1.1740772395186359E-030
  0.19680000000000003          1.3121924580846730E-030
  0.19790000000000002          7.9575266858591181E-031
  0.19900000000000001         -3.4570036162128256E-031
  0.20010000000000000         -1.7328145551043875E-030
  0.20120000000000005         -2.7106531313732737E-030
  0.20230000000000004         -2.6006755348833613E-030
  0.20340000000000003         -1.0591996055189081E-030
  0.20450000000000002          1.6134499322213811E-030
  0.20560000000000000          4.3991969489357370E-030
  0.20670000000000005          5.8496302758251465E-030
  0.20780000000000004          4.7095656597519245E-030
  0.20890000000000003          6.6037116238738001E-031
  0.21000000000000002         -5.1754481572710213E-030
  0.21110000000000001         -1.0324975190731353E-029
  0.21220000000000000         -1.1811756315039203E-029
  0.21330000000000005         -7.5685300903129934E-030
  0.21440000000000003          2.1450045671371727E-030
  0.21550000000000002          1.4076581595853403E-029
  0.21660000000000001          2.2681812906717059E-029
  0.21770000000000000          2.2282963119272762E-029
  0.21880000000000005          1.0030752199159418E-029
  0.21990000000000004         -1.1634753911325737E-029
  0.22100000000000003         -3.4497605369262278E-029
  0.22210000000000002         -4.6968244269822856E-029
  0.22320000000000001         -3.9059623657676401E-029
  0.22430000000000000         -8.1572780774120172E-030
  0.22540000000000004          3.7195865713156062E-029
  0.22650000000000003          7.8132662062442798E-029
  0.22760000000000002          9.1963844596615029E-029
  0.22870000000000001          6.2760591634226037E-029
  0.22980000000000000         -8.2122208191725291E-030
  0.23090000000000005         -9.7696963666423719E-029
  0.23200000000000004         -1.6554179939666753E-028
  0.23310000000000003         -1.7013418912914183E-028
  0.23420000000000002         -8.9373265365021939E-029
  0.23530000000000001          6.1956521249486944E-029
  0.23640000000000000          2.2846965936086773E-028
  0.23750000000000004          3.3017205946420679E-028
  0.23860000000000003          2.9587546825904246E-028
  0.23970000000000002          1.0210833570999655E-028
  0.24080000000000001         -2.0075553717988848E-028
  0.24190000000000000         -4.9225936905116070E-028
  0.24300000000000005         -6.2234505919208930E-028
  0.24410000000000004         -4.7863083061749009E-028
  0.24520000000000003         -5.4055764034546424E-029
  0.24630000000000002          5.1929191716061495E-028
  0.24740000000000001          9.9691508219621396E-028
  0.24850000000000005          1.1128608181845599E-027
  0.24960000000000004          7.0710091600563849E-028
  0.25070000000000003         -1.6457922859888650E-028
  0.25180000000000002         -1.1982473374633381E-027
  0.25290000000000001         -1.9246934809824915E-027
  0.25400000000000000         -1.8976740855180814E-027
  0.25510000000000005         -9.2227820748858214E-028
  0.25620000000000004          7.7954590471854235E-028
  0.25730000000000003          2.5656232209984845E-027
  0.25840000000000002          3.5775236537486876E-027
  0.25950000000000001          3.1061076068618838E-027
  0.26060000000000005          9.8074053651355101E-028
  0.26170000000000004         -2.2035790551870706E-027
  0.26280000000000003         -5.1753746657174932E-027
  0.26390000000000002         -6.4305437498803688E-027
  0.26500000000000001         -4.9050133858968330E-027
  0.26610000000000000         -6.0609667797976663E-028
  0.26720000000000005          5.1157746590054955E-027
  0.26830000000000004          9.8778757803072038E-027
  0.26940000000000003          1.1153627146585499E-026
  0.27050000000000002          7.4520054330710310E-027
  0.27160000000000001         -7.1010459106593457E-028
  0.27270000000000005         -1.0561910506833729E-026
  0.27380000000000004         -1.7853455360075178E-026
  0.27490000000000003         -1.8524559458270813E-026
  0.27600000000000002         -1.0681483979420923E-026
  0.27710000000000001          3.9913800916563815E-027
  0.27820000000000000          2.0191488624958369E-026
  0.27930000000000005          3.0668318198833331E-026
  0.28040000000000004          2.9203998157060591E-026
  0.28150000000000003          1.3788109140641312E-026
  0.28260000000000002         -1.1476635113001882E-026
  0.28370000000000001         -3.6929434980105373E-026
  0.28480000000000005         -5.0658977555461151E-026
  0.28590000000000004         -4.3615753297601136E-026
  0.28700000000000003         -1.4515548723573288E-026
  0.28810000000000002          2.7827068842362899E-026
  0.28920000000000001          6.6404063406301999E-026
  0.29030000000000000          8.2195006269534391E-026
  0.29140000000000005          6.2656490629340774E-026
  0.29250000000000004          9.0401652622417451E-027
  0.29360000000000003         -6.1144256131686166E-026
  0.29470000000000002         -1.1872472853074433E-025
  0.29580000000000001         -1.3389988231609253E-025
  0.29690000000000005         -8.9954798679027081E-026
  0.29800000000000004          6.1365280776706102E-027
  0.29910000000000003          1.2179170596330104E-025
  0.30020000000000002          2.0829541228923763E-025
  0.30130000000000001          2.1968206442653044E-025
  0.30240000000000000          1.3429753834227940E-025
  0.30350000000000005         -3.0286123730066028E-026
  0.30460000000000004         -2.1715939497278728E-025
  0.30570000000000003         -3.4777862507140441E-025
  0.30680000000000002         -3.5296011813401044E-025
  0.30790000000000001         -2.0570646455133374E-025
  0.30900000000000005          5.8634994219003845E-026
  0.31010000000000004          3.4639498259520027E-025
  0.31120000000000003          5.3650932613616169E-025
  0.31230000000000002          5.2939623933057237E-025
  0.31340000000000001          2.9505314912098652E-025
  0.31450000000000006         -1.0143268546447473E-025
  0.31560000000000005         -5.1250798028504418E-025
  0.31670000000000004         -7.6001464507712205E-025
  0.31780000000000003         -7.0983520645230294E-025
  0.31890000000000002         -3.3962008120223040E-025
  0.32000000000000001          2.3226203475204372E-025
  0.32110000000000005          7.7650294013885317E-025
  0.32220000000000004          1.0382438089719143E-024
  0.32330000000000003          8.4918209587879561E-025
  0.32440000000000002          2.2023562407295174E-025
  0.32550000000000001         -6.3084825876857556E-025
  0.32660000000000006         -1.3412717330107754E-024
  0.32770000000000005         -1.5426333077630010E-024
  0.32880000000000004         -1.0291379217951173E-024
  0.32990000000000003          1.1610639860263238E-025
  0.33100000000000002          1.5012890385393312E-024
  0.33210000000000001          2.5410950469200620E-024
  0.33320000000000005          2.6802905574783758E-024
  0.33430000000000004          1.6462402014216016E-024
  0.33540000000000003         -3.7580744857242359E-025
  0.33650000000000002         -2.7351766100986255E-024
  0.33760000000000001         -4.5083617794580795E-024
  0.33870000000000006         -4.8422779116347577E-024
  0.33980000000000005         -3.3251927418755681E-024
  0.34090000000000004         -2.3085730810889750E-025
  0.34200000000000003          3.4878258467961458E-024
  0.34310000000000002          6.4900632601092988E-024
  0.34420000000000001          7.5404439810144220E-024
  0.34530000000000005          6.0228522879570166E-024
  0.34640000000000004          2.2599133937772200E-024
  0.34750000000000003         -2.5221185890580376E-024
  0.34860000000000002         -6.6108224606859949E-024
  0.34970000000000001         -8.4728718995636256E-024
  0.35080000000000006         -7.4073596672683490E-024
  0.35190000000000005         -3.8999237633646014E-024
  0.35300000000000004          5.1358722677132282E-025
  0.35410000000000003          3.8707597201671662E-024
  0.35520000000000002          4.6702488013164433E-024
  0.35630000000000001          2.6487400736964629E-024
  0.35740000000000005         -9.3181602945179880E-025
  0.35850000000000004         -3.6990145596799202E-024
  0.35960000000000003         -3.2096956797550774E-024
  0.36070000000000002          1.7643592722987552E-024
  0.36180000000000001          1.0264537178657643E-023
  0.36290000000000006          1.9006937429683786E-023
  0.36400000000000005          2.3317331250226639E-023
  0.36510000000000004          1.8944415240306888E-023
  0.36620000000000003          4.1307580660332345E-024
  0.36730000000000002         -1.8908591119169264E-023
  0.36840000000000006         -4.3853109835710142E-023
  0.36950000000000005         -6.1810214782283440E-023
  0.37060000000000004         -6.4199855908461902E-023
  0.37170000000000003         -4.6072731543525272E-023
  0.37280000000000002         -8.6313665190477049E-024
  0.37390000000000001          4.0132926747941491E-023
  0.37500000000000006          8.7175517237770990E-023
  0.37610000000000005          1.1813233442175055E-022
  0.37720000000000004          1.2187495253503831E-022
  0.37830000000000003          9.4298662576564636E-023
  0.37940000000000002          3.9939292440129799E-023
  0.38050000000000006         -2.9230678789969262E-023
  0.38160000000000005         -9.7418452923499091E-023
  0.38270000000000004         -1.4968879661223025E-022
  0.38380000000000003         -1.7593053070010978E-022
  0.38490000000000002         -1.7265235744148389E-022
  0.38600000000000001         -1.4210894794934638E-022
  0.38710000000000000         -8.9482774312937013E-023
  0.38819999999999999         -1.9792873055113041E-023
  0.38930000000000009          6.3600625908511866E-023
  0.39040000000000008          1.5776117684829875E-022
  0.39150000000000007          2.5650956726916025E-022
  0.39260000000000006          3.4617218664699657E-022
  0.39370000000000005          4.0350899725163812E-022
  0.39480000000000004          3.9831366387941669E-022
  0.39590000000000003          3.0159437570211345E-022
  0.39700000000000002          9.7809093626796469E-023
  0.39810000000000001         -2.0273758758819305E-022
  0.39920000000000000         -5.5646646876371772E-022
  0.40029999999999999         -8.8855337593438502E-022
  0.40140000000000009         -1.1062976925067623E-021
  0.40250000000000008         -1.1218602691313655E-021
  0.40360000000000007         -8.7864421362770911E-022
  0.40470000000000006         -3.7340940277780579E-022
  0.40580000000000005          3.3336438988534412E-022
  0.40690000000000004          1.1232109666693676E-021
  0.40800000000000003          1.8409547419912518E-021
  0.40910000000000002          2.3260648823077844E-021
  0.41020000000000001          2.4455633291251739E-021
  0.41130000000000000          2.1200167549207393E-021
  0.41239999999999999          1.3373252798268270E-021
  0.41350000000000009          1.5402548008849882E-022
  0.41460000000000008         -1.3115621913506947E-021
  0.41570000000000007         -2.8880279584123806E-021
  0.41680000000000006         -4.3569760435103403E-021
  0.41790000000000005         -5.4573865130579835E-021
  0.41900000000000004         -5.8955259423396406E-021
  0.42010000000000003         -5.3719537980317186E-021
  0.42120000000000002         -3.6360954820404282E-021
  0.42230000000000001         -5.7089992805253395E-022
  0.42340000000000000          3.7036767956961013E-021
  0.42449999999999999          8.7353241941357031E-021
  0.42560000000000009          1.3691051700733748E-020
  0.42670000000000008          1.7396978420734682E-020
  0.42780000000000007          1.8495836535375643E-020
  0.42890000000000006          1.5726197490608460E-020
  0.43000000000000005          8.2917908566630796E-021
  0.43110000000000004         -3.7485746867456190E-021
  0.43220000000000003         -1.9169805768052861E-020
  0.43330000000000002         -3.5459222523114053E-020
  0.43440000000000001         -4.8982626159050584E-020
  0.43550000000000000         -5.5493047716055112E-020
  0.43659999999999999         -5.0969519949465343E-020
  0.43770000000000009         -3.2688362980638789E-020
  0.43880000000000008         -3.4171765821497642E-022
  0.43990000000000007          4.3053698953629231E-020
  0.44100000000000006          9.0749888344674977E-020
  0.44210000000000005          1.3263369051263863E-019
  0.44320000000000004          1.5654351452968424E-019
  0.44430000000000003          1.5054555227345051E-019
  0.44540000000000002          1.0594618338235415E-019
  0.44650000000000001          2.0554765405186404E-020
  0.44760000000000000         -9.8526700569225370E-020
  0.44869999999999999         -2.3345311443517630E-019
  0.44980000000000009         -3.5636400732629330E-019
  0.45090000000000008         -4.3287495455502368E-019
  0.45200000000000007         -4.2841954255558584E-019
  0.45310000000000006         -3.1682821655938764E-019
  0.45420000000000005         -8.9740142386504390E-020
  0.45530000000000004          2.3525742687761389E-019
  0.45640000000000003          6.1026494615392037E-019
  0.45750000000000002          9.5886810602047512E-019
  0.45860000000000001          1.1857111333344972E-018
  0.45970000000000000          1.1940183314596274E-018
  0.46079999999999999          9.0927511479709767E-019
  0.46190000000000009          3.0514117018603587E-019
  0.46300000000000008         -5.7416405714809251E-019
  0.46410000000000007         -1.6017313479151569E-018
  0.46520000000000006         -2.5724028159098680E-018
  0.46630000000000005         -3.2279913908891888E-018
  0.46740000000000004         -3.3036838845838445E-018
  0.46850000000000003         -2.5909526387164925E-018
  0.46960000000000002         -1.0067958039381559E-018
  0.47070000000000001          1.3455810177425903E-018
  0.47180000000000000          4.1420866558245098E-018
  0.47289999999999999          6.8456349880243271E-018
  0.47400000000000009          8.7680398929751551E-018
  0.47510000000000008          9.1879372756212047E-018
  0.47620000000000007          7.5139570382534550E-018
  0.47730000000000006          3.4682815199391212E-018
  0.47840000000000005         -2.7467944809187708E-018