 -0.12000000000000000          0.0000000000000000     
 -0.11889999999999999          0.0000000000000000     
 -0.11780000000000000          0.0000000000000000     
 -0.11670000000000000          0.0000000000000000     
 -0.11559999999999999          0.0000000000000000     
 -0.11449999999999999          0.0000000000000000     
 -0.11340000000000000          0.0000000000000000     
 -0.11230000000000000          0.0000000000000000     
 -0.11119999999999999          0.0000000000000000     
 -0.11009999999999999          0.0000000000000000     
 -0.10900000000000000          0.0000000000000000     
 -0.10790000000000000          0.0000000000000000     
 -0.10679999999999999          0.0000000000000000     
 -0.10569999999999999          0.0000000000000000     
 -0.10460000000000000          0.0000000000000000     
 -0.10349999999999999          0.0000000000000000     
 -0.10239999999999999          0.0000000000000000     
 -0.10130000000000000          0.0000000000000000     
 -0.10020000000000000          0.0000000000000000     
  -9.9099999999999994E-002     0.0000000000000000     
  -9.7999999999999990E-002     0.0000000000000000     
  -9.6899999999999986E-002     0.0000000000000000     
  -9.5799999999999996E-002     0.0000000000000000     
  -9.4699999999999993E-002     0.0000000000000000     
  -9.3599999999999989E-002     0.0000000000000000     
  -9.2499999999999999E-002     0.0000000000000000     
  -9.1399999999999995E-002     0.0000000000000000     
  -9.0299999999999991E-002     0.0000000000000000     
  -8.9200000000000002E-002     0.0000000000000000     
  -8.8099999999999984E-002     0.0000000000000000     
  -8.6999999999999994E-002     0.0000000000000000     
  -8.5899999999999990E-002     0.0000000000000000     
  -8.4799999999999986E-002     0.0000000000000000     
  -8.3699999999999997E-002     0.0000000000000000     
  -8.2599999999999993E-002     0.0000000000000000     
  -8.1499999999999989E-002     0.0000000000000000     
  -8.0399999999999999E-002     0.0000000000000000     
  -7.9299999999999995E-002     0.0000000000000000     
  -7.8199999999999992E-002     0.0000000000000000     
  -7.7100000000000002E-002     0.0000000000000000     
  -7.5999999999999984E-002     0.0000000000000000     
  -7.4899999999999994E-002    -3.1586924806143985E-045
  -7.3799999999999991E-002     0.0000000000000000     
  -7.2699999999999987E-002     1.0394636122847640E-044
  -7.1599999999999997E-002     1.1463017834625511E-039
  -7.0499999999999993E-002     3.1932687512780880E-039
  -6.9399999999999989E-002     1.2398924212242363E-039
  -6.8300000000000000E-002    -1.1677074312871435E-038
  -6.7199999999999996E-002    -3.3782974369162692E-038
  -6.6099999999999992E-002     2.0484784806759420E-038
  -6.5000000000000002E-002     2.6146269290203954E-037
  -6.3899999999999985E-002     6.0450418974035002E-037
  -6.2799999999999995E-002     5.2502561604985499E-037
  -6.1699999999999991E-002    -1.0089251419691073E-036
  -6.0599999999999994E-002    -4.6970510398787580E-036
  -5.9499999999999990E-002    -8.6568528235416821E-036
  -5.8399999999999994E-002    -5.8885305935480802E-036
  -5.7299999999999990E-002     1.4500007355863713E-035
  -5.6199999999999986E-002     5.6138425796056733E-035
  -5.5099999999999996E-002     9.2799653152066801E-035
  -5.3999999999999992E-002     5.0065824986148408E-035
  -5.2899999999999989E-002    -1.6803248410863615E-034
  -5.1799999999999985E-002    -5.6132417305998590E-034
  -5.0699999999999995E-002    -8.4016677328964214E-034
  -4.9599999999999991E-002    -3.2608568634960913E-034
  -4.8499999999999988E-002     1.7144496872186580E-033
  -4.7399999999999998E-002     5.0208346746952204E-033
  -4.6299999999999994E-002     6.8911780361203106E-033
  -4.5199999999999990E-002     1.8288415836291424E-033
  -4.4099999999999986E-002    -1.5259491024900703E-032
  -4.2999999999999997E-002    -4.0880435792117994E-032
  -4.1899999999999993E-002    -5.3166772049534956E-032
  -4.0799999999999989E-002    -1.1734844357757184E-032
  -3.9699999999999985E-002     1.1686065402866076E-031
  -3.8599999999999995E-002     3.0203264326162982E-031
  -3.7499999999999992E-002     3.8783072854131335E-031
  -3.6399999999999988E-002     1.0236425084946195E-031
  -3.5299999999999984E-002    -7.6716857884206497E-031
  -3.4199999999999994E-002    -2.0128922172888340E-030
  -3.3099999999999991E-002    -2.6439317972273822E-030
  -3.1999999999999987E-002    -9.7430484474589773E-031
  -3.0899999999999997E-002     4.3135406142642999E-030
  -2.9799999999999993E-002     1.2069067200896161E-029
  -2.8699999999999989E-002     1.6636980657064225E-029
  -2.7599999999999986E-002     8.3633678214583414E-030
  -2.6499999999999996E-002    -2.0611608975950394E-029
  -2.5399999999999992E-002    -6.5098066892903117E-029
  -2.4299999999999988E-002    -9.5936214863164201E-029
  -2.3199999999999985E-002    -6.2001817616350665E-029
  -2.2099999999999995E-002     8.1259548591017730E-029
  -2.0999999999999991E-002     3.1587303556442757E-028
  -1.9899999999999987E-002     5.0559023134378104E-028
  -1.8799999999999983E-002     3.9976350935434226E-028
  -1.7699999999999994E-002    -2.3892665213901400E-028
  -1.6599999999999990E-002    -1.3757037798157025E-027
  -1.5499999999999986E-002    -2.4338054261606911E-027
  -1.4399999999999996E-002    -2.2750603214848426E-027
  -1.3299999999999992E-002     2.8011258267642912E-028
  -1.2199999999999989E-002     5.3380808989382638E-027
  -1.1099999999999985E-002     1.0697591454957972E-026
  -9.9999999999999950E-003     1.1573307467579575E-026
  -8.8999999999999913E-003     2.5138678532415928E-027
  -7.7999999999999875E-003    -1.8124828568301322E-026
  -6.6999999999999837E-003    -4.2864047245999847E-026
  -5.5999999999999939E-003    -5.3102623975157143E-026
  -4.4999999999999901E-003    -2.5456383989992613E-026
  -3.3999999999999864E-003     5.1532809179039248E-026
  -2.2999999999999826E-003     1.5590346231456835E-025
  -1.1999999999999927E-003     2.2101711452928026E-025
  -9.9999999999988987E-005     1.5385641628961917E-025
   1.0000000000000148E-003    -1.0703178359462844E-025
   2.1000000000000185E-003    -5.1010481252285845E-025
   3.2000000000000084E-003    -8.3661194340688413E-025
   4.3000000000000121E-003    -7.4379656843100582E-025
   5.4000000000000159E-003     4.9432456014399709E-026
   6.5000000000000058E-003     1.4740000047378412E-024
   7.6000000000000234E-003     2.8787953040214529E-024
   8.7000000000000133E-003     3.0958183571735063E-024
   9.8000000000000032E-003     9.8552848344310740E-025
   1.0900000000000021E-002    -3.6094701033556773E-024
   1.2000000000000011E-002    -8.9668502493474896E-024
   1.3100000000000001E-002    -1.1417212680222030E-023
   1.4200000000000018E-002    -6.7910388415943250E-024
   1.5300000000000008E-002     6.6483982066730851E-024
   1.6400000000000026E-002     2.5026970577917085E-023
   1.7500000000000016E-002     3.7774677291974039E-023
   1.8600000000000005E-002     3.0994126923857960E-023
   1.9700000000000023E-002    -4.1843293336970962E-024
   2.0800000000000013E-002    -6.1248141418443372E-023
   2.1900000000000003E-002    -1.1255052386925686E-022
   2.3000000000000020E-002    -1.1571726944350609E-022
   2.4100000000000010E-002    -3.5543219374103042E-023
   2.5200000000000000E-002     1.2486809865573441E-022
   2.6300000000000018E-002     3.0106394064036143E-022
   2.7400000000000008E-002     3.7479515876369112E-022
   2.8500000000000025E-002     2.2618438188469704E-022
   2.9600000000000015E-002    -1.7976870306559147E-022
   3.0700000000000005E-002    -7.1441744930455970E-022
   3.1800000000000023E-002    -1.0767669619380524E-021
   3.2900000000000013E-002    -9.0392570330638132E-022
   3.4000000000000002E-002     7.2797479531269043E-024
   3.5100000000000020E-002     1.4606221515747498E-021
   3.6200000000000010E-002     2.7634196838609410E-021
   3.7300000000000028E-002     2.9239212119986236E-021
   3.8400000000000017E-002     1.1723283605400899E-021
   3.9500000000000007E-002    -2.3779274173372406E-021
   4.0600000000000025E-002    -6.3132077699682506E-021
   4.1700000000000015E-002    -8.1724374024538237E-021
   4.2800000000000005E-002    -5.5597874772666946E-021
   4.3900000000000022E-002     2.1869762118759093E-021
   4.5000000000000012E-002     1.2622281913774745E-020
   4.6100000000000002E-002     2.0206482206823165E-020
   4.7200000000000020E-002     1.8419017784784348E-020
   4.8300000000000010E-002     3.6170496533219843E-021
   4.9400000000000027E-002    -2.1077097082206623E-020
   5.0500000000000017E-002    -4.4454372646844244E-020
   5.1600000000000007E-002    -5.0615169839198283E-020
   5.2700000000000025E-002    -2.7128288317292156E-020
   5.3800000000000014E-002     2.5154371137542431E-020
   5.4900000000000004E-002     8.6313238281424051E-020
   5.6000000000000022E-002     1.2130502927130184E-019
   5.7100000000000012E-002     9.5580774250828526E-020
   5.8200000000000002E-002    -2.4346136161173472E-021
   5.9300000000000019E-002    -1.4347662944411416E-019
   6.0400000000000009E-002    -2.5780969767009000E-019
   6.1500000000000027E-002    -2.6167211444028660E-019
   6.2600000000000017E-002    -1.0424703188750022E-019
   6.3700000000000007E-002     1.8598321082470872E-019
   6.4800000000000024E-002     4.8527546838014039E-019
   6.5900000000000014E-002     6.1200526307696113E-019
   6.7000000000000004E-002     4.1599644026822544E-019
   6.8100000000000022E-002    -1.1505851272112888E-019
   6.9200000000000012E-002    -7.9190655224193626E-019
   7.0300000000000029E-002    -1.2597468174156728E-018
   7.1400000000000019E-002    -1.1510601198954300E-018
   7.2500000000000009E-002    -3.0614057815176470E-019
   7.3600000000000027E-002     1.0489164744864371E-018
   7.4700000000000016E-002     2.2927555318108387E-018
   7.5800000000000006E-002     2.6372087994227868E-018
   7.6900000000000024E-002     1.5423327541425594E-018
   7.8000000000000014E-002    -8.6673403329310812E-019
   7.9100000000000004E-002    -3.6340962755175654E-018
   8.0200000000000021E-002    -5.2491253995918087E-018
   8.1300000000000011E-002    -4.3534976973229972E-018
   8.2400000000000029E-002    -6.0345547733369434E-019
   8.3500000000000019E-002     4.7775746822235666E-018
   8.4600000000000009E-002     9.1926312253456027E-018
   8.5700000000000026E-002     9.7459990914985058E-018
   8.6800000000000016E-002     4.8504647516194733E-018
   8.7900000000000006E-002    -4.4143827596629565E-018
   8.9000000000000024E-002    -1.4078835788904951E-017
   9.0100000000000013E-002    -1.8688808466128132E-017
   9.1200000000000003E-002    -1.4023819518763620E-017
   9.2300000000000021E-002     6.5468328584465486E-020
   9.3400000000000011E-002     1.8330818381961448E-017
   9.4500000000000028E-002     3.1547110652876858E-017
   9.5600000000000018E-002     3.0671661584354582E-017
   9.6700000000000008E-002     1.2123497089904060E-017
   9.7800000000000026E-002    -1.8567397078427253E-017
   9.8900000000000016E-002    -4.7335440368994450E-017
  0.10000000000000001         -5.7252835791340160E-017
  0.10110000000000002         -3.7452445229052747E-017
  0.10220000000000001          8.9556942017637142E-018
  0.10330000000000003          6.2826720178797211E-017
  0.10440000000000002          9.5572313954866063E-017
  0.10550000000000001          8.2948961492114107E-017
  0.10660000000000003          2.0048941293475471E-017
  0.10770000000000002         -7.0784860104489891E-017
  0.10880000000000001         -1.4550874157043658E-016
  0.10990000000000003         -1.5772208686535509E-016
  0.11100000000000002         -8.4328329445822699E-017
  0.11210000000000001          5.5469369879619352E-017
  0.11320000000000002          2.0028748512800403E-016
  0.11430000000000001          2.7048061960936367E-016
  0.11540000000000003          2.0821124580690990E-016
  0.11650000000000002          1.5048652659020909E-017
  0.11760000000000001         -2.3457809437729327E-016
  0.11870000000000003         -4.1728274799485308E-016
  0.11980000000000002         -4.1732582781697258E-016
  0.12090000000000001         -1.9193864688829301E-016
  0.12200000000000003          1.8884841608791703E-016
  0.12310000000000001          5.5546340573254889E-016
  0.12420000000000003          7.0928632487269620E-016
  0.12530000000000002          5.2378413757574529E-016
  0.12640000000000001          2.7284269737341124E-017
  0.12750000000000003         -5.8147623307204034E-016
  0.12860000000000002         -1.0066919576486619E-015
  0.12970000000000001         -9.9487470942202101E-016
  0.13080000000000003         -4.7695202069895563E-016
  0.13190000000000002          3.6344515027890888E-016
  0.13300000000000001          1.1454651477067144E-015
  0.13410000000000000          1.4613207421486939E-015
  0.13520000000000004          1.0879958622228299E-015
  0.13630000000000003          1.3196304125269462E-016
  0.13740000000000002         -9.8242764822257460E-016
  0.13850000000000001         -1.6983071384018898E-015
  0.13960000000000000         -1.6092666836961891E-015
  0.14070000000000005         -6.9759023855739420E-016
  0.14180000000000004          6.1150530064696170E-016
  0.14290000000000003          1.6363979111461154E-015
  0.14400000000000002          1.7948414782807332E-015
  0.14510000000000001          9.4911431014055467E-016
  0.14620000000000000         -4.6181419453458808E-016
  0.14730000000000004         -1.6137814431250495E-015
  0.14840000000000003         -1.7504022840531671E-015
  0.14950000000000002         -6.6778907011644614E-016
  0.15060000000000001          1.0608166668240030E-015
  0.15170000000000000          2.3112247317531610E-015
  0.15280000000000005          2.0385518532067184E-015
  0.15390000000000004          4.2052063107446549E-018
  0.15500000000000003         -2.8401260191755908E-015
  0.15610000000000002         -4.6464131344356228E-015
  0.15720000000000001         -3.6418940598339138E-015
  0.15830000000000000          6.4302180462957184E-016
  0.15940000000000004          6.5892423482008009E-015
  0.16050000000000003          1.0776611783563651E-014
  0.16160000000000002          9.5118155742711990E-015
  0.16270000000000001          1.0701566235874036E-015
  0.16380000000000000         -1.2459418104380838E-014
  0.16490000000000005         -2.4947907778873019E-014
  0.16600000000000004         -2.8288252979792698E-014
  0.16710000000000003         -1.6329308339562273E-014
  0.16820000000000002          1.0900251270491260E-014
  0.16930000000000001          4.4894260728000143E-014
  0.17040000000000000          7.0139628350918711E-014
  0.17150000000000004          6.9753528401240873E-014
  0.17260000000000003          3.3652813748186781E-014
  0.17370000000000002         -3.4108669765506583E-014
  0.17480000000000001         -1.1268770269334772E-013
  0.17590000000000000         -1.6905866501954787E-013
  0.17700000000000005         -1.6963950745052194E-013
  0.17810000000000004         -9.5361564746167734E-014
  0.17920000000000003          4.5787315304576353E-014
  0.18030000000000002          2.1488931618186523E-013
  0.18140000000000001          3.5050089952308851E-013
  0.18250000000000000          3.8836772822620264E-013
  0.18360000000000004          2.8654415436218051E-013
  0.18470000000000003          4.6775416692148479E-014
  0.18580000000000002         -2.7693325729061691E-013
  0.18690000000000001         -5.8790188946163007E-013
  0.18800000000000000         -7.7357529963858764E-013
  0.18910000000000005         -7.4204726838613190E-013
  0.19020000000000004         -4.5653999112284286E-013
  0.19130000000000003          4.4158409695427097E-014
  0.19240000000000002          6.4723423814884633E-013
  0.19350000000000001          1.1903531171593503E-012
  0.19460000000000005          1.5028104426027489E-012
  0.19570000000000004          1.4519315515597346E-012
  0.19680000000000003          9.8213985239385141E-013
  0.19790000000000002          1.3685629430469972E-013
  0.19900000000000001         -9.4133017900639102E-013
  0.20010000000000000         -2.0312259792163105E-012
  0.20120000000000005         -2.8694760389233720E-012
  0.20230000000000004         -3.1967700294607172E-012
  0.20340000000000003         -2.8084875411550608E-012
  0.20450000000000002         -1.6056363784820769E-012
  0.20560000000000000          3.5833768780729885E-013
  0.20670000000000005          2.8420910582388981E-012
  0.20780000000000004          5.4041488257903124E-012
  0.20890000000000003          7.4298616388324443E-012
  0.21000000000000002          8.2133628249036852E-012
  0.21110000000000001          7.1023940688990291E-012
  0.21220000000000000          3.6965100365670231E-012
  0.21330000000000005         -1.9356355688990384E-012
  0.21440000000000003         -9.0801392837048074E-012
  0.21550000000000002         -1.6319880632977678E-011
  0.21660000000000001         -2.1668044821998671E-011
  0.21770000000000000         -2.2933524300907928E-011
  0.21880000000000005         -1.8295875448883089E-011
  0.21990000000000004         -6.9858355876771171E-012
  0.22100000000000003          1.0109915040422837E-011
  0.22210000000000002          3.0143268125950435E-011
  0.22320000000000001          4.8499971116087306E-011
  0.22430000000000000          5.9596426698538128E-011
  0.22540000000000004          5.8210029083839042E-011
  0.22650000000000003          4.1078926193924503E-011
  0.22760000000000002          8.3466444588953846E-012
  0.22870000000000001         -3.5629689098946349E-011
  0.22980000000000000         -8.2495750910251391E-011
  0.23090000000000005         -1.2128463012806409E-010
  0.23200000000000004         -1.4077267838838087E-010
  0.23310000000000003         -1.3227593666718001E-010
  0.23420000000000002         -9.2149758803871001E-011
  0.23530000000000001         -2.3267567526092536E-011
  0.23640000000000000          6.4988796035867756E-011
  0.23750000000000004          1.5826107258529473E-010
  0.23860000000000003          2.3983774887072876E-010
  0.23970000000000002          2.9361588480264870E-010
  0.24080000000000001          3.0660786747284640E-010
  0.24190000000000000          2.7047360043988370E-010
  0.24300000000000005          1.8204889955403363E-010
  0.24410000000000004          4.3337262246112293E-011
  0.24520000000000003         -1.3830665399521968E-010
  0.24630000000000002         -3.4922667929741139E-010
  0.24740000000000001         -5.6774836327069775E-010
  0.24850000000000005         -7.6250768108402422E-010
  0.24960000000000004         -8.9233371202300661E-010
  0.25070000000000003         -9.0939403694818166E-010
  0.25180000000000002         -7.6674788194341838E-010
  0.25290000000000001         -4.3013795387115330E-010
  0.25400000000000000          1.0790152019317796E-010
  0.25510000000000005          8.1514280123648478E-010
  0.25620000000000004          1.6122996828952299E-009
  0.25730000000000003          2.3750631121782154E-009
  0.25840000000000002          2.9475654692648576E-009
  0.25950000000000001          3.1664926920317889E-009
  0.26060000000000005          2.8920606503996571E-009
  0.26170000000000004          2.0398336064747847E-009
  0.26280000000000003          6.0666015726773201E-010
  0.26390000000000002         -1.3148730137682924E-009
  0.26500000000000001         -3.5364355327241866E-009
  0.26610000000000000         -5.7880864358945255E-009
  0.26720000000000005         -7.7434219483823721E-009
  0.26830000000000004         -9.0512110067882285E-009
  0.26940000000000003         -9.3693292196313320E-009
  0.27050000000000002         -8.3985801845971557E-009
  0.27160000000000001         -5.9161582657484748E-009
  0.27270000000000005         -1.8099301782921776E-009
  0.27380000000000004          3.8856063402972784E-009
  0.27490000000000003          1.0952936795351857E-008
  0.27600000000000002          1.8959105642063483E-008
  0.27710000000000001          2.7234260589823446E-008
  0.27820000000000000          3.4868527513940732E-008
  0.27930000000000005          4.0731559420643654E-008
  0.28040000000000004          4.3512853174391924E-008
  0.28150000000000003          4.1772895030760580E-008
  0.28260000000000002          3.3988094954959566E-008
  0.28370000000000001          1.8569023181079888E-008
  0.28480000000000005         -6.1663275019605163E-009
  0.28590000000000004         -4.2074598750533728E-008
  0.28700000000000003         -9.1323227537330629E-008
  0.28810000000000002         -1.5656821423494826E-007
  0.28920000000000001         -2.4115393775374741E-007
  0.29030000000000000         -3.4931658302868599E-007
  0.29140000000000005         -4.8638189377050021E-007
  0.29250000000000004         -6.5896277225121686E-007
  0.29360000000000003         -8.7517935246204891E-007
  0.29470000000000002         -1.1449348802471908E-006
  0.29580000000000001         -1.4802837908833811E-006
  0.29690000000000005         -1.8959168263707105E-006
  0.29800000000000004         -2.4097756484208055E-006
  0.29910000000000003         -3.0437818109573965E-006
  0.30020000000000002         -3.8246601664052067E-006
  0.30130000000000001         -4.7848264245427690E-006
  0.30240000000000000         -5.9633300462094112E-006
  0.30350000000000005         -7.4068578605867052E-006
  0.30460000000000004         -9.1708409137530242E-006
  0.30570000000000003         -1.1320727139016452E-005
  0.30680000000000002         -1.3933475870951174E-005
  0.30790000000000001         -1.7099345782878432E-005
  0.30900000000000005         -2.0923970478275693E-005
  0.31010000000000004         -2.5530748281903319E-005
  0.31120000000000003         -3.1063461227134411E-005
  0.31230000000000002         -3.7689086094841737E-005
  0.31340000000000001         -4.5600747067226905E-005
  0.31450000000000006         -5.5020806632102691E-005
  0.31560000000000005         -6.6204061620623417E-005
  0.31670000000000004         -7.9441134822607045E-005
  0.31780000000000003         -9.5062081940963704E-005
  0.31890000000000002         -1.1344028100774208E-004
  0.32000000000000001         -1.3499651836559119E-004
  0.32110000000000005         -1.6020325022689529E-004
  0.32220000000000004         -1.8958885711282429E-004
  0.32330000000000003         -2.2374166279554686E-004
  0.32440000000000002         -2.6331371067972302E-004
  0.32550000000000001         -3.0902397949291637E-004
  0.32660000000000006         -3.6166088990171718E-004
  0.32770000000000005         -4.2208422517512299E-004
  0.32880000000000004         -4.9122627962717882E-004
  0.32990000000000003         -5.7009210522927388E-004
  0.33100000000000002         -6.5975884884153795E-004
  0.33210000000000001         -7.6137389382482349E-004
  0.33320000000000005         -8.7615111054243212E-004
  0.33430000000000004         -1.0053659797818436E-003
  0.33540000000000003         -1.1503476954028756E-003
  0.33650000000000002         -1.3124694163348014E-003
  0.33760000000000001         -1.4931358847578707E-003
  0.33870000000000006         -1.6937677521783397E-003
  0.33980000000000005         -1.9157842056125973E-003
  0.34090000000000004         -2.1605813608485992E-003
  0.34200000000000003         -2.4295109155153347E-003
  0.34310000000000002         -2.7238530591205553E-003
  0.34420000000000001         -3.0447889111519977E-003
  0.34530000000000005         -3.3933684459464689E-003
  0.34640000000000004         -3.7704785152788433E-003
  0.34750000000000003         -4.1768041611427217E-003
  0.34860000000000002         -4.6127938007809750E-003
  0.34970000000000001         -5.0786156166732809E-003
  0.35080000000000006         -5.5741203015436174E-003
  0.35190000000000005         -6.0987980674667231E-003
  0.35300000000000004         -6.6517412901241817E-003
  0.35410000000000003         -7.2316066044825532E-003
  0.35520000000000002         -7.8365794739720940E-003
  0.35630000000000001         -8.4643453748820940E-003
  0.35740000000000005         -9.1120582558107625E-003
  0.35850000000000004         -9.7763233969366415E-003
  0.35960000000000003         -1.0453182041083194E-002
  0.36070000000000002         -1.1138101617344263E-002
  0.36180000000000001         -1.1825977612481576E-002
  0.36290000000000006         -1.2511142538128583E-002
  0.36400000000000005         -1.3187386926981026E-002
  0.36510000000000004         -1.3847994667934549E-002
  0.36620000000000003         -1.4485783084454345E-002
  0.36730000000000002         -1.5093161727742796E-002
  0.36840000000000006         -1.5662196237269655E-002
  0.36950000000000005         -1.6184689555329444E-002
  0.37060000000000004         -1.6652266087218402E-002
  0.37170000000000003         -1.7056477002062691E-002
  0.37280000000000002         -1.7388902456697022E-002
  0.37390000000000001         -1.7641275547302396E-002
  0.37500000000000006         -1.7805603063563772E-002
  0.37610000000000005         -1.7874297296230628E-002
  0.37720000000000004         -1.7840305619586154E-002
  0.37830000000000003         -1.7697244532901273E-002
  0.37940000000000002         -1.7439532423304260E-002
  0.38050000000000006         -1.7062514280876566E-002
  0.38160000000000005         -1.6562574769664239E-002
  0.38270000000000004         -1.5937257918693621E-002
  0.38380000000000003         -1.5185348536797101E-002
  0.38490000000000002         -1.4306960558614006E-002
  0.38600000000000001         -1.3303603489199517E-002
  0.38710000000000000         -1.2178225193519465E-002
  0.38819999999999999         -1.0935244620488546E-002
  0.38930000000000009         -9.5805493999166005E-003
  0.39040000000000008         -8.1214796299848308E-003
  0.39150000000000007         -6.5667777040564713E-003
  0.39260000000000006         -4.9265254162769185E-003
  0.39370000000000005         -3.2120502398505823E-003
  0.39480000000000004         -1.4358128913671605E-003
  0.39590000000000003          3.8872765931750300E-004
  0.39700000000000002          2.2472685298566253E-003
  0.39810000000000001          4.1248337438451283E-003
  0.39920000000000000          6.0059594033420186E-003
  0.40029999999999999          7.8748893853271291E-003
  0.40140000000000009          9.7157774311354955E-003
  0.40250000000000008          1.1512898595826540E-002
  0.40360000000000007          1.3250854780778015E-002
  0.40470000000000006          1.4914783962371779E-002
  0.40580000000000005          1.6490558559853385E-002
  0.40690000000000004          1.7964974977107622E-002
  0.40800000000000003          1.9325931084449039E-002
  0.40910000000000002          2.0562575293046961E-002
  0.41020000000000001          2.1665449046972762E-002
  0.41130000000000000          2.2626593039610909E-002
  0.41239999999999999          2.3439643572705064E-002
  0.41350000000000009          2.4099891101171805E-002
  0.41460000000000008          2.4604328412375677E-002
  0.41570000000000007          2.4951659023831653E-002
  0.41680000000000006          2.5142288308222165E-002
  0.41790000000000005          2.5178276255105426E-002
  0.41900000000000004          2.5063278973639410E-002
  0.42010000000000003          2.4802454405230660E-002
  0.42120000000000002          2.4402358846059655E-002
  0.42230000000000001          2.3870815839721525E-002
  0.42340000000000000          2.3216782329839709E-002
  0.42449999999999999          2.2450179826791792E-002
  0.42560000000000009          2.1581744406118441E-002
  0.42670000000000008          2.0622845625837240E-002
  0.42780000000000007          1.9585316259050720E-002
  0.42890000000000006          1.8481287158134775E-002
  0.43000000000000005          1.7323008701037083E-002
  0.43110000000000004          1.6122699865726994E-002
  0.43220000000000003          1.4892384590510713E-002
  0.43330000000000002          1.3643756846590846E-002
  0.43440000000000001          1.2388042684980279E-002
  0.43550000000000000          1.1135889819934634E-002
  0.43659999999999999          9.8972616551919450E-003
  0.43770000000000009          8.6813540143816023E-003
  0.43880000000000008          7.4965258217115447E-003
  0.43990000000000007          6.3502512943356499E-003
  0.44100000000000006          5.2490849615702629E-003
  0.44210000000000005          4.1986464697995243E-003
  0.44320000000000004          3.2036183870919389E-003
  0.44430000000000003          2.2677557598963214E-003
  0.44540000000000002          1.3939114129945171E-003
  0.44650000000000001          5.8407165472786418E-004
  0.44760000000000000         -1.6059759613454652E-004
  0.44869999999999999         -8.3969649708257521E-004
  0.44980000000000009         -1.4535314592706765E-003
  0.45090000000000008         -2.0030498277972368E-003
  0.45200000000000007         -2.4897713138019159E-003
  0.45310000000000006         -2.9157177475403720E-003
  0.45420000000000005         -3.2833396022764398E-003
  0.45530000000000004         -3.5954432301140839E-003
  0.45640000000000003         -3.8551197841549169E-003
  0.45750000000000002         -4.0656774575067245E-003
  0.45860000000000001         -4.2305789649304797E-003
  0.45970000000000000         -4.3533846808240673E-003
  0.46079999999999999         -4.4376972850186103E-003
  0.46190000000000009         -4.4871153455717421E-003
  0.46300000000000008         -4.5051875066505981E-003
  0.46410000000000007         -4.4953726720312909E-003
  0.46520000000000006         -4.4610070226342308E-003
  0.46630000000000005         -4.4052768426009184E-003
  0.46740000000000004         -4.3311995840541575E-003
  0.46850000000000003         -4.2416083164468574E-003
  0.46960000000000002         -4.1391397729648284E-003
  0.47070000000000001         -4.0262279474516461E-003
  0.47180000000000000         -3.9050984002629036E-003
  0.47289999999999999         -3.7777660166023741E-003
  0.47400000000000009         -3.6460377119763737E-003
  0.47510000000000008         -3.5115180743195999E-003
  0.47620000000000007         -3.3756172199967062E-003
  0.47730000000000006         -3.2395609905114192E-003
  0.47840000000000005         -3.1044026502048969E-003