 -0.12000000000000000          0.0000000000000000     
 -0.11889999999999999          0.0000000000000000     
 -0.11780000000000000          0.0000000000000000     
 -0.11670000000000000          0.0000000000000000     
 -0.11559999999999999          0.0000000000000000     
 -0.11449999999999999          0.0000000000000000     
 -0.11340000000000000          0.0000000000000000     
 -0.11230000000000000          0.0000000000000000     
 -0.11119999999999999          0.0000000000000000     
 -0.11009999999999999          0.0000000000000000     
 -0.10900000000000000          0.0000000000000000     
 -0.10790000000000000          0.0000000000000000     
 -0.10679999999999999          0.0000000000000000     
 -0.10569999999999999          0.0000000000000000     
 -0.10460000000000000          0.0000000000000000     
 -0.10349999999999999          0.0000000000000000     
 -0.10239999999999999          2.3377325583019087E-038
 -0.10130000000000000         -2.1920336715125073E-038
 -0.10020000000000000         -5.6864229814327235E-037
  -9.9099999999999994E-002    -6.5549020312393696E-037
  -9.7999999999999990E-002     1.0091119646298979E-035
  -9.6899999999999986E-002     5.7356599549161185E-035
  -9.5799999999999996E-002     1.1875710629501739E-034
  -9.4699999999999993E-002    -1.2333826262367369E-034
  -9.3599999999999989E-002    -1.4966254484715204E-033
  -9.2499999999999999E-002    -4.0782226318604118E-033
  -9.1399999999999995E-002    -1.9124422487375040E-033
  -9.0299999999999991E-002     2.4205250699674674E-032
  -8.9200000000000002E-002     9.5052565587434632E-032
  -8.8099999999999984E-002     1.5727650093733632E-031
  -8.6999999999999994E-002    -6.8562071585156873E-032
  -8.5899999999999990E-002    -1.1228890978320288E-030
  -8.4799999999999986E-002    -3.1520461600915266E-030
  -8.3699999999999997E-002    -3.9320150618056302E-030
  -8.2599999999999993E-002     3.5790161771237547E-030
  -8.1499999999999989E-002     2.9301570628596889E-029
  -8.0399999999999999E-002     7.0623634393561195E-029
  -7.9299999999999995E-002     7.9217121768354889E-029
  -7.8199999999999992E-002    -6.6599939424029849E-029
  -7.7100000000000002E-002    -5.0952975572867167E-028
  -7.5999999999999984E-002    -1.1773557380394135E-027
  -7.4899999999999994E-002    -1.3617467746239751E-027
  -7.3799999999999991E-002     5.4609555794930495E-028
  -7.2699999999999987E-002     6.3198239418960401E-027
  -7.1599999999999997E-002     1.5195819913552573E-026
  -7.0499999999999993E-002     1.9476496578536618E-026
  -6.9399999999999989E-002     2.0122849838266652E-027
  -6.8300000000000000E-002    -5.6711913055582251E-026
  -6.7199999999999996E-002    -1.5388397192402950E-025
  -6.6099999999999992E-002    -2.2505935385399955E-025
  -6.5000000000000002E-002    -1.1946261797038957E-025
  -6.3899999999999985E-002     3.5010739053024169E-025
  -6.2799999999999995E-002     1.2216217147857541E-024
  -6.1699999999999991E-002     2.0786658401972810E-024
  -6.0599999999999994E-002     1.8206339740496930E-024
  -5.9499999999999990E-002    -1.0879157078075817E-024
  -5.8399999999999994E-002    -7.4566769410263105E-024
  -5.7299999999999990E-002    -1.5311151193006610E-023
  -5.6199999999999986E-002    -1.8009929546745455E-023
  -5.5099999999999996E-002    -4.9114298521051994E-024
  -5.3999999999999992E-002     3.2632891107811738E-023
  -5.2899999999999989E-002     8.9279837819367353E-023
  -5.1799999999999985E-002     1.3252187942778129E-022
  -5.0699999999999995E-002     1.0050734167369247E-022
  -4.9599999999999991E-002    -7.3196996067602771E-023
  -4.8499999999999988E-002    -3.9974623915199200E-022
  -4.7399999999999998E-002    -7.5686617103108766E-022
  -4.6299999999999994E-002    -8.4627942731763323E-022
  -4.5199999999999990E-002    -2.6746766967092984E-022
  -4.4099999999999986E-002     1.2311350522920265E-021
  -4.2999999999999997E-002     3.3595217603598802E-021
  -4.1899999999999993E-002     4.9538465558801349E-021
  -4.0799999999999989E-002     4.0610900693559723E-021
  -3.9699999999999985E-002    -1.2069532469945092E-021
  -3.8599999999999995E-002    -1.1011778896713959E-020
  -3.7499999999999992E-002    -2.1927955424779822E-020
  -3.6399999999999988E-002    -2.6239414647862269E-020
  -3.5299999999999984E-002    -1.4056041042217783E-020
  -3.4199999999999994E-002     2.0857574018613401E-020
  -3.3099999999999991E-002     7.2824179797950146E-020
  -3.1999999999999987E-002     1.1789346443972278E-019
  -3.0899999999999997E-002     1.1594823290703069E-019
  -2.9799999999999993E-002     2.6876723382504565E-020
  -2.8699999999999989E-002    -1.5963019348988412E-019
  -2.7599999999999986E-002    -3.9165924084650127E-019
  -2.6499999999999996E-002    -5.4172564964222971E-019
  -2.5399999999999992E-002    -4.3719312957389021E-019
  -2.4299999999999988E-002     5.3491469617725637E-020
  -2.3199999999999985E-002     8.9741031451031111E-019
  -2.2099999999999995E-002     1.7951887243932083E-018
  -2.0999999999999991E-002     2.1864174435802699E-018
  -1.9899999999999987E-002     1.4356956165873562E-018
  -1.8799999999999983E-002    -7.9920391667041231E-019
  -1.7699999999999994E-002    -4.1367910411527140E-018
  -1.6599999999999990E-002    -7.2203239093549199E-018
  -1.5499999999999986E-002    -7.9279289469185070E-018
  -1.4399999999999996E-002    -4.2098083417743012E-018
  -1.3299999999999992E-002     4.5797694202320119E-018
  -1.2199999999999989E-002     1.6384245979884862E-017
  -1.1099999999999985E-002     2.6009807624113298E-017
  -9.9999999999999950E-003     2.6342962887625156E-017
  -8.8999999999999913E-003     1.1457479669360837E-017
  -7.7999999999999875E-003    -1.9164921142461497E-017
  -6.6999999999999837E-003    -5.7183505289048136E-017
  -5.5999999999999939E-003    -8.5185051331625818E-017
  -4.4999999999999901E-003    -8.1608580443297643E-017
  -3.3999999999999864E-003    -3.0725769437070022E-017
  -2.2999999999999826E-003     6.5365645036177664E-017
  -1.1999999999999927E-003     1.7848462535838863E-016
  -9.9999999999988987E-005     2.5636743873895963E-016
   1.0000000000000148E-003     2.3891633656403450E-016
   2.1000000000000185E-003     8.6720510306761051E-017
   3.2000000000000084E-003    -1.8778503388435105E-016
   4.3000000000000121E-003    -5.0204230412869539E-016
   5.4000000000000159E-003    -7.1360662333690844E-016
   6.5000000000000058E-003    -6.6630390957881443E-016
   7.6000000000000234E-003    -2.6403552213133440E-016
   8.7000000000000133E-003     4.5395417907025983E-016
   9.8000000000000032E-003     1.2741711220056731E-015
   1.0900000000000021E-002     1.8409778299792283E-015
   1.2000000000000011E-002     1.7722919282863771E-015
   1.3100000000000001E-002     8.3457108089693985E-016
   1.4200000000000018E-002    -8.8576644044325941E-016
   1.5300000000000008E-002    -2.8989173224186395E-015
   1.6400000000000026E-002    -4.3886843757636601E-015
   1.7500000000000016E-002    -4.4710591769170881E-015
   1.8600000000000005E-002    -2.5768190681815621E-015
   1.9700000000000023E-002     1.1769929377913185E-015
   2.0800000000000013E-002     5.8009995834446947E-015
   2.1900000000000003E-002     9.5778309803086319E-015
   2.3000000000000020E-002     1.0577134193457891E-014
   2.4100000000000010E-002     7.4274726722788759E-015
   2.5200000000000000E-002     8.3885444710186604E-017
   2.6300000000000018E-002    -9.7430456037035304E-015
   2.7400000000000008E-002    -1.8777239827036038E-014
   2.8500000000000025E-002    -2.3077802283099150E-014
   2.9600000000000015E-002    -1.9465642137994447E-014
   3.0700000000000005E-002    -7.0249228051951114E-015
   3.1800000000000023E-002     1.1913428617639325E-014
   3.2900000000000013E-002     3.1829397516107416E-014
   3.4000000000000002E-002     4.5338939444168960E-014
   3.5100000000000020E-002     4.5561817529514090E-014
   3.6200000000000010E-002     2.8853604753945397E-014
   3.7300000000000028E-002    -3.0562234109432615E-015
   3.8400000000000017E-002    -4.2443896026934588E-014
   3.9500000000000007E-002    -7.7024514153964385E-014
   4.0600000000000025E-002    -9.3323284755357505E-014
   4.1700000000000015E-002    -8.1154490950714059E-014
   4.2800000000000005E-002    -3.7848948964119139E-014
   4.3900000000000022E-002     2.9261349474094672E-014
   4.5000000000000012E-002     1.0323521687028228E-013
   4.6100000000000002E-002     1.6114463008334162E-013
   4.7200000000000020E-002     1.8029244004853784E-013
   4.8300000000000010E-002     1.4548852031968929E-013
   4.9400000000000027E-002     5.5316560658219202E-014
   5.0500000000000017E-002    -7.4652706705171518E-014
   5.1600000000000007E-002    -2.1313845328420344E-013
   5.2700000000000025E-002    -3.1929060090307715E-013
   5.3800000000000014E-002    -3.5279312565923704E-013
   5.4900000000000004E-002    -2.8583578104250662E-013
   5.6000000000000022E-002    -1.1402579997831647E-013
   5.7100000000000012E-002     1.3694354352757065E-013
   5.8200000000000002E-002     4.1159502021936856E-013
   5.9300000000000019E-002     6.3346490596430383E-013
   6.0400000000000009E-002     7.2205815545428598E-013
   6.1500000000000027E-002     6.1534902607435216E-013
   6.2600000000000017E-002     2.9296178113633053E-013
   6.3700000000000007E-002    -2.0645528201520408E-013
   6.4800000000000024E-002    -7.8043626249024722E-013
   6.5900000000000014E-002    -1.2756307512032383E-012
   6.7000000000000004E-002    -1.5198496758003777E-012
   6.8100000000000022E-002    -1.3691500190537997E-012
   6.9200000000000012E-002    -7.5989502234044548E-013
   7.0300000000000029E-002     2.4897586162891949E-013
   7.1400000000000019E-002     1.4596343881831397E-012
   7.2500000000000009E-002     2.5577142400562414E-012
   7.3600000000000027E-002     3.1773412026425696E-012
   7.4700000000000016E-002     3.0002671354278920E-012
   7.5800000000000006E-002     1.8671351357385513E-012
   7.6900000000000024E-002    -1.3102737753296900E-013
   7.8000000000000014E-002    -2.6152031928905473E-012
   7.9100000000000004E-002    -4.9604838465999723E-012
   8.0200000000000021E-002    -6.4249252619552610E-012
   8.1300000000000011E-002    -6.3465309396715242E-012
   8.2400000000000029E-002    -4.3638317785699154E-012
   8.3500000000000019E-002    -5.9766064710101152E-013
   8.4600000000000009E-002     4.2705847538848651E-012
   8.5700000000000026E-002     9.0715490674853072E-012
   8.6800000000000016E-002     1.2383045110142543E-011
   8.7900000000000006E-002     1.2892594977720329E-011
   8.9000000000000024E-002     9.8066476814095971E-012
   9.0100000000000013E-002     3.1953289840458421E-012
   9.1200000000000003E-002    -5.8416349014989155E-012
   9.2300000000000021E-002    -1.5272186293380230E-011
   9.3400000000000011E-002    -2.2516580613918258E-011
   9.4500000000000028E-002    -2.5065362979637129E-011
   9.5600000000000018E-002    -2.1199989680420472E-011
   9.6700000000000008E-002    -1.0632504425511780E-011
   9.7800000000000026E-002     5.1297958936213917E-012
   9.8900000000000016E-002     2.2846629102457605E-011
  0.10000000000000001          3.8094746107608657E-011
  0.10110000000000002          4.6243443102556014E-011
  0.10220000000000001          4.3666924243179750E-011
  0.10330000000000003          2.8908693147644549E-011
  0.10440000000000002          3.4776500255906395E-012
  0.10550000000000001         -2.8000428364816088E-011
  0.10660000000000003         -5.8428123450582348E-011
  0.10770000000000002         -7.9646345074735336E-011
  0.10880000000000001         -8.4371516717585138E-011
  0.10990000000000003         -6.8245693818358433E-011
  0.11100000000000002         -3.1487520923967338E-011
  0.11210000000000001          2.0349572721345410E-011
  0.11320000000000002          7.6857305242317153E-011
  0.11430000000000001          1.2457475329075152E-010
  0.11540000000000003          1.4987339147509715E-010
  0.11650000000000002          1.4237050427468034E-010
  0.11760000000000001          9.8093096145834835E-011
  0.11870000000000003          2.1553370199711708E-011
  0.11980000000000002         -7.3960997049038468E-011
  0.12090000000000001         -1.6823831217038787E-010
  0.12200000000000003         -2.3800955650798983E-010
  0.12310000000000001         -2.6218002768807480E-010
  0.12420000000000003         -2.2733702420563162E-010
  0.12530000000000002         -1.3221533590179746E-010
  0.12640000000000001          1.0131645522548638E-011
  0.12750000000000003          1.7331856783098232E-010
  0.12860000000000002          3.2198047006382069E-010
  0.12970000000000001          4.1890291235802124E-010
  0.13080000000000003          4.3358722168207464E-010
  0.13190000000000002          3.5038533185982601E-010
  0.13300000000000001          1.7420721809546791E-010
  0.13410000000000000         -6.7860952968068489E-011
  0.13520000000000004         -3.2991295806361620E-010
  0.13630000000000003         -5.5536253373844602E-010
  0.13740000000000002         -6.8852995527279859E-010
  0.13850000000000001         -6.8738653657973714E-010
  0.13960000000000000         -5.3465754046300162E-010
  0.14070000000000005         -2.4457941227851165E-010
  0.14180000000000004          1.3666649756327587E-010
  0.14290000000000003          5.3757376328178452E-010
  0.14400000000000002          8.7419371741503937E-010
  0.14510000000000001          1.0670225814024548E-009
  0.14620000000000000          1.0585580190181076E-009
  0.14730000000000004          8.2777290577595863E-010
  0.14840000000000003          3.9813022323365033E-010
  0.14950000000000002         -1.6309850692231009E-010
  0.15060000000000001         -7.5475115046685914E-010
  0.15170000000000000         -1.2595557929984125E-009
  0.15280000000000005         -1.5666627994903592E-009
  0.15390000000000004         -1.5946347575734876E-009
  0.15500000000000003         -1.3102494644812168E-009
  0.15610000000000002         -7.3905348507707913E-010
  0.15720000000000001          3.4959802414080698E-011
  0.15830000000000000          8.8114632257330072E-010
  0.15940000000000004          1.6438549410580094E-009
  0.16050000000000003          2.1702997177186489E-009
  0.16160000000000002          2.3396879988979435E-009
  0.16270000000000001          2.0881809614792246E-009
  0.16380000000000000          1.4248258128901625E-009
  0.16490000000000005          4.3508463498653782E-010
  0.16600000000000004         -7.2928812988592995E-010
  0.16710000000000003         -1.8728671946632858E-009
  0.16820000000000002         -2.7882816056035153E-009
  0.16930000000000001         -3.2919658110586170E-009
  0.17040000000000000         -3.2579925424158773E-009
  0.17150000000000004         -2.6441613343308745E-009
  0.17260000000000003         -1.5055614532855088E-009
  0.17370000000000002          7.3406012171539636E-012
  0.17480000000000001          1.6667144331350414E-009
  0.17590000000000000          3.1996028049263714E-009
  0.17700000000000005          4.3301735530576480E-009
  0.17810000000000004          4.8259303220277161E-009
  0.17920000000000003          4.5407482218706718E-009
  0.18030000000000002          3.4474614274415671E-009
  0.18140000000000001          1.6536939595468425E-009
  0.18250000000000000         -6.0334792717497976E-010
  0.18360000000000004         -2.9844573479209657E-009
  0.18470000000000003         -5.0961332931365178E-009
  0.18580000000000002         -6.5524865533461707E-009
  0.18690000000000001         -7.0422103704004257E-009
  0.18800000000000000         -6.3894609603210029E-009
  0.18910000000000005         -4.5972141649031073E-009
  0.19020000000000004         -1.8634787046778456E-009
  0.19130000000000003          1.4353562782787321E-009
  0.19240000000000002          4.7942729786143445E-009
  0.19350000000000001          7.6565092044234007E-009
  0.19460000000000005          9.5058920734913954E-009
  0.19570000000000004          9.9589483326667505E-009
  0.19680000000000003          8.8398941500145156E-009
  0.19790000000000002          6.2236300557572122E-009
  0.19900000000000001          2.4369968265602893E-009
  0.20010000000000000         -1.9840535880888410E-009
  0.20120000000000005         -6.3754970192064775E-009
  0.20230000000000004         -1.0051234511365692E-008
  0.20340000000000003         -1.2415782180141832E-008
  0.20450000000000002         -1.3063859327644423E-008
  0.20560000000000000         -1.1849304648592351E-008
  0.20670000000000005         -8.9112930368173693E-009
  0.20780000000000004         -4.6535206799092066E-009
  0.20890000000000003          3.1971333913638489E-010
  0.21000000000000002          5.2992783494687501E-009
  0.21110000000000001          9.5825569701446511E-009
  0.21220000000000000          1.2582024311313944E-008
  0.21330000000000005          1.3913697749501353E-008
  0.21440000000000003          1.3451772140626872E-008
  0.21550000000000002          1.1341252381669165E-008
  0.21660000000000001          7.9668955876854852E-009
  0.21770000000000000          3.8833247728575770E-009
  0.21880000000000005         -2.8297797438625594E-010
  0.21990000000000004         -3.9445922084269114E-009
  0.22100000000000003         -6.6592376057883484E-009
  0.22210000000000002         -8.2131101919458160E-009
  0.22320000000000001         -8.6661122722375694E-009
  0.22430000000000000         -8.3487741164844920E-009
  0.22540000000000004         -7.8079898102600964E-009
  0.22650000000000003         -7.7071025117447789E-009
  0.22760000000000002         -8.6938474197495452E-009
  0.22870000000000001         -1.1255728793457820E-008
  0.22980000000000000         -1.5584898704901207E-008
  0.23090000000000005         -2.1472931877042356E-008
  0.23200000000000004         -2.8249690586790166E-008
  0.23310000000000003         -3.4771755252904768E-008
  0.23420000000000002         -3.9455851919001361E-008
  0.23530000000000001         -4.0343717699897752E-008
  0.23640000000000000         -3.5179144930452821E-008
  0.23750000000000004         -2.1476539657783178E-008
  0.23860000000000003          3.4371963053558829E-009
  0.23970000000000002          4.2420065682335917E-008
  0.24080000000000001          9.8559574723822152E-008
  0.24190000000000000          1.7526745921259135E-007
  0.24300000000000005          2.7642752797873982E-007
  0.24410000000000004          4.0660142985871062E-007
  0.24520000000000003          5.7130080222123070E-007
  0.24630000000000002          7.7733409398206277E-007
  0.24740000000000001          1.0332367992305080E-006
  0.24850000000000005          1.3497876807377907E-006
  0.24960000000000004          1.7405994867658592E-006
  0.25070000000000003          2.2227761746762553E-006
  0.25180000000000002          2.8176143587188562E-006
  0.25290000000000001          3.5513353395799641E-006
  0.25400000000000000          4.4558469198818784E-006
  0.25510000000000005          5.5695554692647420E-006
  0.25620000000000004          6.9382622314151376E-006
  0.25730000000000003          8.6162053776206449E-006
  0.25840000000000002          1.0667307833500672E-005
  0.25950000000000001          1.3166699318389874E-005
  0.26060000000000005          1.6202538972720504E-005
  0.26170000000000004          1.9878172679455020E-005
  0.26280000000000003          2.4314600523211993E-005
  0.26390000000000002          2.9653203455382027E-005
  0.26500000000000001          3.6058703699382022E-005
  0.26610000000000000          4.3722306145355105E-005
  0.26720000000000005          5.2864990720991045E-005
  0.26830000000000004          6.3740990299265832E-005
  0.26940000000000003          7.6641474151983857E-005
  0.27050000000000002          9.1898429673165083E-005
  0.27160000000000001          1.0988886788254604E-004
  0.27270000000000005          1.3103926903568208E-004
  0.27380000000000004          1.5583031927235425E-004
  0.27490000000000003          1.8480172730050981E-004
  0.27600000000000002          2.1855700470041484E-004
  0.27710000000000001          2.5776805705390871E-004
  0.27820000000000000          3.0317928758449852E-004
  0.27930000000000005          3.5561120603233576E-004
  0.28040000000000004          4.1596329538151622E-004
  0.28150000000000003          4.8521600547246635E-004
  0.28260000000000002          5.6443206267431378E-004
  0.28370000000000001          6.5475649898871779E-004
  0.28480000000000005          7.5741566251963377E-004
  0.28590000000000004          8.7371480185538530E-004
  0.28700000000000003          1.0050339624285698E-003
  0.28810000000000002          1.1528217000886798E-003
  0.28920000000000001          1.3185867574065924E-003
  0.29030000000000000          1.5038868878036737E-003
  0.29140000000000005          1.7103147692978382E-003
  0.29250000000000004          1.9394810078665614E-003
  0.29360000000000003          2.1929938811808825E-003
  0.29470000000000002          2.4724348913878202E-003
  0.29580000000000001          2.7793336194008589E-003
  0.29690000000000005          3.1151371076703072E-003
  0.29800000000000004          3.4811778459697962E-003
  0.29910000000000003          3.8786374498158693E-003
  0.30020000000000002          4.3085096403956413E-003
  0.30130000000000001          4.7715576365590096E-003
  0.30240000000000000          5.2682729437947273E-003
  0.30350000000000005          5.7988306507468224E-003
  0.30460000000000004          6.3630454242229462E-003
  0.30570000000000003          6.9603254087269306E-003
  0.30680000000000002          7.5896284542977810E-003
  0.30790000000000001          8.2494197413325310E-003
  0.30900000000000005          8.9376317337155342E-003
  0.31010000000000004          9.6516320481896400E-003
  0.31120000000000003          1.0388188995420933E-002
  0.31230000000000002          1.1143450625240803E-002
  0.31340000000000001          1.1912930756807327E-002
  0.31450000000000006          1.2691497802734375E-002
  0.31560000000000005          1.3473377563059330E-002
  0.31670000000000004          1.4252166263759136E-002
  0.31780000000000003          1.5020856633782387E-002
  0.31890000000000002          1.5771869570016861E-002
  0.32000000000000001          1.6497105360031128E-002
  0.32110000000000005          1.7188007012009621E-002
  0.32220000000000004          1.7835631966590881E-002
  0.32330000000000003          1.8430743366479874E-002
  0.32440000000000002          1.8963910639286041E-002
  0.32550000000000001          1.9425617530941963E-002
  0.32660000000000006          1.9806390628218651E-002
  0.32770000000000005          2.0096924155950546E-002
  0.32880000000000004          2.0288225263357162E-002
  0.32990000000000003          2.0371759310364723E-002
  0.33100000000000002          2.0339593291282654E-002
  0.33210000000000001          2.0184541121125221E-002
  0.33320000000000005          1.9900307059288025E-002
  0.33430000000000004          1.9481627270579338E-002
  0.33540000000000003          1.8924409523606300E-002
  0.33650000000000002          1.8225848674774170E-002
  0.33760000000000001          1.7384540289640427E-002
  0.33870000000000006          1.6400568187236786E-002
  0.33980000000000005          1.5275580808520317E-002
  0.34090000000000004          1.4012839645147324E-002
  0.34200000000000003          1.2617255561053753E-002
  0.34310000000000002          1.1095392517745495E-002
  0.34420000000000001          9.4554498791694641E-003
  0.34530000000000005          7.7072153799235821E-003
  0.34640000000000004          5.8619920164346695E-003
  0.34750000000000003          3.9324965327978134E-003
  0.34860000000000002          1.9327324116602540E-003
  0.34970000000000001         -1.2215500464662910E-004
  0.35080000000000006         -2.2160483058542013E-003
  0.35190000000000005         -4.3320469558238983E-003
  0.35300000000000004         -6.4526712521910667E-003
  0.35410000000000003         -8.5600828751921654E-003
  0.35520000000000002         -1.0636318475008011E-002
  0.35630000000000001         -1.2663519941270351E-002
  0.35740000000000005         -1.4624174684286118E-002
  0.35850000000000004         -1.6501346603035927E-002
  0.35960000000000003         -1.8278904259204865E-002
  0.36070000000000002         -1.9941732287406921E-002
  0.36180000000000001         -2.1475939080119133E-002
  0.36290000000000006         -2.2869037464261055E-002
  0.36400000000000005         -2.4110110476613045E-002
  0.36510000000000004         -2.5189952924847603E-002
  0.36620000000000003         -2.6101173833012581E-002
  0.36730000000000002         -2.6838283985853195E-002
  0.36840000000000006         -2.7397738769650459E-002
  0.36950000000000005         -2.7777969837188721E-002
  0.37060000000000004         -2.7979370206594467E-002
  0.37170000000000003         -2.8004258871078491E-002
  0.37280000000000002         -2.7856819331645966E-002
  0.37390000000000001         -2.7542991563677788E-002
  0.37500000000000006         -2.7070363983511925E-002
  0.37610000000000005         -2.6448020711541176E-002
  0.37720000000000004         -2.5686381384730339E-002
  0.37830000000000003         -2.4797022342681885E-002
  0.37940000000000002         -2.3792488500475883E-002
  0.38050000000000006         -2.2686095908284187E-002
  0.38160000000000005         -2.1491715684533119E-002
  0.38270000000000004         -2.0223572850227356E-002
  0.38380000000000003         -1.8896039575338364E-002
  0.38490000000000002         -1.7523443326354027E-002
  0.38600000000000001         -1.6119875013828278E-002
  0.38710000000000000         -1.4699016697704792E-002
  0.38819999999999999         -1.3273979537189007E-002
  0.38930000000000009         -1.1857153847813606E-002
  0.39040000000000008         -1.0460085235536098E-002
  0.39150000000000007         -9.0933628380298615E-003
  0.39260000000000006         -7.7665424905717373E-003
  0.39370000000000005         -6.4880829304456711E-003
  0.39480000000000004         -5.2653085440397263E-003
  0.39590000000000003         -4.1043902747333050E-003
  0.39700000000000002         -3.0103393364697695E-003
  0.39810000000000001         -1.9870193209499121E-003
  0.39920000000000000         -1.0371807729825377E-003
  0.40029999999999999         -1.6251129272859544E-004
  0.40140000000000009          6.3629570649936795E-004
  0.40250000000000008          1.3594601769000292E-003
  0.40360000000000007          2.0080285612493753E-003
  0.40470000000000006          2.5837849825620651E-003
  0.40580000000000005          3.0891590286046267E-003
  0.40690000000000004          3.5271334927529097E-003
  0.40800000000000003          3.9011454209685326E-003
  0.40910000000000002          4.2149871587753296E-003
  0.41020000000000001          4.4727064669132233E-003
  0.41130000000000000          4.6785138547420502E-003
  0.41239999999999999          4.8367003910243511E-003
  0.41350000000000009          4.9515645951032639E-003
  0.41460000000000008          5.0273495726287365E-003
  0.41570000000000007          5.0681880675256252E-003
  0.41680000000000006          5.0780503079295158E-003
  0.41790000000000005          5.0606993027031422E-003
  0.41900000000000004          5.0196559168398380E-003
  0.42010000000000003          4.9581700004637241E-003
  0.42120000000000002          4.8792092129588127E-003
  0.42230000000000001          4.7854562290012836E-003
  0.42340000000000000          4.6793147921562195E-003
  0.42449999999999999          4.5629213564097881E-003
  0.42560000000000009          4.4381548650562763E-003
  0.42670000000000008          4.3066516518592834E-003
  0.42780000000000007          4.1698189452290535E-003
  0.42890000000000006          4.0288562886416912E-003
  0.43000000000000005          3.8847809191793203E-003
  0.43110000000000004          3.7384561728686094E-003
  0.43220000000000003          3.5906222183257341E-003
  0.43330000000000002          3.4419223666191101E-003
  0.43440000000000001          3.2929272856563330E-003
  0.43550000000000000          3.1441547907888889E-003
  0.43659999999999999          2.9960889369249344E-003
  0.43770000000000009          2.8491967823356390E-003
  0.43880000000000008          2.7039435226470232E-003
  0.43990000000000007          2.5608045980334282E-003
  0.44100000000000006          2.4202729109674692E-003
  0.44210000000000005          2.2828611545264721E-003
  0.44320000000000004          2.1490987855941057E-003
  0.44430000000000003          2.0195276010781527E-003
  0.44540000000000002          1.8946944037452340E-003
  0.44650000000000001          1.7751432023942471E-003
  0.44760000000000000          1.6614062478765845E-003
  0.44869999999999999          1.5539934393018484E-003
  0.44980000000000009          1.4533788198605180E-003
  0.45090000000000008          1.3599866069853306E-003
  0.45200000000000007          1.2741758255288005E-003
  0.45310000000000006          1.1962261050939560E-003
  0.45420000000000005          1.1263247579336166E-003
  0.45530000000000004          1.0645570000633597E-003
  0.45640000000000003          1.0108974529430270E-003
  0.45750000000000002          9.6520601073279977E-004
  0.45860000000000001          9.2722562840208411E-004
  0.45970000000000000          8.9658395154401660E-004
  0.46079999999999999          8.7279791478067636E-004
  0.46190000000000009          8.5528095951303840E-004
  0.46300000000000008          8.4335263818502426E-004
  0.46410000000000007          8.3625083789229393E-004
  0.46520000000000006          8.3314639050513506E-004
  0.46630000000000005          8.3316082600504160E-004
  0.46740000000000004          8.3538593025878072E-004
  0.46850000000000003          8.3890504902228713E-004
  0.46960000000000002          8.4281462477520108E-004
  0.47070000000000001          8.4624480223283172E-004
  0.47180000000000000          8.4837799658998847E-004
  0.47289999999999999          8.4846664685755968E-004
  0.47400000000000009          8.4585009608417749E-004
  0.47510000000000008          8.3997100591659546E-004
  0.47620000000000007          8.3039049059152603E-004
  0.47730000000000006          8.1680004950612783E-004
  0.47840000000000005          7.9902849392965436E-004