 -0.12000000000000000          0.0000000000000000     
 -0.11889999999999999          0.0000000000000000     
 -0.11780000000000000          0.0000000000000000     
 -0.11670000000000000          0.0000000000000000     
 -0.11559999999999999          0.0000000000000000     
 -0.11449999999999999          0.0000000000000000     
 -0.11340000000000000          0.0000000000000000     
 -0.11230000000000000          0.0000000000000000     
 -0.11119999999999999          0.0000000000000000     
 -0.11009999999999999          0.0000000000000000     
 -0.10900000000000000          0.0000000000000000     
 -0.10790000000000000          0.0000000000000000     
 -0.10679999999999999          0.0000000000000000     
 -0.10569999999999999          0.0000000000000000     
 -0.10460000000000000          0.0000000000000000     
 -0.10349999999999999          0.0000000000000000     
 -0.10239999999999999          0.0000000000000000     
 -0.10130000000000000          0.0000000000000000     
 -0.10020000000000000          0.0000000000000000     
  -9.9099999999999994E-002     0.0000000000000000     
  -9.7999999999999990E-002     0.0000000000000000     
  -9.6899999999999986E-002     0.0000000000000000     
  -9.5799999999999996E-002     0.0000000000000000     
  -9.4699999999999993E-002     0.0000000000000000     
  -9.3599999999999989E-002     0.0000000000000000     
  -9.2499999999999999E-002     0.0000000000000000     
  -9.1399999999999995E-002     0.0000000000000000     
  -9.0299999999999991E-002     0.0000000000000000     
  -8.9200000000000002E-002     0.0000000000000000     
  -8.8099999999999984E-002     0.0000000000000000     
  -8.6999999999999994E-002     0.0000000000000000     
  -8.5899999999999990E-002     0.0000000000000000     
  -8.4799999999999986E-002     0.0000000000000000     
  -8.3699999999999997E-002     0.0000000000000000     
  -8.2599999999999993E-002     0.0000000000000000     
  -8.1499999999999989E-002     0.0000000000000000     
  -8.0399999999999999E-002     0.0000000000000000     
  -7.9299999999999995E-002     0.0000000000000000     
  -7.8199999999999992E-002     0.0000000000000000     
  -7.7100000000000002E-002     0.0000000000000000     
  -7.5999999999999984E-002     0.0000000000000000     
  -7.4899999999999994E-002     0.0000000000000000     
  -7.3799999999999991E-002     0.0000000000000000     
  -7.2699999999999987E-002     0.0000000000000000     
  -7.1599999999999997E-002     0.0000000000000000     
  -7.0499999999999993E-002     0.0000000000000000     
  -6.9399999999999989E-002     0.0000000000000000     
  -6.8300000000000000E-002     0.0000000000000000     
  -6.7199999999999996E-002     0.0000000000000000     
  -6.6099999999999992E-002     0.0000000000000000     
  -6.5000000000000002E-002     0.0000000000000000     
  -6.3899999999999985E-002     0.0000000000000000     
  -6.2799999999999995E-002     0.0000000000000000     
  -6.1699999999999991E-002     0.0000000000000000     
  -6.0599999999999994E-002     0.0000000000000000     
  -5.9499999999999990E-002     0.0000000000000000     
  -5.8399999999999994E-002     0.0000000000000000     
  -5.7299999999999990E-002     0.0000000000000000     
  -5.6199999999999986E-002     0.0000000000000000     
  -5.5099999999999996E-002     0.0000000000000000     
  -5.3999999999999992E-002     0.0000000000000000     
  -5.2899999999999989E-002     0.0000000000000000     
  -5.1799999999999985E-002     0.0000000000000000     
  -5.0699999999999995E-002     0.0000000000000000     
  -4.9599999999999991E-002     0.0000000000000000     
  -4.8499999999999988E-002     0.0000000000000000     
  -4.7399999999999998E-002     0.0000000000000000     
  -4.6299999999999994E-002     0.0000000000000000     
  -4.5199999999999990E-002     0.0000000000000000     
  -4.4099999999999986E-002     0.0000000000000000     
  -4.2999999999999997E-002     0.0000000000000000     
  -4.1899999999999993E-002     0.0000000000000000     
  -4.0799999999999989E-002     0.0000000000000000     
  -3.9699999999999985E-002     0.0000000000000000     
  -3.8599999999999995E-002     0.0000000000000000     
  -3.7499999999999992E-002     0.0000000000000000     
  -3.6399999999999988E-002     0.0000000000000000     
  -3.5299999999999984E-002     0.0000000000000000     
  -3.4199999999999994E-002     0.0000000000000000     
  -3.3099999999999991E-002     0.0000000000000000     
  -3.1999999999999987E-002     0.0000000000000000     
  -3.0899999999999997E-002     0.0000000000000000     
  -2.9799999999999993E-002     0.0000000000000000     
  -2.8699999999999989E-002     0.0000000000000000     
  -2.7599999999999986E-002     0.0000000000000000     
  -2.6499999999999996E-002     0.0000000000000000     
  -2.5399999999999992E-002     0.0000000000000000     
  -2.4299999999999988E-002     0.0000000000000000     
  -2.3199999999999985E-002     0.0000000000000000     
  -2.2099999999999995E-002     0.0000000000000000     
  -2.0999999999999991E-002     0.0000000000000000     
  -1.9899999999999987E-002     0.0000000000000000     
  -1.8799999999999983E-002     0.0000000000000000     
  -1.7699999999999994E-002     0.0000000000000000     
  -1.6599999999999990E-002     0.0000000000000000     
  -1.5499999999999986E-002     0.0000000000000000     
  -1.4399999999999996E-002     0.0000000000000000     
  -1.3299999999999992E-002     0.0000000000000000     
  -1.2199999999999989E-002     0.0000000000000000     
  -1.1099999999999985E-002     0.0000000000000000     
  -9.9999999999999950E-003     0.0000000000000000     
  -8.8999999999999913E-003     0.0000000000000000     
  -7.7999999999999875E-003     0.0000000000000000     
  -6.6999999999999837E-003     0.0000000000000000     
  -5.5999999999999939E-003     0.0000000000000000     
  -4.4999999999999901E-003     0.0000000000000000     
  -3.3999999999999864E-003     0.0000000000000000     
  -2.2999999999999826E-003     0.0000000000000000     
  -1.1999999999999927E-003     0.0000000000000000     
  -9.9999999999988987E-005     0.0000000000000000     
   1.0000000000000148E-003     0.0000000000000000     
   2.1000000000000185E-003     0.0000000000000000     
   3.2000000000000084E-003     0.0000000000000000     
   4.3000000000000121E-003     0.0000000000000000     
   5.4000000000000159E-003     0.0000000000000000     
   6.5000000000000058E-003     0.0000000000000000     
   7.6000000000000234E-003     0.0000000000000000     
   8.7000000000000133E-003     0.0000000000000000     
   9.8000000000000032E-003     0.0000000000000000     
   1.0900000000000021E-002     0.0000000000000000     
   1.2000000000000011E-002     0.0000000000000000     
   1.3100000000000001E-002     0.0000000000000000     
   1.4200000000000018E-002     0.0000000000000000     
   1.5300000000000008E-002     0.0000000000000000     
   1.6400000000000026E-002     0.0000000000000000     
   1.7500000000000016E-002     0.0000000000000000     
   1.8600000000000005E-002     0.0000000000000000     
   1.9700000000000023E-002     0.0000000000000000     
   2.0800000000000013E-002     0.0000000000000000     
   2.1900000000000003E-002     0.0000000000000000     
   2.3000000000000020E-002     0.0000000000000000     
   2.4100000000000010E-002     0.0000000000000000     
   2.5200000000000000E-002     0.0000000000000000     
   2.6300000000000018E-002     0.0000000000000000     
   2.7400000000000008E-002     0.0000000000000000     
   2.8500000000000025E-002     0.0000000000000000     
   2.9600000000000015E-002     0.0000000000000000     
   3.0700000000000005E-002     0.0000000000000000     
   3.1800000000000023E-002     0.0000000000000000     
   3.2900000000000013E-002     0.0000000000000000     
   3.4000000000000002E-002     0.0000000000000000     
   3.5100000000000020E-002     0.0000000000000000     
   3.6200000000000010E-002     0.0000000000000000     
   3.7300000000000028E-002     0.0000000000000000     
   3.8400000000000017E-002     0.0000000000000000     
   3.9500000000000007E-002     0.0000000000000000     
   4.0600000000000025E-002     0.0000000000000000     
   4.1700000000000015E-002     0.0000000000000000     
   4.2800000000000005E-002     0.0000000000000000     
   4.3900000000000022E-002     0.0000000000000000     
   4.5000000000000012E-002     0.0000000000000000     
   4.6100000000000002E-002     0.0000000000000000     
   4.7200000000000020E-002     0.0000000000000000     
   4.8300000000000010E-002     0.0000000000000000     
   4.9400000000000027E-002     0.0000000000000000     
   5.0500000000000017E-002     0.0000000000000000     
   5.1600000000000007E-002     0.0000000000000000     
   5.2700000000000025E-002     0.0000000000000000     
   5.3800000000000014E-002     0.0000000000000000     
   5.4900000000000004E-002     0.0000000000000000     
   5.6000000000000022E-002     0.0000000000000000     
   5.7100000000000012E-002     0.0000000000000000     
   5.8200000000000002E-002     0.0000000000000000     
   5.9300000000000019E-002     0.0000000000000000     
   6.0400000000000009E-002     0.0000000000000000     
   6.1500000000000027E-002     0.0000000000000000     
   6.2600000000000017E-002     0.0000000000000000     
   6.3700000000000007E-002     0.0000000000000000     
   6.4800000000000024E-002     0.0000000000000000     
   6.5900000000000014E-002     0.0000000000000000     
   6.7000000000000004E-002     0.0000000000000000     
   6.8100000000000022E-002     0.0000000000000000     
   6.9200000000000012E-002     0.0000000000000000     
   7.0300000000000029E-002     0.0000000000000000     
   7.1400000000000019E-002     0.0000000000000000     
   7.2500000000000009E-002     0.0000000000000000     
   7.3600000000000027E-002     0.0000000000000000     
   7.4700000000000016E-002     0.0000000000000000     
   7.5800000000000006E-002     0.0000000000000000     
   7.6900000000000024E-002     0.0000000000000000     
   7.8000000000000014E-002     0.0000000000000000     
   7.9100000000000004E-002     0.0000000000000000     
   8.0200000000000021E-002     0.0000000000000000     
   8.1300000000000011E-002     0.0000000000000000     
   8.2400000000000029E-002     0.0000000000000000     
   8.3500000000000019E-002     0.0000000000000000     
   8.4600000000000009E-002     0.0000000000000000     
   8.5700000000000026E-002     0.0000000000000000     
   8.6800000000000016E-002     0.0000000000000000     
   8.7900000000000006E-002     0.0000000000000000     
   8.9000000000000024E-002     0.0000000000000000     
   9.0100000000000013E-002     0.0000000000000000     
   9.1200000000000003E-002     0.0000000000000000     
   9.2300000000000021E-002     0.0000000000000000     
   9.3400000000000011E-002     0.0000000000000000     
   9.4500000000000028E-002     0.0000000000000000     
   9.5600000000000018E-002     0.0000000000000000     
   9.6700000000000008E-002     0.0000000000000000     
   9.7800000000000026E-002     0.0000000000000000     
   9.8900000000000016E-002     0.0000000000000000     
  0.10000000000000001          3.7369606537791743E-044
  0.10110000000000002          1.3128571892773760E-039
  0.10220000000000001          2.9942445769060555E-039
  0.10330000000000003          4.1504357310275160E-039
  0.10440000000000002          3.4574108281201454E-039
  0.10550000000000001         -4.9478895247882527E-043
  0.10660000000000003         -1.8996896565339962E-038
  0.10770000000000002         -3.2205997799075232E-038
  0.10880000000000001         -1.4814184919781591E-038
  0.10990000000000003          2.5211543855877718E-038
  0.11100000000000002          9.1957881150523356E-038
  0.11210000000000001          1.5935295299155635E-037
  0.11320000000000002          1.5960276054660028E-037
  0.11430000000000001          4.2042856285295666E-038
  0.11540000000000003         -1.7981577981538733E-037
  0.11650000000000002         -4.3611936103755178E-037
  0.11760000000000001         -5.7657552044096048E-037
  0.11870000000000003         -4.4127103145630086E-037
  0.11980000000000002          5.1818856676125973E-038
  0.12090000000000001          8.1713277378003532E-037
  0.12200000000000003          1.5839268657547732E-036
  0.12310000000000001          1.8944449978167016E-036
  0.12420000000000003          1.2812802518011248E-036
  0.12530000000000002         -4.7236151679890753E-037
  0.12640000000000001         -3.0411436972632054E-036
  0.12750000000000003         -5.4281693424046387E-036
  0.12860000000000002         -6.0966464322231359E-036
  0.12970000000000001         -3.5622381463515986E-036
  0.13080000000000003          2.6371075486224074E-036
  0.13190000000000002          1.1067570382121008E-035
  0.13300000000000001          1.8098614191101114E-035
  0.13410000000000000          1.8750170680226405E-035
  0.13520000000000004          8.8946282704392848E-036
  0.13630000000000003         -1.1808803621174504E-035
  0.13740000000000002         -3.7554106843652688E-035
  0.13850000000000001         -5.6327730016791406E-035
  0.13960000000000000         -5.3472491421708398E-035
  0.14070000000000005         -1.8747029796463810E-035
  0.14180000000000004          4.5354236726046702E-035
  0.14290000000000003          1.1822058753991976E-034
  0.14400000000000002          1.6335787014005257E-034
  0.14510000000000001          1.4093321887530176E-034
  0.14620000000000000          2.8722978165105558E-035
  0.14730000000000004         -1.5629111448492753E-034
  0.14840000000000003         -3.4774820193455797E-034
  0.14950000000000002         -4.4269870566650635E-034
  0.15060000000000001         -3.4144083996189730E-034
  0.15170000000000000         -4.9809164787346858E-036
  0.15280000000000005          4.9396799666268355E-034
  0.15390000000000004          9.5843609321719781E-034
  0.15500000000000003          1.1184080241190159E-033
  0.15610000000000002          7.4680125372506753E-034
  0.15720000000000001         -1.9504103779074507E-034
  0.15830000000000000         -1.4505835638143193E-033
  0.15940000000000004         -2.4774052101759113E-033
  0.16050000000000003         -2.6195082762572366E-033
  0.16160000000000002         -1.4185751582557568E-033
  0.16270000000000001          1.0485766231452093E-033
  0.16380000000000000          3.9830965966009901E-033
  0.16490000000000005          5.9965563893161168E-033
  0.16600000000000004          5.6249495827901750E-033
  0.16710000000000003          2.0992598077953503E-033
  0.16820000000000002         -3.9483937955624315E-033
  0.16930000000000001         -1.0261684653752902E-032
  0.17040000000000000         -1.3541674817759069E-032
  0.17150000000000004         -1.0837002338983707E-032
  0.17260000000000003         -1.2969447901264576E-033
  0.17370000000000002          1.2540108970585599E-032
  0.17480000000000001          2.4821273153483917E-032
  0.17590000000000000          2.8310860070762229E-032
  0.17700000000000005          1.7831403138583099E-032
  0.17810000000000004         -6.1114345667809036E-033
  0.17920000000000003         -3.5462061580895434E-032
  0.18030000000000002         -5.6215057036789633E-032
  0.18140000000000001         -5.3909706784039200E-032
  0.18250000000000000         -2.1434212559061811E-032
  0.18360000000000004          3.4335612859608010E-032
  0.18470000000000003          9.1195695451422145E-032
  0.18580000000000002          1.1828969510591467E-031
  0.18690000000000001          9.0049091639214336E-032
  0.18800000000000000          2.2984375872902627E-033
  0.18910000000000005         -1.1767325413712508E-031
  0.19020000000000004         -2.1491641785558052E-031
  0.19130000000000003         -2.2744399667473979E-031
  0.19240000000000002         -1.1826031939691897E-031
  0.19350000000000001          9.4999505580599882E-032
  0.19460000000000005          3.3030578440442553E-031
  0.19570000000000004          4.6403113415682932E-031
  0.19680000000000003          3.8530150214669863E-031
  0.19790000000000002          6.2786386028519653E-032
  0.19900000000000001         -4.0911409182196832E-031
  0.20010000000000000         -8.1810832203949211E-031
  0.20120000000000005         -9.1100835216225850E-031
  0.20230000000000004         -5.2158114597406747E-031
  0.20340000000000003          3.0426877168309213E-031
  0.20450000000000002          1.2573726037529300E-030
  0.20560000000000000          1.8438178380260191E-030
  0.20670000000000005          1.5960118947163648E-030
  0.20780000000000004          3.4586931192574904E-031
  0.20890000000000003         -1.5705677039596854E-030
  0.21000000000000002         -3.3166196732658171E-030
  0.21110000000000001         -3.8402334443804105E-030
  0.21220000000000000         -2.3841137381435288E-030
  0.21330000000000005          9.8183804462463722E-031
  0.21440000000000003          5.0936041291948629E-030
  0.21550000000000002          7.9357271293331803E-030
  0.21660000000000001          7.4435800963358497E-030
  0.21770000000000000          2.6248231304810204E-030
  0.21880000000000005         -5.5011829843394425E-030
  0.21990000000000004         -1.3725285869874042E-029
  0.22100000000000003         -1.7600119171563730E-029
  0.22210000000000002         -1.3404809147961355E-029
  0.22320000000000001         -4.1656997289489280E-031
  0.22430000000000000          1.7628209744847974E-029
  0.22540000000000004          3.2950552207732459E-029
  0.22650000000000003          3.6449828413850528E-029
  0.22760000000000002          2.2070077770853903E-029
  0.22870000000000001         -8.9463943597620016E-030
  0.22980000000000000         -4.6207195065965852E-029
  0.23090000000000005         -7.2502622131217376E-029
  0.23200000000000004         -7.0490995845519933E-029
  0.23310000000000003         -3.1673452446491552E-029
  0.23420000000000002          3.6276083925774131E-029
  0.23530000000000001          1.0817416892587393E-028
  0.23640000000000000          1.4861014801147772E-028
  0.23750000000000004          1.2683769229582020E-028
  0.23860000000000003          3.4010580322789386E-029
  0.23970000000000002         -1.0536316907263961E-028
  0.24080000000000001         -2.3542957683642234E-028
  0.24190000000000000         -2.8760670572442138E-028
  0.24300000000000005         -2.1142640065843123E-028
  0.24410000000000004         -5.6411954985994669E-030
  0.24520000000000003          2.6611179265475898E-028
  0.24630000000000002          4.8767159710141190E-028
  0.24740000000000001          5.3288168553315268E-028
  0.24850000000000005          3.2582970971543429E-028
  0.24960000000000004         -1.0623167594666690E-028
  0.25070000000000003         -6.1593459331862229E-028
  0.25180000000000002         -9.7374310802540193E-028
  0.25290000000000001         -9.5774334671051037E-028
  0.25400000000000000         -4.6553509796119488E-028
  0.25510000000000005          4.0090123193729504E-028
  0.25620000000000004          1.3268833923054187E-027
  0.25730000000000003          1.8787551928567050E-027
  0.25840000000000002          1.6819605705714983E-027
  0.25950000000000001          6.1951380732199009E-028
  0.26060000000000005         -1.0403949427501320E-027
  0.26170000000000004         -2.6688374877362021E-027
  0.26280000000000003         -3.4813907379817490E-027
  0.26390000000000002         -2.8727468634912880E-027
  0.26500000000000001         -7.5318920040526273E-028
  0.26610000000000000          2.2744453658682280E-027
  0.26720000000000005          5.0231453921422528E-027
  0.26830000000000004          6.1360056049419131E-027
  0.26940000000000003          4.6853869602009644E-027
  0.27050000000000002          7.1729168541870968E-028
  0.27160000000000001         -4.5316135299720467E-027
  0.27270000000000005         -8.9273634635728889E-027
  0.27380000000000004         -1.0226745914980329E-026
  0.27490000000000003         -7.1053280902789773E-027
  0.27600000000000002          3.9403113934490316E-030
  0.27710000000000001          8.7027372053057779E-027
  0.27820000000000000          1.5296178555753002E-026
  0.27930000000000005          1.6227341805965023E-026
  0.28040000000000004          9.7788647108385615E-027
  0.28150000000000003         -2.6980621906275874E-027
  0.28260000000000002         -1.6713971052670441E-026
  0.28370000000000001         -2.6028461222462177E-026
  0.28480000000000005         -2.5175313793027102E-026
  0.28590000000000004         -1.2200167422258098E-026
  0.28700000000000003          9.6219471766719226E-027
  0.28810000000000002          3.2120523248536287E-026
  0.28920000000000001          4.4918372355793385E-026
  0.29030000000000000          3.9749500882792774E-026
  0.29140000000000005          1.4764322181045245E-026
  0.29250000000000004         -2.3171438416314933E-026
  0.29360000000000003         -5.9681462963748699E-026
  0.29470000000000002         -7.7790459358464428E-026
  0.29580000000000001         -6.5084634231202076E-026
  0.29690000000000005         -2.0325111323558907E-026
  0.29800000000000004          4.3613151930627572E-026
  0.29910000000000003          1.0257097531448944E-025
  0.30020000000000002          1.2959629834557860E-025
  0.30130000000000001          1.0639649123255714E-025
  0.30240000000000000          3.3171956078940565E-026
  0.30350000000000005         -6.7912905576113304E-026
  0.30460000000000004         -1.5840527146969536E-025
  0.30570000000000003         -1.9756835620685006E-025
  0.30680000000000002         -1.5997971828641836E-025
  0.30790000000000001         -4.9478054642152448E-026
  0.30900000000000005          9.7481226250719799E-026
  0.31010000000000004          2.2249181347438347E-025
  0.31120000000000003          2.6759675809839701E-025
  0.31230000000000002          2.0140285480066372E-025
  0.31340000000000001          3.7742945657911087E-026
  0.31450000000000006         -1.6293053309903525E-025
  0.31560000000000005         -3.1317838696735085E-025
  0.31670000000000004         -3.3410876880280680E-025
  0.31780000000000003         -1.9350109368634621E-025
  0.31890000000000002          7.0439792895411987E-026
  0.32000000000000001          3.5327665635842214E-025
  0.32110000000000005          5.1988878962908376E-025
  0.32220000000000004          4.6118485631633587E-025
  0.32330000000000003          1.5026839106798485E-025
  0.32440000000000002         -3.2752304285347396E-025
  0.32550000000000001         -7.8936857093880131E-025
  0.32660000000000006         -1.0166224126335796E-024
  0.32770000000000005         -8.4498036713879541E-025
  0.32880000000000004         -2.4870181896921069E-025
  0.32990000000000003          6.1924626605138647E-025
  0.33100000000000002          1.4567806031569506E-024
  0.33210000000000001          1.9117888778787374E-024
  0.33320000000000005          1.7202799252353527E-024
  0.33430000000000004          8.3120158094512160E-025
  0.33540000000000003         -5.3724285021240296E-025
  0.33650000000000002         -1.9442576012506475E-024
  0.33760000000000001         -2.8717690225730190E-024
  0.33870000000000006         -2.9212755373936186E-024
  0.33980000000000005         -1.9864086759477660E-024
  0.34090000000000004         -3.2538528675895512E-025
  0.34200000000000003          1.5095395355698205E-024
  0.34310000000000002          2.8723146363154562E-024
  0.34420000000000001          3.2816001883115048E-024
  0.34530000000000005          2.6314421158970595E-024
  0.34640000000000004          1.2555584182159362E-024
  0.34750000000000003         -2.0074707812646470E-025
  0.34860000000000002         -1.0662121935579142E-024
  0.34970000000000001         -9.7486860328464448E-025
  0.35080000000000006         -9.2870459579429419E-026
  0.35190000000000005          8.8497101014028973E-025
  0.35300000000000004          1.0090979028196892E-024
  0.35410000000000003         -4.5919260553821460E-025
  0.35520000000000002         -3.5735363322160924E-024
  0.35630000000000001         -7.4433709441477211E-024
  0.35740000000000005         -1.0361352194288319E-023
  0.35850000000000004         -1.0350545603003508E-023
  0.35960000000000003         -5.9858869860952821E-024
  0.36070000000000002          2.8044625958926756E-024
  0.36180000000000001          1.4302384800948556E-023
  0.36290000000000006          2.5186364850109153E-023
  0.36400000000000005          3.1392559546177090E-023
  0.36510000000000004          2.9440381489712988E-023
  0.36620000000000003          1.7796979220543786E-023
  0.36730000000000002         -2.2211374135872945E-024
  0.36840000000000006         -2.6400038881491590E-023
  0.36950000000000005         -4.8549902392121928E-023
  0.37060000000000004         -6.2166933118913191E-023
  0.37170000000000003         -6.2322157533195570E-023
  0.37280000000000002         -4.7158295011759176E-023
  0.37390000000000001         -1.8503257334368013E-023
  0.37500000000000006          1.8571227379201435E-023
  0.37610000000000005          5.7029399583006803E-023
  0.37720000000000004          8.9480371253579142E-023
  0.37830000000000003          1.0954077588446416E-022
  0.37940000000000002          1.1257482879629463E-022
  0.38050000000000006          9.5814815650449847E-023
  0.38160000000000005          5.8243636800631328E-023
  0.38270000000000004          7.9268881150981134E-025
  0.38380000000000003         -7.2761475463166935E-023
  0.38490000000000002         -1.5431229341641691E-022
  0.38600000000000001         -2.3009068723132566E-022
  0.38710000000000000         -2.8068229405746859E-022
  0.38819999999999999         -2.8356901389766621E-022
  0.38930000000000009         -2.1870485089841658E-022
  0.39040000000000008         -7.6423160032155591E-023
  0.39150000000000007          1.3441807368559388E-022
  0.39260000000000006          3.8116030896609443E-022
  0.39370000000000005          6.0813524805887636E-022
  0.39480000000000004          7.4557054374421793E-022
  0.39590000000000003          7.2636651592032441E-022
  0.39700000000000002          5.0762163850074416E-022
  0.39810000000000001          9.1221433251386542E-023
  0.39920000000000000         -4.6346027861751807E-022
  0.40029999999999999         -1.0409415851603332E-021
  0.40140000000000009         -1.4883339193199242E-021
  0.40250000000000008         -1.6499697026590648E-021
  0.40360000000000007         -1.4113931982105247E-021
  0.40470000000000006         -7.4193136277866117E-022
  0.40580000000000005          2.7679617349011619E-022
  0.40690000000000004          1.4476399145269425E-021
  0.40800000000000003          2.4863453627692799E-021
  0.40910000000000002          3.0805797738789033E-021
  0.41020000000000001          2.9699822768872941E-021
  0.41130000000000000          2.0300540689599649E-021
  0.41239999999999999          3.3805756889076613E-022
  0.41350000000000009         -1.8009768514461255E-021
  0.41460000000000008         -3.8846117669117950E-021
  0.41570000000000007         -5.3054166691169917E-021
  0.41680000000000006         -5.4962514377582485E-021
  0.41790000000000005         -4.1027698509846167E-021
  0.41900000000000004         -1.1430488011356249E-021
  0.42010000000000003          2.8939519738014539E-021
  0.42120000000000002          7.0571711572328285E-021
  0.42230000000000001          1.0079922507780675E-020
  0.42340000000000000          1.0665148251208466E-020
  0.42449999999999999          7.8707766377243435E-021
  0.42560000000000009          1.5141331807407418E-021
  0.42670000000000008         -7.5190894622923777E-021
  0.42780000000000007         -1.7186992465680322E-020
  0.42890000000000006         -2.4527928373398789E-020
  0.43000000000000005         -2.6262674668903772E-020
  0.43110000000000004         -1.9707522296967557E-020
  0.43220000000000003         -3.8297456180695163E-021
  0.43330000000000002          1.9825717581325464E-020
  0.43440000000000001          4.6666288664600954E-020
  0.43550000000000000          6.9343805596227565E-020
  0.43659999999999999          7.8992012058372535E-020
  0.43770000000000009          6.7374025345768281E-020
  0.43880000000000008          2.9621241116322779E-020
  0.43990000000000007         -3.3040467191615227E-020
  0.44100000000000006         -1.1138648165466933E-019
  0.44210000000000005         -1.8795942956597602E-019
  0.44320000000000004         -2.3916095018845750E-019
  0.44430000000000003         -2.3988044982833550E-019
  0.44540000000000002         -1.7022013375231874E-019
  0.44650000000000001         -2.3132013985910385E-020
  0.44760000000000000          1.8887382293477635E-019
  0.44869999999999999          4.3015304984723483E-019
  0.44980000000000009          6.4355927038254690E-019
  0.45090000000000008          7.5862506780637326E-019
  0.45200000000000007          7.0629084375035431E-019
  0.45310000000000006          4.3840218732805991E-019
  0.45420000000000005         -5.1682865891812339E-020
  0.45530000000000004         -7.1255150375623261E-019
  0.45640000000000003         -1.4280662607950130E-018
  0.45750000000000002         -2.0256842932948804E-018
  0.45860000000000001         -2.3026207500366403E-018
  0.45970000000000000         -2.0689738810812892E-018
  0.46079999999999999         -1.2022158419871541E-018
  0.46190000000000009          2.9733746499626788E-019
  0.46300000000000008          2.2641202763842548E-018
  0.46410000000000007          4.3532511401678284E-018
  0.46520000000000006          6.0678201083563004E-018
  0.46630000000000005          6.8342502713546125E-018
  0.46740000000000004          6.1224579598398656E-018
  0.46850000000000003          3.5951933332470004E-018
  0.46960000000000002         -7.4142132688277111E-019
  0.47070000000000001         -6.4234237150357676E-018
  0.47180000000000000         -1.2490879801496408E-017
  0.47289999999999999         -1.7560348192766727E-017
  0.47400000000000009         -2.0025910826776163E-017
  0.47510000000000008         -1.8380988548523686E-017
  0.47620000000000007         -1.1621249539677184E-017
  0.47730000000000006          3.4327382738214073E-019
  0.47840000000000005          1.6363630657555493E-017