 -0.12000000000000000          0.0000000000000000     
 -0.11889999999999999          0.0000000000000000     
 -0.11780000000000000          0.0000000000000000     
 -0.11670000000000000          0.0000000000000000     
 -0.11559999999999999          0.0000000000000000     
 -0.11449999999999999          0.0000000000000000     
 -0.11340000000000000          0.0000000000000000     
 -0.11230000000000000          0.0000000000000000     
 -0.11119999999999999          0.0000000000000000     
 -0.11009999999999999          0.0000000000000000     
 -0.10900000000000000          0.0000000000000000     
 -0.10790000000000000          0.0000000000000000     
 -0.10679999999999999          0.0000000000000000     
 -0.10569999999999999          0.0000000000000000     
 -0.10460000000000000          0.0000000000000000     
 -0.10349999999999999          0.0000000000000000     
 -0.10239999999999999          0.0000000000000000     
 -0.10130000000000000          0.0000000000000000     
 -0.10020000000000000          0.0000000000000000     
  -9.9099999999999994E-002     0.0000000000000000     
  -9.7999999999999990E-002     0.0000000000000000     
  -9.6899999999999986E-002     0.0000000000000000     
  -9.5799999999999996E-002     0.0000000000000000     
  -9.4699999999999993E-002     0.0000000000000000     
  -9.3599999999999989E-002     0.0000000000000000     
  -9.2499999999999999E-002     0.0000000000000000     
  -9.1399999999999995E-002     0.0000000000000000     
  -9.0299999999999991E-002     0.0000000000000000     
  -8.9200000000000002E-002     0.0000000000000000     
  -8.8099999999999984E-002     0.0000000000000000     
  -8.6999999999999994E-002     0.0000000000000000     
  -8.5899999999999990E-002     0.0000000000000000     
  -8.4799999999999986E-002     0.0000000000000000     
  -8.3699999999999997E-002     0.0000000000000000     
  -8.2599999999999993E-002     0.0000000000000000     
  -8.1499999999999989E-002     0.0000000000000000     
  -8.0399999999999999E-002     0.0000000000000000     
  -7.9299999999999995E-002     0.0000000000000000     
  -7.8199999999999992E-002     0.0000000000000000     
  -7.7100000000000002E-002     0.0000000000000000     
  -7.5999999999999984E-002     0.0000000000000000     
  -7.4899999999999994E-002     0.0000000000000000     
  -7.3799999999999991E-002     0.0000000000000000     
  -7.2699999999999987E-002     0.0000000000000000     
  -7.1599999999999997E-002     0.0000000000000000     
  -7.0499999999999993E-002     0.0000000000000000     
  -6.9399999999999989E-002     0.0000000000000000     
  -6.8300000000000000E-002     0.0000000000000000     
  -6.7199999999999996E-002     0.0000000000000000     
  -6.6099999999999992E-002     0.0000000000000000     
  -6.5000000000000002E-002     0.0000000000000000     
  -6.3899999999999985E-002     0.0000000000000000     
  -6.2799999999999995E-002     0.0000000000000000     
  -6.1699999999999991E-002     0.0000000000000000     
  -6.0599999999999994E-002     0.0000000000000000     
  -5.9499999999999990E-002     0.0000000000000000     
  -5.8399999999999994E-002     0.0000000000000000     
  -5.7299999999999990E-002     0.0000000000000000     
  -5.6199999999999986E-002     0.0000000000000000     
  -5.5099999999999996E-002     0.0000000000000000     
  -5.3999999999999992E-002     0.0000000000000000     
  -5.2899999999999989E-002     0.0000000000000000     
  -5.1799999999999985E-002     0.0000000000000000     
  -5.0699999999999995E-002     0.0000000000000000     
  -4.9599999999999991E-002     0.0000000000000000     
  -4.8499999999999988E-002     0.0000000000000000     
  -4.7399999999999998E-002     0.0000000000000000     
  -4.6299999999999994E-002     0.0000000000000000     
  -4.5199999999999990E-002     0.0000000000000000     
  -4.4099999999999986E-002     0.0000000000000000     
  -4.2999999999999997E-002     0.0000000000000000     
  -4.1899999999999993E-002     0.0000000000000000     
  -4.0799999999999989E-002     0.0000000000000000     
  -3.9699999999999985E-002     0.0000000000000000     
  -3.8599999999999995E-002     0.0000000000000000     
  -3.7499999999999992E-002     0.0000000000000000     
  -3.6399999999999988E-002     0.0000000000000000     
  -3.5299999999999984E-002     0.0000000000000000     
  -3.4199999999999994E-002     0.0000000000000000     
  -3.3099999999999991E-002     0.0000000000000000     
  -3.1999999999999987E-002     0.0000000000000000     
  -3.0899999999999997E-002     0.0000000000000000     
  -2.9799999999999993E-002     0.0000000000000000     
  -2.8699999999999989E-002     0.0000000000000000     
  -2.7599999999999986E-002     0.0000000000000000     
  -2.6499999999999996E-002     0.0000000000000000     
  -2.5399999999999992E-002     0.0000000000000000     
  -2.4299999999999988E-002     1.1770381147832440E-047
  -2.3199999999999985E-002     2.9570970818437108E-047
  -2.2099999999999995E-002     4.3004615739942132E-047
  -2.0999999999999991E-002    -1.2868674655885744E-038
  -1.9899999999999987E-002    -1.2868674794183089E-038
  -1.8799999999999983E-002     3.8922258657091485E-038
  -1.7699999999999994E-002     1.0178487314950451E-037
  -1.6599999999999990E-002     7.2125260084919449E-038
  -1.5499999999999986E-002    -1.7690338069869503E-037
  -1.4399999999999996E-002    -5.6959675339189961E-037
  -1.3299999999999992E-002    -7.2727669354422923E-037
  -1.2199999999999989E-002    -1.2619306341384951E-037
  -1.1099999999999985E-002     1.5381234791036417E-036
  -9.9999999999999950E-003     3.7362568683628484E-036
  -8.8999999999999913E-003     4.5742149227769766E-036
  -7.7999999999999875E-003     1.2102378689496814E-036
  -6.6999999999999837E-003    -8.1178631759850381E-036
  -5.5999999999999939E-003    -2.0736709089495988E-035
  -4.4999999999999901E-003    -2.6793491367288692E-035
  -3.3999999999999864E-003    -1.1014946624083078E-035
  -2.2999999999999826E-003     3.7279063624577014E-035
  -1.1999999999999927E-003     1.0658084466464405E-034
  -9.9999999999988987E-005     1.4795023472056860E-034
   1.0000000000000148E-003     8.1723544784801437E-035
   2.1000000000000185E-003    -1.5422432705413066E-034
   3.2000000000000084E-003    -5.1645454464329976E-034
   4.3000000000000121E-003    -7.7497771900609603E-034
   5.4000000000000159E-003    -5.3396097933931967E-034
   6.5000000000000058E-003     5.4852701451273208E-034
   7.6000000000000234E-003     2.3415808809257290E-033
   8.7000000000000133E-003     3.8313218261362258E-033
   9.8000000000000032E-003     3.1534444077614797E-033
   1.0900000000000021E-002    -1.4688456495504621E-033
   1.2000000000000011E-002    -9.8331416804525965E-033
   1.3100000000000001E-002    -1.7778723249407566E-032
   1.4200000000000018E-002    -1.7009750358533251E-032
   1.5300000000000008E-002     1.1733801287787883E-033
   1.6400000000000026E-002     3.7782927048824192E-032
   1.7500000000000016E-002     7.7063670052388080E-032
   1.8600000000000005E-002     8.4239688005203876E-032
   1.9700000000000023E-002     1.9252257634888654E-032
   2.0800000000000013E-002    -1.3051454760662636E-031
   2.1900000000000003E-002    -3.1070854723905829E-031
   2.3000000000000020E-002    -3.8436295885815907E-031
   2.4100000000000010E-002    -1.7819822909404643E-031
   2.5200000000000000E-002     3.9241714854625444E-031
   2.6300000000000018E-002     1.1604688005706762E-030
   2.7400000000000008E-002     1.6204426718983662E-030
   2.8500000000000025E-002     1.0683913328172463E-030
   2.9600000000000015E-002    -9.4839039271092139E-031
   3.0700000000000005E-002    -3.9950083592813863E-030
   3.1800000000000023E-002    -6.3284794301996723E-030
   3.2900000000000013E-002    -5.2620304187146758E-030
   3.4000000000000002E-002     1.3132762093751522E-030
   3.5100000000000020E-002     1.2576906916652928E-029
   3.6200000000000010E-002     2.2939707934232225E-029
   3.7300000000000028E-002     2.2761764363231163E-029
   3.8400000000000017E-002     3.1782545017194800E-030
   3.9500000000000007E-002    -3.5673463988065890E-029
   4.0600000000000025E-002    -7.7251697953702399E-029
   4.1700000000000015E-002    -8.9029868021493534E-029
   4.2800000000000005E-002    -3.6762926218005877E-029
   4.3900000000000022E-002     8.8262802733583173E-029
   4.5000000000000012E-002     2.4150874845759681E-028
   4.6100000000000002E-002     3.1979159271051778E-028
   4.7200000000000020E-002     2.0020769399609402E-028
   4.8300000000000010E-002    -1.7444367138703721E-028
   4.9400000000000027E-002    -6.9835918619664471E-028
   5.0500000000000017E-002    -1.0642738951781912E-027
   5.1600000000000007E-002    -8.5958915660974847E-028
   5.2700000000000025E-002     1.8048348873785903E-028
   5.3800000000000014E-002     1.8512627656333329E-027
   5.4900000000000004E-002     3.2970630171964860E-027
   5.6000000000000022E-002     3.2168979589241774E-027
   5.7100000000000012E-002     5.7177507326532949E-028
   5.8200000000000002E-002    -4.4107461676926244E-027
   5.9300000000000019E-002    -9.5191097547216741E-027
   6.0400000000000009E-002    -1.0892838719581189E-026
   6.1500000000000027E-002    -4.8765468824477645E-027
   6.2600000000000017E-002     9.0115645675684176E-027
   6.3700000000000007E-002     2.5545781044289511E-026
   6.4800000000000024E-002     3.3947211589947672E-026
   6.5900000000000014E-002     2.2402178758346898E-026
   6.7000000000000004E-002    -1.3636319627593986E-026
   6.8100000000000022E-002    -6.3229715166837077E-026
   6.9200000000000012E-002    -9.8128219628337758E-026
   7.0300000000000029E-002    -8.2837532661984749E-026
   7.1400000000000019E-002     3.4396224408975652E-027
   7.2500000000000009E-002     1.4198808238965445E-025
   7.3600000000000027E-002     2.6368587718530279E-025
   7.4700000000000016E-002     2.6880267840090777E-025
   7.5800000000000006E-002     8.1645074868466990E-026
   7.6900000000000024E-002    -2.7919265816408071E-025
   7.8000000000000014E-002    -6.5739274277005343E-025
   7.9100000000000004E-002    -7.9027543185424954E-025
   8.0200000000000021E-002    -4.3634520649699769E-025
   8.1300000000000011E-002     4.3754572551877622E-025
   8.2400000000000029E-002     1.5108095251461332E-024
   8.3500000000000019E-002     2.1349867557709557E-024
   8.4600000000000009E-002     1.6101315869864002E-024
   8.5700000000000026E-002    -3.4516811715521881E-025
   8.6800000000000016E-002    -3.1584629341954099E-024
   8.7900000000000006E-002    -5.3332787127418931E-024
   8.9000000000000024E-002    -4.9956084336226441E-024
   9.0100000000000013E-002    -1.0062473946385199E-024
   9.1200000000000003E-002     5.8416008581623587E-024
   9.2300000000000021E-002     1.2338572524574478E-023
   9.3400000000000011E-002     1.3809645972533833E-023
   9.4500000000000028E-002     6.5895935454341751E-024
   9.5600000000000018E-002    -8.9089056672637177E-024
   9.6700000000000008E-002    -2.6365151098877014E-023
   9.7800000000000026E-002    -3.4866474927649175E-023
   9.8900000000000016E-002    -2.4062804317946946E-023
  0.10000000000000001          8.4603432420418327E-024
  0.10110000000000002          5.1556631619173392E-023
  0.10220000000000001          8.1372895173806365E-023
  0.10330000000000003          7.1289656912674237E-023
  0.10440000000000002          8.5989921451920429E-024
  0.10550000000000001         -9.0173817379576852E-023
  0.10660000000000003         -1.7636046881461464E-022
  0.10770000000000002         -1.8653321658577976E-022
  0.10880000000000001         -7.8026587625254252E-023
  0.10990000000000003          1.3283208098225386E-022
  0.11100000000000002          3.5420106695909499E-022
  0.11210000000000001          4.4497353929981380E-022
  0.11320000000000002          2.8579024825088364E-022
  0.11430000000000001         -1.3222644681579567E-022
  0.11540000000000003         -6.5201465802981017E-022
  0.11650000000000002         -9.7994285230473915E-022
  0.11760000000000001         -8.1802493160682218E-022
  0.11870000000000003         -5.6826321399535569E-023
  0.11980000000000002          1.0714142520455179E-021
  0.12090000000000001          1.9969282856447417E-021
  0.12200000000000003          2.0381209254821386E-021
  0.12310000000000001          7.9520644687252738E-022
  0.12420000000000003         -1.4739759362127121E-021
  0.12530000000000002         -3.7472028573045507E-021
  0.12640000000000001         -4.5798982994645491E-021
  0.12750000000000003         -2.8580415206940163E-021
  0.12860000000000002          1.3570317321348241E-021
  0.12970000000000001          6.3979636692480268E-021
  0.13080000000000003          9.4152806785389927E-021
  0.13190000000000002          7.7208020763210467E-021
  0.13300000000000001          5.5162254718464764E-022
  0.13410000000000000         -9.7061888389148953E-021
  0.13520000000000004         -1.7818780493325541E-020
  0.13630000000000003         -1.7918673983075513E-020
  0.13740000000000002         -6.9507713806073406E-021
  0.13850000000000001          1.2366578457317904E-020
  0.13960000000000000          3.1111729470042627E-020
  0.14070000000000005          3.7460899837986341E-020
  0.14180000000000004          2.3005717008741438E-020
  0.14290000000000003         -1.0783579939155864E-020
  0.14400000000000002         -4.9941077304166559E-020
  0.14510000000000001         -7.2235860064529260E-020
  0.14620000000000000         -5.8028064224531897E-020
  0.14730000000000004         -3.3141063307144779E-021
  0.14840000000000003          7.2379898622475652E-020
  0.14950000000000002          1.2992293131939961E-019
  0.15060000000000001          1.2793242536362875E-019
  0.15170000000000000          4.7396031550666032E-020
  0.15280000000000005         -8.9161951371509193E-020
  0.15390000000000004         -2.1756992812322935E-019
  0.15500000000000003         -2.5732316957028465E-019
  0.15610000000000002         -1.5516454353639300E-019
  0.15720000000000001          7.3746069612962339E-020
  0.15830000000000000          3.3293579824336504E-019
  0.15940000000000004          4.7685798810313393E-019
  0.16050000000000003          3.8297785137257716E-019
  0.16160000000000002          3.2549031361124353E-020
  0.16270000000000001         -4.4600833493527460E-019
  0.16380000000000000         -8.0874781711831928E-019
  0.16490000000000005         -8.0661509146867224E-019
  0.16600000000000004         -3.3205496335895079E-019
  0.16710000000000003          4.7526426146134980E-019
  0.16820000000000002          1.2388856588698904E-018
  0.16930000000000001          1.4997930087866789E-018
  0.17040000000000000          9.6397292275291122E-019
  0.17150000000000004         -2.7745125043900628E-019
  0.17260000000000003         -1.6942324462553144E-018
  0.17370000000000002         -2.5078606404971699E-018
  0.17480000000000001         -2.0820454482811038E-018
  0.17590000000000000         -3.3619506979902243E-019
  0.17700000000000005          2.0570101708656339E-018
  0.17810000000000004          3.8657855448839122E-018
  0.17920000000000003          3.8760132404320741E-018
  0.18030000000000002          1.6119483865222543E-018
  0.18140000000000001         -2.1871444841667411E-018
  0.18250000000000000         -5.6812823534822495E-018
  0.18360000000000004         -6.7240895339888294E-018
  0.18470000000000003         -4.0477570497336298E-018
  0.18580000000000002          1.7573273653385514E-018
  0.18690000000000001          8.0988227136326815E-018
  0.18800000000000000          1.1376931222467789E-017
  0.18910000000000005          8.8291008449615299E-018
  0.19020000000000004          3.6481421652642376E-019
  0.19130000000000003         -1.0682781059047647E-017
  0.19240000000000002         -1.8601035297834744E-017
  0.19350000000000001         -1.7984473137777704E-017
  0.19460000000000005         -6.9203159010472078E-018
  0.19570000000000004          1.1039352936215319E-017
  0.19680000000000003          2.7546156446989616E-017
  0.19790000000000002          3.3015329157974074E-017
  0.19900000000000001          2.1729511976433750E-017
  0.20010000000000000         -4.0563942134323261E-018
  0.20120000000000005         -3.3563852254466020E-017
  0.20230000000000004         -5.1599744747875302E-017
  0.20340000000000003         -4.6030215531379853E-017
  0.20450000000000002         -1.5132015669995655E-017
  0.20560000000000000          2.9344248176858568E-017
  0.20670000000000005          6.6014524659633672E-017
  0.20780000000000004          7.3851823102954850E-017
  0.20890000000000003          4.3928333412242693E-017
  0.21000000000000002         -1.3382275915008184E-017
  0.21110000000000001         -7.0723841987918442E-017
  0.21220000000000000         -9.6153339724942910E-017
  0.21330000000000005         -7.0517815585637686E-017
  0.21440000000000003         -8.3283454466322620E-019
  0.21550000000000002          7.8841692696643715E-017
  0.21660000000000001          1.2207011175911804E-016
  0.21770000000000000          9.4954748207416110E-017
  0.21880000000000005         -1.0286815190622340E-018
  0.21990000000000004         -1.2199821999165951E-016
  0.22100000000000003         -1.9796560001548099E-016
  0.22210000000000002         -1.6817568973671145E-016
  0.22320000000000001         -1.9323500670020477E-017
  0.22430000000000000          1.9467490524763177E-016
  0.22540000000000004          3.6681701301573838E-016
  0.22650000000000003          3.8467236149043876E-016
  0.22760000000000002          1.9225702270480184E-016
  0.22870000000000001         -1.6520243406860678E-016
  0.22980000000000000         -5.4196836625068415E-016
  0.23090000000000005         -7.4706336600353997E-016
  0.23200000000000004         -6.3523236034778475E-016
  0.23310000000000003         -1.9176051991269813E-016
  0.23420000000000002          4.3508897869091266E-016
  0.23530000000000001          9.8037859048181043E-016
  0.23640000000000000          1.1763790545992385E-015
  0.23750000000000004          8.8514223949413034E-016
  0.23860000000000003          1.8342106672762364E-016
  0.23970000000000002         -6.5084401179027152E-016
  0.24080000000000001         -1.2560284138127873E-015
  0.24190000000000000         -1.3591111711729319E-015
  0.24300000000000005         -9.1779484246109889E-016
  0.24410000000000004         -1.5320421537912567E-016
  0.24520000000000003          5.5601696306688863E-016
  0.24630000000000002          8.7423042008828589E-016
  0.24740000000000001          7.0116271168320774E-016
  0.24850000000000005          2.4413001521485877E-016
  0.24960000000000004         -8.8531126644318163E-017
  0.25070000000000003          6.4032539732390513E-017
  0.25180000000000002          7.5176687191093001E-016
  0.25290000000000001          1.5946319659788116E-015
  0.25400000000000000          1.9127066742944236E-015
  0.25510000000000005          1.0844914868988727E-015
  0.25620000000000004         -1.0264451849606587E-015
  0.25730000000000003         -3.8119401394867885E-015
  0.25840000000000002         -6.0199123443654379E-015
  0.25950000000000001         -6.2489457909239824E-015
  0.26060000000000005         -3.6599073881001733E-015
  0.26170000000000004          1.4283144378241336E-015
  0.26280000000000003          7.3987812199939846E-015
  0.26390000000000002          1.1819663053226469E-014
  0.26500000000000001          1.2427144094674594E-014
  0.26610000000000000          8.2089420290693461E-015
  0.26720000000000005          7.5007184865850640E-017
  0.26830000000000004         -9.2681659232192530E-015
  0.26940000000000003         -1.6282340029501138E-014
  0.27050000000000002         -1.8040119891357504E-014
  0.27160000000000001         -1.3515483435229156E-014
  0.27270000000000005         -4.1113996541186796E-015
  0.27380000000000004          6.8612507934590051E-015
  0.27490000000000003          1.5546906906687987E-014
  0.27600000000000002          1.9125133566493412E-014
  0.27710000000000001          1.6859742577051818E-014
  0.27820000000000000          1.0130986720193305E-014
  0.27930000000000005          1.4942090902488533E-015
  0.28040000000000004         -6.6655363599087924E-015
  0.28150000000000003         -1.3086939390069486E-014
  0.28260000000000002         -1.7628172477239615E-014
  0.28370000000000001         -2.0337214796327693E-014
  0.28480000000000005         -2.0278569963740903E-014
  0.28590000000000004         -1.5106312348028240E-014
  0.28700000000000003         -2.0846906539812759E-015
  0.28810000000000002          1.9572339110074654E-014
  0.28920000000000001          4.6153375751269211E-014
  0.29030000000000000          6.8379887191248468E-014
  0.29140000000000005          7.3222490540545020E-014
  0.29250000000000004          4.8822327908687764E-014
  0.29360000000000003         -8.9300388172766317E-015
  0.29470000000000002         -9.0960745552928016E-014
  0.29580000000000001         -1.7378916480847917E-013
  0.29690000000000005         -2.2438144171740213E-013
  0.29800000000000004         -2.1058884696684659E-013
  0.29910000000000003         -1.1408886480177651E-013
  0.30020000000000002          5.8907002598226175E-014
  0.30130000000000001          2.7375502672268268E-013
  0.30240000000000000          4.7278028702430238E-013
  0.30350000000000005          5.8920246168539225E-013
  0.30460000000000004          5.6571680314048178E-013
  0.30570000000000003          3.7222027451730776E-013
  0.30680000000000002          1.7633459963821512E-014
  0.30790000000000001         -4.4703177989578006E-013
  0.30900000000000005         -9.3442906889422847E-013
  0.31010000000000004         -1.3335156533562422E-012
  0.31120000000000003         -1.5266960915133669E-012
  0.31230000000000002         -1.4099728422902103E-012
  0.31340000000000001         -9.1563682818441323E-013
  0.31450000000000006         -3.6750387639320937E-014
  0.31560000000000005          1.1496603256252051E-012
  0.31670000000000004          2.4675222742566636E-012
  0.31780000000000003          3.6446553244524061E-012
  0.31890000000000002          4.3434739379554523E-012
  0.32000000000000001          4.2239363164702381E-012
  0.32110000000000005          3.0331236791925415E-012
  0.32220000000000004          7.0369796343664548E-013
  0.32330000000000003         -2.5661473722810307E-012
  0.32440000000000002         -6.2811171157263563E-012
  0.32550000000000001         -9.6882137744431311E-012
  0.32660000000000006         -1.1893471455681898E-011
  0.32770000000000005         -1.2041535308554294E-011
  0.32880000000000004         -9.5244766946347360E-012
  0.32990000000000003         -4.1747924508091846E-012
  0.33100000000000002          3.6027984103277892E-012
  0.33210000000000001          1.2795882424705809E-011
  0.33320000000000005          2.1863113761381846E-011
  0.33430000000000004          2.8925865172493988E-011
  0.33540000000000003          3.2054182197763490E-011
  0.33650000000000002          2.9614626664405378E-011
  0.33760000000000001          2.0636530589591370E-011
  0.33870000000000006          5.1433786703869517E-012
  0.33980000000000005         -1.5612074237432146E-011
  0.34090000000000004         -3.9073723491225418E-011
  0.34200000000000003         -6.1526471413680991E-011
  0.34310000000000002         -7.8493024474030564E-011
  0.34420000000000001         -8.5375636891978524E-011
  0.34530000000000005         -7.8280832871701349E-011
  0.34640000000000004         -5.4908598096741816E-011
  0.34750000000000003         -1.5345575095161254E-011
  0.34860000000000002          3.7411352119149533E-011
  0.34970000000000001          9.7351252200254110E-011
  0.35080000000000006          1.5585586974166271E-010
  0.35190000000000005          2.0262483310615419E-010
  0.35300000000000004          2.2703788766797332E-010
  0.35410000000000003          2.1979482011559814E-010
  0.35520000000000002          1.7461988670826486E-010
  0.35630000000000001          8.9793393682099616E-011
  0.35740000000000005         -3.0722793355695387E-011
  0.35850000000000004         -1.7677036269589784E-010
  0.35960000000000003         -3.3224481468539512E-010
  0.36070000000000002         -4.7619591479444610E-010
  0.36180000000000001         -5.8477522602769855E-010
  0.36290000000000006         -6.3392130126001116E-010
  0.36400000000000005         -6.0256432810092689E-010
  0.36510000000000004         -4.7602799099574679E-010
  0.36620000000000003         -2.4923290871382164E-010
  0.36730000000000002          7.0724026157413401E-011
  0.36840000000000006          4.6301715298865938E-010
  0.36950000000000005          8.9290136231623687E-010
  0.37060000000000004          1.3131116152326312E-009
  0.37170000000000003          1.6669595635587472E-009
  0.37280000000000002          1.8930956710754534E-009
  0.37390000000000001          1.9317622948785458E-009
  0.37500000000000006          1.7321965969571241E-009
  0.37610000000000005          1.2606571235510829E-009
  0.37720000000000004          5.0835301794751563E-010
  0.37830000000000003         -5.0162852095615263E-010
  0.37940000000000002         -1.7094093907834678E-009
  0.38050000000000006         -3.0164393127907358E-009
  0.38160000000000005         -4.2874987852377435E-009
  0.38270000000000004         -5.3571347131876755E-009
  0.38380000000000003         -6.0406350740991879E-009
  0.38490000000000002         -6.1491584820428827E-009
  0.38600000000000001         -5.5081827636273646E-009
  0.38710000000000000         -3.9780378666113747E-009
  0.38819999999999999         -1.4750773687832073E-009
  0.38930000000000009          2.0080814902887214E-009
  0.39040000000000008          6.3847793640000912E-009
  0.39150000000000007          1.1460384608499848E-008
  0.39260000000000006          1.6923303584927849E-008
  0.39370000000000005          2.2341538301998421E-008
  0.39480000000000004          2.7164700582680293E-008
  0.39590000000000003          3.0730543284246366E-008
  0.39700000000000002          3.2273948663894179E-008
  0.39810000000000001          3.0935307453949938E-008
  0.39920000000000000          2.5764378885264662E-008
  0.40029999999999999          1.5715201424862889E-008
  0.40140000000000009         -3.7235424571934009E-010
  0.40250000000000008         -2.3808237156207427E-008
  0.40360000000000007         -5.6108237901241158E-008
  0.40470000000000006         -9.9072316206747319E-008
  0.40580000000000005         -1.5488670547655653E-007
  0.40690000000000004         -2.2625029214324339E-007
  0.40800000000000003         -3.1652629522515454E-007
  0.40910000000000002         -4.2992018977917928E-007
  0.41020000000000001         -5.7168579982006142E-007
  0.41130000000000000         -7.4836281854468688E-007
  0.41239999999999999         -9.6804887514394948E-007
  0.41350000000000009         -1.2407129978341526E-006
  0.41460000000000008         -1.5785544663581160E-006
  0.41570000000000007         -1.9964168026022779E-006
  0.41680000000000006         -2.5122626405150736E-006
  0.41790000000000005         -3.1477227198431204E-006
  0.41900000000000004         -3.9287265070164467E-006
  0.42010000000000003         -4.8862266076743089E-006
  0.42120000000000002         -6.0570332280493359E-006
  0.42230000000000001         -7.4847580030888607E-006
  0.42340000000000000         -9.2208928845387156E-006
  0.42449999999999999         -1.1326014766668711E-005
  0.42560000000000009         -1.3871136540644156E-005
  0.42670000000000008         -1.6939204122796067E-005
  0.42780000000000007         -2.0626754008705183E-005
  0.42890000000000006         -2.5045717710679331E-005
  0.43000000000000005         -3.0325390813770660E-005
  0.43110000000000004         -3.6614553917407106E-005
  0.43220000000000003         -4.4083739096175210E-005
  0.43330000000000002         -5.2927632784807080E-005
  0.43440000000000001         -6.3367624182318982E-005
  0.43550000000000000         -7.5654410044820368E-005
  0.43659999999999999         -9.0070679513856624E-005
  0.43770000000000009         -1.0693385351443286E-004
  0.43880000000000008         -1.2659872228963146E-004
  0.43990000000000007         -1.4946001381363231E-004
  0.44100000000000006         -1.7595480213366597E-004
  0.44210000000000005         -2.0656459556983302E-004
  0.44320000000000004         -2.4181714842853576E-004
  0.44430000000000003         -2.8228777067483617E-004
  0.44540000000000002         -3.2860011373586970E-004
  0.44650000000000001         -3.8142633057190696E-004
  0.44760000000000000         -4.4148624621718449E-004
  0.44869999999999999         -5.0954578617306504E-004
  0.44980000000000009         -5.8641400781734199E-004
  0.45090000000000008         -6.7293934601012724E-004
  0.45200000000000007         -7.7000422888524379E-004
  0.45310000000000006         -8.7851809293095200E-004
  0.45420000000000005         -9.9940923391746497E-004
  0.45530000000000004         -1.1336138638567562E-003
  0.45640000000000003         -1.2820648187164064E-003
  0.45750000000000002         -1.4456770065044559E-003
  0.45860000000000001         -1.6253315747857312E-003
  0.45970000000000000         -1.8218582155530275E-003
  0.46079999999999999         -2.0360157238684838E-003
  0.46190000000000009         -2.2684696461219189E-003
  0.46300000000000008         -2.5197698118738644E-003
  0.46410000000000007         -2.7903264687147451E-003
  0.46520000000000006         -3.0803836231563433E-003
  0.46630000000000005         -3.3899934292611527E-003
  0.46740000000000004         -3.7189889474572636E-003
  0.46850000000000003         -4.0669594644902997E-003
  0.46960000000000002         -4.4332220880850832E-003
  0.47070000000000001         -4.8167993952040085E-003
  0.47180000000000000         -5.2163945191683360E-003
  0.47289999999999999         -5.6303720575455697E-003
  0.47400000000000009         -6.0567408426819682E-003
  0.47510000000000008         -6.4931413688478871E-003
  0.47620000000000007         -6.9368369446734272E-003
  0.47730000000000006         -7.3847085708743133E-003
  0.47840000000000005         -7.8332600625261092E-003