 -0.12000000000000000          0.0000000000000000     
 -0.11889999999999999          0.0000000000000000     
 -0.11780000000000000          0.0000000000000000     
 -0.11670000000000000          0.0000000000000000     
 -0.11559999999999999          0.0000000000000000     
 -0.11449999999999999          0.0000000000000000     
 -0.11340000000000000          0.0000000000000000     
 -0.11230000000000000          0.0000000000000000     
 -0.11119999999999999          0.0000000000000000     
 -0.11009999999999999          0.0000000000000000     
 -0.10900000000000000          0.0000000000000000     
 -0.10790000000000000          0.0000000000000000     
 -0.10679999999999999          0.0000000000000000     
 -0.10569999999999999          0.0000000000000000     
 -0.10460000000000000          0.0000000000000000     
 -0.10349999999999999          0.0000000000000000     
 -0.10239999999999999          0.0000000000000000     
 -0.10130000000000000          0.0000000000000000     
 -0.10020000000000000          0.0000000000000000     
  -9.9099999999999994E-002     0.0000000000000000     
  -9.7999999999999990E-002     0.0000000000000000     
  -9.6899999999999986E-002     0.0000000000000000     
  -9.5799999999999996E-002     0.0000000000000000     
  -9.4699999999999993E-002     0.0000000000000000     
  -9.3599999999999989E-002     0.0000000000000000     
  -9.2499999999999999E-002     0.0000000000000000     
  -9.1399999999999995E-002     0.0000000000000000     
  -9.0299999999999991E-002     0.0000000000000000     
  -8.9200000000000002E-002     0.0000000000000000     
  -8.8099999999999984E-002     0.0000000000000000     
  -8.6999999999999994E-002     0.0000000000000000     
  -8.5899999999999990E-002     0.0000000000000000     
  -8.4799999999999986E-002     0.0000000000000000     
  -8.3699999999999997E-002     0.0000000000000000     
  -8.2599999999999993E-002     0.0000000000000000     
  -8.1499999999999989E-002     0.0000000000000000     
  -8.0399999999999999E-002     0.0000000000000000     
  -7.9299999999999995E-002     0.0000000000000000     
  -7.8199999999999992E-002     0.0000000000000000     
  -7.7100000000000002E-002     0.0000000000000000     
  -7.5999999999999984E-002     0.0000000000000000     
  -7.4899999999999994E-002     0.0000000000000000     
  -7.3799999999999991E-002     0.0000000000000000     
  -7.2699999999999987E-002     0.0000000000000000     
  -7.1599999999999997E-002     0.0000000000000000     
  -7.0499999999999993E-002     0.0000000000000000     
  -6.9399999999999989E-002     0.0000000000000000     
  -6.8300000000000000E-002     0.0000000000000000     
  -6.7199999999999996E-002     0.0000000000000000     
  -6.6099999999999992E-002     0.0000000000000000     
  -6.5000000000000002E-002     0.0000000000000000     
  -6.3899999999999985E-002     0.0000000000000000     
  -6.2799999999999995E-002     0.0000000000000000     
  -6.1699999999999991E-002     0.0000000000000000     
  -6.0599999999999994E-002     0.0000000000000000     
  -5.9499999999999990E-002     0.0000000000000000     
  -5.8399999999999994E-002     0.0000000000000000     
  -5.7299999999999990E-002     0.0000000000000000     
  -5.6199999999999986E-002     0.0000000000000000     
  -5.5099999999999996E-002     0.0000000000000000     
  -5.3999999999999992E-002     0.0000000000000000     
  -5.2899999999999989E-002     0.0000000000000000     
  -5.1799999999999985E-002     0.0000000000000000     
  -5.0699999999999995E-002     0.0000000000000000     
  -4.9599999999999991E-002     0.0000000000000000     
  -4.8499999999999988E-002     0.0000000000000000     
  -4.7399999999999998E-002     0.0000000000000000     
  -4.6299999999999994E-002     0.0000000000000000     
  -4.5199999999999990E-002     0.0000000000000000     
  -4.4099999999999986E-002     0.0000000000000000     
  -4.2999999999999997E-002     0.0000000000000000     
  -4.1899999999999993E-002     0.0000000000000000     
  -4.0799999999999989E-002     0.0000000000000000     
  -3.9699999999999985E-002     0.0000000000000000     
  -3.8599999999999995E-002     0.0000000000000000     
  -3.7499999999999992E-002     0.0000000000000000     
  -3.6399999999999988E-002     0.0000000000000000     
  -3.5299999999999984E-002     0.0000000000000000     
  -3.4199999999999994E-002     0.0000000000000000     
  -3.3099999999999991E-002     0.0000000000000000     
  -3.1999999999999987E-002     0.0000000000000000     
  -3.0899999999999997E-002     0.0000000000000000     
  -2.9799999999999993E-002     0.0000000000000000     
  -2.8699999999999989E-002     0.0000000000000000     
  -2.7599999999999986E-002     0.0000000000000000     
  -2.6499999999999996E-002     0.0000000000000000     
  -2.5399999999999992E-002     0.0000000000000000     
  -2.4299999999999988E-002     0.0000000000000000     
  -2.3199999999999985E-002     0.0000000000000000     
  -2.2099999999999995E-002     0.0000000000000000     
  -2.0999999999999991E-002     0.0000000000000000     
  -1.9899999999999987E-002     0.0000000000000000     
  -1.8799999999999983E-002     0.0000000000000000     
  -1.7699999999999994E-002     0.0000000000000000     
  -1.6599999999999990E-002     0.0000000000000000     
  -1.5499999999999986E-002     0.0000000000000000     
  -1.4399999999999996E-002     0.0000000000000000     
  -1.3299999999999992E-002     0.0000000000000000     
  -1.2199999999999989E-002     0.0000000000000000     
  -1.1099999999999985E-002     0.0000000000000000     
  -9.9999999999999950E-003     0.0000000000000000     
  -8.8999999999999913E-003     0.0000000000000000     
  -7.7999999999999875E-003     0.0000000000000000     
  -6.6999999999999837E-003     0.0000000000000000     
  -5.5999999999999939E-003     0.0000000000000000     
  -4.4999999999999901E-003     0.0000000000000000     
  -3.3999999999999864E-003     0.0000000000000000     
  -2.2999999999999826E-003     0.0000000000000000     
  -1.1999999999999927E-003     0.0000000000000000     
  -9.9999999999988987E-005     0.0000000000000000     
   1.0000000000000148E-003     0.0000000000000000     
   2.1000000000000185E-003     0.0000000000000000     
   3.2000000000000084E-003     0.0000000000000000     
   4.3000000000000121E-003     0.0000000000000000     
   5.4000000000000159E-003     0.0000000000000000     
   6.5000000000000058E-003     0.0000000000000000     
   7.6000000000000234E-003     0.0000000000000000     
   8.7000000000000133E-003     0.0000000000000000     
   9.8000000000000032E-003     0.0000000000000000     
   1.0900000000000021E-002     0.0000000000000000     
   1.2000000000000011E-002     0.0000000000000000     
   1.3100000000000001E-002     0.0000000000000000     
   1.4200000000000018E-002     0.0000000000000000     
   1.5300000000000008E-002     0.0000000000000000     
   1.6400000000000026E-002     0.0000000000000000     
   1.7500000000000016E-002     0.0000000000000000     
   1.8600000000000005E-002     0.0000000000000000     
   1.9700000000000023E-002     0.0000000000000000     
   2.0800000000000013E-002     0.0000000000000000     
   2.1900000000000003E-002     0.0000000000000000     
   2.3000000000000020E-002     0.0000000000000000     
   2.4100000000000010E-002     0.0000000000000000     
   2.5200000000000000E-002     0.0000000000000000     
   2.6300000000000018E-002     0.0000000000000000     
   2.7400000000000008E-002     0.0000000000000000     
   2.8500000000000025E-002     0.0000000000000000     
   2.9600000000000015E-002     3.9145000474500575E-044
   3.0700000000000005E-002     1.0523967683413688E-039
   3.1800000000000023E-002     4.4472671959199665E-039
   3.2900000000000013E-002     9.4216602958722003E-039
   3.4000000000000002E-002     1.0240870581667176E-038
   3.5100000000000020E-002    -7.7664136558853156E-039
   3.6200000000000010E-002    -4.4576823768127733E-038
   3.7300000000000028E-002    -7.6707727748030547E-038
   3.8400000000000017E-002    -5.7817722938282226E-038
   3.9500000000000007E-002     3.8500172273192924E-038
   4.0600000000000025E-002     1.7239949504884524E-037
   4.1700000000000015E-002     2.8387359712329559E-037
   4.2800000000000005E-002     3.0017119150284151E-037
   4.3900000000000022E-002     1.6597686582699621E-037
   4.5000000000000012E-002    -1.5211863933546061E-037
   4.6100000000000002E-002    -6.4855212553639472E-037
   4.7200000000000020E-002    -1.2075338091861852E-036
   4.8300000000000010E-002    -1.4811150692675898E-036
   4.9400000000000027E-002    -9.2816703439199939E-037
   5.0500000000000017E-002     9.1261833417276975E-037
   5.1600000000000007E-002     3.9150497611911092E-036
   5.2700000000000025E-002     6.9545460115132417E-036
   5.3800000000000014E-002     7.7835972878336575E-036
   5.4900000000000004E-002     3.6988266297807362E-036
   5.6000000000000022E-002    -6.8471296965881895E-036
   5.7100000000000012E-002    -2.2102612994460086E-035
   5.8200000000000002E-002    -3.5353296812667908E-035
   5.9300000000000019E-002    -3.5425698228102411E-035
   6.0400000000000009E-002    -1.0784185890267453E-035
   6.1500000000000027E-002     4.2656079534849255E-035
   6.2600000000000017E-002     1.1242769094634206E-034
   6.3700000000000007E-002     1.6435828154417660E-034
   6.4800000000000024E-002     1.4822935957051158E-034
   6.5900000000000014E-002     1.9026437657751514E-035
   6.7000000000000004E-002    -2.2832739175584408E-034
   6.8100000000000022E-002    -5.2376071343628381E-034
   6.9200000000000012E-002    -7.0981307257564495E-034
   7.0300000000000029E-002    -5.7831617385643697E-034
   7.1400000000000019E-002     3.1166625822323915E-035
   7.2500000000000009E-002     1.0898409328151748E-033
   7.3600000000000027E-002     2.2562150246800879E-033
   7.4700000000000016E-002     2.8647340312099036E-033
   7.5800000000000006E-002     2.1155572671715402E-033
   7.6900000000000024E-002    -5.1222580467809355E-034
   7.8000000000000014E-002    -4.7299637262904066E-033
   7.9100000000000004E-002    -9.0470107965723871E-033
   8.0200000000000021E-002    -1.0861207236320247E-032
   8.1300000000000011E-002    -7.3074951047373288E-033
   8.2400000000000029E-002     3.1505811746829699E-033
   8.3500000000000019E-002     1.8876450289051038E-032
   8.4600000000000009E-002     3.3934710142466021E-032
   8.5700000000000026E-002     3.8847647297253112E-032
   8.6800000000000016E-002     2.3995274978231276E-032
   8.7900000000000006E-002    -1.4706699401043946E-032
   8.9000000000000024E-002    -6.9830288986521920E-032
   9.0100000000000013E-002    -1.1955790386471808E-031
   9.1200000000000003E-002    -1.3154497181158554E-031
   9.2300000000000021E-002    -7.5368321474959910E-032
   9.3400000000000011E-002     5.8571998156773833E-032
   9.4500000000000028E-002     2.4091238956934324E-031
   9.5600000000000018E-002     3.9698253291133786E-031
   9.6700000000000008E-002     4.2285967300973031E-031
   9.7800000000000026E-002     2.2754603649483227E-031
   9.8900000000000016E-002    -2.0796922167817583E-031
  0.10000000000000001         -7.7892666928492817E-031
  0.10110000000000002         -1.2458069700060373E-030
  0.10220000000000001         -1.2929682012611059E-030
  0.10330000000000003         -6.6209213014446533E-031
  0.10440000000000002          6.7373037894275774E-031
  0.10550000000000001          2.3705196279377947E-030
  0.10660000000000003          3.7042587101795012E-030
  0.10770000000000002          3.7655048456699698E-030
  0.10880000000000001          1.8564675265915542E-030
  0.10990000000000003         -2.0228957392005555E-030
  0.11100000000000002         -6.8195139261153493E-030
  0.11210000000000001         -1.0461064575329394E-029
  0.11320000000000002         -1.0454126049949749E-029
  0.11430000000000001         -5.0019449825315812E-030
  0.11540000000000003          5.7048648879606430E-030
  0.11650000000000002          1.8630870292115968E-029
  0.11760000000000001          2.8134220436409252E-029
  0.11870000000000003          2.7690947115688675E-029
  0.11980000000000002          1.2887201591801141E-029
  0.12090000000000001         -1.5310530288516645E-029
  0.12200000000000003         -4.8596331342745133E-029
  0.12310000000000001         -7.2294912465128070E-029
  0.12420000000000003         -7.0068054660765994E-029
  0.12530000000000002         -3.1569202922208786E-029
  0.12640000000000001          3.9624398079852133E-029
  0.12750000000000003          1.2178053129271476E-028
  0.12860000000000002          1.7825936892724702E-028
  0.12970000000000001          1.6976883075112382E-028
  0.13080000000000003          7.3163920349410717E-029
  0.13190000000000002         -1.0007177170828996E-028
  0.13300000000000001         -2.9522050587654229E-028
  0.13410000000000000         -4.2405832887354013E-028
  0.13520000000000004         -3.9548872912612185E-028
  0.13630000000000003         -1.6006453377658461E-028
  0.13740000000000002          2.4849735167514798E-028
  0.13850000000000001          6.9693763670299341E-028
  0.13960000000000000          9.7942705520045220E-028
  0.14070000000000005          8.9142473964945848E-028
  0.14180000000000004          3.3176976774686824E-028
  0.14290000000000003         -6.0705414378518110E-028
  0.14400000000000002         -1.6100381162644980E-027
  0.14510000000000001         -2.2100048301380114E-027
  0.14620000000000000         -1.9599609290393636E-027
  0.14730000000000004         -6.6054866739651960E-028
  0.14840000000000003          1.4491835676901856E-027
  0.14950000000000002          3.6453932257331874E-027
  0.15060000000000001          4.8935729379586533E-027
  0.15170000000000000          4.2385877333306341E-027
  0.15280000000000005          1.2982416591245257E-027
  0.15390000000000004         -3.3432983513658522E-027
  0.15500000000000003         -8.0698756677969233E-027
  0.15610000000000002         -1.0644207336228139E-026
  0.15720000000000001         -9.0645160791681465E-027
  0.15830000000000000         -2.6090645441172749E-027
  0.15940000000000004          7.3699377612515614E-027
  0.16050000000000003          1.7371764081276181E-026
  0.16160000000000002          2.2674476388865713E-026
  0.16270000000000001          1.9161011480298852E-026
  0.16380000000000000          5.4751847946421273E-027
  0.16490000000000005         -1.5409138210948382E-026
  0.16600000000000004         -3.6146497977669316E-026
  0.16710000000000003         -4.7028740474611442E-026
  0.16820000000000002         -3.9763814815298360E-026
  0.16930000000000001         -1.1814179773531080E-026
  0.17040000000000000          3.0568359951631385E-026
  0.17150000000000004          7.2452792808045282E-026
  0.17260000000000003          9.4425738584701222E-026
  0.17370000000000002          8.0190944699647720E-026
  0.17480000000000001          2.5078693991264882E-026
  0.17590000000000000         -5.8222351646231427E-026
  0.17700000000000005         -1.4022796493696790E-025
  0.17810000000000004         -1.8316394744051316E-025
  0.17920000000000003         -1.5585952299775145E-025
  0.18030000000000002         -5.0036537033132398E-026
  0.18140000000000001          1.0912823821713410E-025
  0.18250000000000000          2.6473756289561321E-025
  0.18360000000000004          3.4500585628589348E-025
  0.18470000000000003          2.9182451311239851E-025
  0.18580000000000002          9.1302422445729857E-026
  0.18690000000000001         -2.0719605553342673E-025
  0.18800000000000000         -4.9555596126535254E-025
  0.18910000000000005         -6.3959802140994380E-025
  0.19020000000000004         -5.3295735723852958E-025
  0.19130000000000003         -1.5347506417999478E-025
  0.19240000000000002          4.0296784925326114E-025
  0.19350000000000001          9.3292452222015502E-025
  0.19460000000000005          1.1877369082098214E-024
  0.19570000000000004          9.7379746335819536E-025
  0.19680000000000003          2.5566615712308341E-025
  0.19790000000000002         -7.8389700155874254E-025
  0.19900000000000001         -1.7659115254310420E-024
  0.20010000000000000         -2.2315769339635255E-024
  0.20120000000000005         -1.8262764198094475E-024
  0.20230000000000004         -4.8679385576993156E-025
  0.20340000000000003          1.4511872849764923E-024
  0.20450000000000002          3.2944591059488071E-024
  0.20560000000000000          4.2033700647552056E-024
  0.20670000000000005          3.5233271506110311E-024
  0.20780000000000004          1.1212976094567354E-024
  0.20890000000000003         -2.4198315795930519E-024
  0.21000000000000002         -5.8707093933111528E-024
  0.21110000000000001         -7.7248040835023282E-024
  0.21220000000000000         -6.7807911925550958E-024
  0.21330000000000005         -2.7365855893851066E-024
  0.21440000000000003          3.4606007919956617E-024
  0.21550000000000002          9.7189751692478753E-024
  0.21660000000000001          1.3424674746933103E-023
  0.21770000000000000          1.2434841812756118E-023
  0.21880000000000005          6.0987048216050671E-024
  0.21990000000000004         -4.1273017496627759E-024
  0.22100000000000003         -1.4827930517754374E-023
  0.22210000000000002         -2.1649243508681843E-023
  0.22320000000000001         -2.0945761655626987E-023
  0.22430000000000000         -1.1483983197547493E-023
  0.22540000000000004          4.5194327999169622E-024
  0.22650000000000003          2.1617776053430558E-023
  0.22760000000000002          3.2791090713339019E-023
  0.22870000000000001          3.2134804379220593E-023
  0.22980000000000000          1.7639835667052006E-023
  0.23090000000000005         -7.1206505109637714E-024
  0.23200000000000004         -3.3366166852445788E-023
  0.23310000000000003         -4.9830056235810558E-023
  0.23420000000000002         -4.7155090308961169E-023
  0.23530000000000001         -2.2418371973127902E-023
  0.23640000000000000          1.8153659351827091E-023
  0.23750000000000004          5.9860529878592038E-023
  0.23860000000000003          8.4053684277076130E-023
  0.23970000000000002          7.5411510653430861E-023
  0.24080000000000001          2.9434740681692965E-023
  0.24190000000000000         -4.3017554213076818E-023
  0.24300000000000005         -1.1676230748504645E-022
  0.24410000000000004         -1.5970350085202812E-022
  0.24520000000000003         -1.4489392060558951E-022
  0.24630000000000002         -6.3182431013530889E-023
  0.24740000000000001          6.8735705558129442E-023
  0.24850000000000005          2.0922294734032960E-022
  0.24960000000000004          3.0310025230668525E-022
  0.25070000000000003          3.0105977039103737E-022
  0.25180000000000002          1.8080459671527060E-022
  0.25290000000000001         -3.8323483170638488E-023
  0.25400000000000000         -2.9441191517948707E-022
  0.25510000000000005         -4.9873186596160263E-022
  0.25620000000000004         -5.6498485652265663E-022
  0.25730000000000003         -4.4284670170641425E-022
  0.25840000000000002         -1.4329088235065024E-022
  0.25950000000000001          2.5565321776154049E-022
  0.26060000000000005          6.2808840921943958E-022
  0.26170000000000004          8.4065765711615821E-022
  0.26280000000000003          8.0139483947945719E-022
  0.26390000000000002          4.9896661928425054E-022
  0.26500000000000001          1.5516448570365006E-023
  0.26610000000000000         -4.9538036119941342E-022
  0.26720000000000005         -8.6113361390803694E-022
  0.26830000000000004         -9.5536707562573960E-022
  0.26940000000000003         -7.5073635985580750E-022
  0.27050000000000002         -3.3587601956551730E-022
  0.27160000000000001          1.1507679288563709E-022
  0.27270000000000005          4.1330063669587334E-022
  0.27380000000000004          4.4085640032166599E-022
  0.27490000000000003          2.1492609887552509E-022
  0.27600000000000002         -1.0194802745268105E-022
  0.27710000000000001         -2.6006430217357446E-022
  0.27820000000000000         -3.5772660493677363E-023
  0.27930000000000005          6.4102377592478427E-022
  0.28040000000000004          1.6006982540713559E-021
  0.28150000000000003          2.4384696167514772E-021
  0.28260000000000002          2.6303539423200675E-021
  0.28370000000000001          1.7375639749095462E-021
  0.28480000000000005         -3.6661347735598908E-022
  0.28590000000000004         -3.3379658864198080E-021
  0.28700000000000003         -6.3533900226548022E-021
  0.28810000000000002         -8.2938064843654257E-021
  0.28920000000000001         -8.0904739462374855E-021
  0.29030000000000000         -5.1374804478586385E-021
  0.29140000000000005          3.7176162525737535E-022
  0.29250000000000004          7.3245658262515980E-021
  0.29360000000000003          1.3870763151673586E-020
  0.29470000000000002          1.7895016377250605E-020
  0.29580000000000001          1.7661234220943188E-020
  0.29690000000000005          1.2431476993666541E-020
  0.29800000000000004          2.8440422726122121E-021
  0.29910000000000003         -9.1064125474358011E-021
  0.30020000000000002         -2.0522181255706287E-020
  0.30130000000000001         -2.8377568345088426E-020
  0.30240000000000000         -3.0383161536962410E-020
  0.30350000000000005         -2.5659586238003108E-020
  0.30460000000000004         -1.4991881001667127E-020
  0.30570000000000003         -5.7367311593843076E-022
  0.30680000000000002          1.4669209687737478E-020
  0.30790000000000001          2.7929324600214023E-020
  0.30900000000000005          3.7225221119813244E-020
  0.31010000000000004          4.1699815260034418E-020
  0.31120000000000003          4.1405982602708041E-020
  0.31230000000000002          3.6696438969481487E-020
  0.31340000000000001          2.7529278843899155E-020
  0.31450000000000006          1.3085875712485878E-020
  0.31560000000000005         -7.9767895362903512E-021
  0.31670000000000004         -3.6547211702972712E-020
  0.31780000000000003         -7.1580958228772636E-020
  0.31890000000000002         -1.0865111403311778E-019
  0.32000000000000001         -1.3922142461025507E-019
  0.32110000000000005         -1.5128049988601321E-019
  0.32220000000000004         -1.3167632069690874E-019
  0.32330000000000003         -6.9999271568362137E-020
  0.32440000000000002          3.6702550361748878E-020
  0.32550000000000001          1.7958007440836537E-019
  0.32660000000000006          3.3547868263657263E-019
  0.32770000000000005          4.6767058041751613E-019
  0.32880000000000004          5.3077195049064180E-019
  0.32990000000000003          4.7998309367546947E-019
  0.33100000000000002          2.8370853071621311E-019
  0.33210000000000001         -6.2585031067010171E-020
  0.33320000000000005         -5.2451434132208764E-019
  0.33430000000000004         -1.0228826305458258E-018
  0.33540000000000003         -1.4376857833419423E-018
  0.33650000000000002         -1.6249201173726564E-018
  0.33760000000000001         -1.4467868476778167E-018
  0.33870000000000006         -8.1238479330616311E-019
  0.33980000000000005          2.7827688450040482E-019
  0.34090000000000004          1.6981874135373347E-018
  0.34200000000000003          3.1789466085193073E-018
  0.34310000000000002          4.3313240715292061E-018
  0.34420000000000001          4.7091677034210749E-018
  0.34530000000000005          3.9155061586669140E-018
  0.34640000000000004          1.7364081617493676E-018
  0.34750000000000003         -1.7261975376498964E-018
  0.34860000000000002         -5.9628746380122548E-018
  0.34970000000000001         -1.0049804898524911E-017
  0.35080000000000006         -1.2761656296342371E-017
  0.35190000000000005         -1.2816392612544555E-017
  0.35300000000000004         -9.2289778480505499E-018
  0.35410000000000003         -1.7094040393289446E-018
  0.35520000000000002          8.9968920334975450E-018
  0.35630000000000001          2.0948424406091224E-017
  0.35740000000000005          3.1139906235768238E-017
  0.35850000000000004          3.5994157362113829E-017
  0.35960000000000003          3.2197946638784746E-017
  0.36070000000000002          1.7759168779826042E-017
  0.36180000000000001         -6.9452079505387492E-018
  0.36290000000000006         -3.8438602707016707E-017
  0.36400000000000005         -7.0054391275082545E-017
  0.36510000000000004         -9.2733988548616311E-017
  0.36620000000000003         -9.6790812296649364E-017
  0.36730000000000002         -7.4466569894223731E-017
  0.36840000000000006         -2.2820961484587234E-017
  0.36950000000000005          5.3754012747783149E-017
  0.37060000000000004          1.4223612903378583E-016
  0.37170000000000003          2.2167076264243275E-016
  0.37280000000000002          2.6634310403173333E-016
  0.37390000000000001          2.5136989351025393E-016
  0.37500000000000006          1.5996183513273497E-016
  0.37610000000000005         -9.1039438450478979E-018
  0.37720000000000004         -2.3580312063279541E-016
  0.37830000000000003         -4.7714241723730859E-016
  0.37940000000000002         -6.7118860805557484E-016
  0.38050000000000006         -7.4765337935636465E-016
  0.38160000000000005         -6.4431654811928521E-016
  0.38270000000000004         -3.2675061358409557E-016
  0.38380000000000003          1.9290555998774231E-016
  0.38490000000000002          8.4349709999490428E-016
  0.38600000000000001          1.4941402076330868E-015
  0.38710000000000000          1.9692667901170815E-015
  0.38819999999999999          2.0805474504219608E-015
  0.38930000000000009          1.6727088473594511E-015
  0.39040000000000008          6.7565107236912487E-016
  0.39150000000000007         -8.4878697782107219E-016
  0.39260000000000006         -2.6793489375684181E-015
  0.39370000000000005         -4.4404745621051867E-015
  0.39480000000000004         -5.6490528463801548E-015
  0.39590000000000003         -5.8039782708361630E-015
  0.39700000000000002         -4.5090738309966498E-015
  0.39810000000000001         -1.6085431160105956E-015
  0.39920000000000000          2.6954775649814419E-015
  0.40029999999999999          7.7784958109888991E-015
  0.40140000000000009          1.2615016497600823E-014
  0.40250000000000008          1.5906837721111117E-014
  0.40360000000000007          1.6319317025136191E-014
  0.40470000000000006          1.2800329308027364E-014
  0.40580000000000005          4.9287830343277815E-015
  0.40690000000000004         -6.7834219518452779E-015
  0.40800000000000003         -2.0723358650786247E-014
  0.40910000000000002         -3.4223735139887961E-014
  0.41020000000000001         -4.3877206250338795E-014
  0.41130000000000000         -4.6122920743292476E-014
  0.41239999999999999         -3.8046707324344458E-014
  0.41350000000000009         -1.8269078861506862E-014
  0.41460000000000008          1.2261373230424688E-014
  0.41570000000000007          4.9781685009304232E-014
  0.41680000000000006          8.7736930095445831E-014
  0.41790000000000005          1.1745299208306979E-013
  0.41900000000000004          1.2949235537459571E-013
  0.42010000000000003          1.1557971710238793E-013
  0.42120000000000002          7.0824186292485275E-014
  0.42230000000000001         -4.1770177902435716E-015
  0.42340000000000000         -1.0185589437216602E-013
  0.42449999999999999         -2.0731417976711105E-013
  0.42560000000000009         -2.9947856204332464E-013
  0.42670000000000008         -3.5393665645415321E-013
  0.42780000000000007         -3.4730007950612974E-013
  0.42890000000000006         -2.6257039769961379E-013
  0.43000000000000005         -9.4631030715670719E-014
  0.43110000000000004          1.4527045809129176E-013
  0.43220000000000003          4.2726924705297512E-013
  0.43330000000000002          7.0392899035465192E-013
  0.43440000000000001          9.1524723321030837E-013
  0.43550000000000000          9.9763287261341804E-013
  0.43659999999999999          8.9605685860139773E-013
  0.43770000000000009          5.7772744436032817E-013
  0.43880000000000008          4.4917523549094872E-014
  0.43990000000000007         -6.5585725548817375E-013
  0.44100000000000006         -1.4310816537352402E-012
  0.44210000000000005         -2.1461010474725574E-012
  0.44320000000000004         -2.6406444495928144E-012
  0.44430000000000003         -2.7534345425543103E-012
  0.44540000000000002         -2.3534122336832023E-012
  0.44650000000000001         -1.3732372431146834E-012
  0.44760000000000000          1.6075903225755350E-013
  0.44869999999999999          2.1087197717091562E-012
  0.44980000000000009          4.2137400529216243E-012
  0.45090000000000008          6.1193572175879345E-012
  0.45200000000000007          7.4099740636100579E-012
  0.45310000000000006          7.6724015708877059E-012
  0.45420000000000005          6.5724573219824141E-012
  0.45530000000000004          3.9364319479036318E-012
  0.45640000000000003         -1.7598322160015043E-013
  0.45750000000000002         -5.4223135906370136E-012
  0.45860000000000001         -1.1165781159374046E-011
  0.45970000000000000         -1.6512652661587735E-011
  0.46079999999999999         -2.0403557021733059E-011
  0.46190000000000009         -2.1755786990925100E-011
  0.46300000000000008         -1.9644300194330908E-011
  0.46410000000000007         -1.3499870310139174E-011
  0.46520000000000006         -3.2951504900457324E-012
  0.46630000000000005          1.0315044842057835E-011
  0.46740000000000004          2.5932948719872110E-011
  0.46850000000000003          4.1464698932215441E-011
  0.46960000000000002          5.4291913326285651E-011
  0.47070000000000001          6.1568799690451443E-011
  0.47180000000000000          6.0625968019035145E-011
  0.47289999999999999          4.9441286696467334E-011
  0.47400000000000009          2.7119231313838788E-011
  0.47510000000000008         -5.6937508354004921E-012
  0.47620000000000007         -4.6535881485800843E-011
  0.47730000000000006         -9.1071772681703884E-011
  0.47840000000000005         -1.3330540912212622E-010