 -0.119999997         0.00000000    
 -0.119000003         0.00000000    
 -0.118000001         0.00000000    
 -0.116999999         0.00000000    
 -0.115999997         0.00000000    
 -0.115000002         0.00000000    
 -0.114000000         0.00000000    
 -0.112999998         0.00000000    
 -0.112000003         0.00000000    
 -0.111000001         0.00000000    
 -0.109999999         0.00000000    
 -0.108999997        -7.82013722E-38
 -0.108000003        -4.76808777E-35
 -0.107000001        -1.13142764E-33
 -0.105999999        -1.32551873E-32
 -0.104999997        -1.01191420E-31
 -0.104000002        -5.62000746E-31
 -0.103000000        -2.39019736E-30
 -0.101999998        -7.90520666E-30
 -0.101000004        -1.97646620E-29
 -0.100000001        -3.19594232E-29
  -9.89999995E-02     1.00547113E-30
  -9.79999974E-02     2.31725724E-28
  -9.70000029E-02     1.00658680E-27
  -9.60000008E-02     2.84126609E-27
  -9.49999988E-02     5.93958413E-27
  -9.39999968E-02     8.70657846E-27
  -9.30000022E-02     4.92697638E-27
  -9.20000002E-02    -1.93285605E-26
  -9.09999982E-02    -8.48062759E-26
  -9.00000036E-02    -2.05646214E-25
  -8.90000015E-02    -3.53540489E-25
  -8.79999995E-02    -3.99278668E-25
  -8.69999975E-02    -6.13412632E-26
  -8.60000029E-02     1.05916794E-24
  -8.50000009E-02     3.23506020E-24
  -8.39999989E-02     6.06733275E-24
  -8.29999968E-02     7.73100017E-24
  -8.20000023E-02     4.49762813E-24
  -8.10000002E-02    -8.50127945E-24
  -7.99999982E-02    -3.41266245E-23
  -7.90000036E-02    -6.73076509E-23
  -7.80000016E-02    -8.81806832E-23
  -7.69999996E-02    -5.96356251E-23
  -7.59999976E-02     6.23438540E-23
  -7.50000030E-02     2.98098268E-22
  -7.40000010E-02     5.95046237E-22
  -7.29999989E-02     7.80047574E-22
  -7.19999969E-02     5.56697298E-22
  -7.10000023E-02    -3.96916412E-22
  -7.00000003E-02    -2.19562957E-21
  -6.89999983E-02    -4.41834970E-21
  -6.80000037E-02    -5.84059508E-21
  -6.70000017E-02    -4.50253875E-21
  -6.59999996E-02     1.59428895E-21
  -6.49999976E-02     1.30558496E-20
  -6.40000030E-02     2.72694435E-20
  -6.30000010E-02     3.71281407E-20
  -6.19999990E-02     3.17166185E-20
  -6.10000007E-02     2.36330484E-22
  -5.99999987E-02    -6.06916891E-20
  -5.90000004E-02    -1.38383659E-19
  -5.79999983E-02    -1.98692686E-19
  -5.70000000E-02    -1.89922840E-19
  -5.60000017E-02    -6.07847599E-20
  -5.49999997E-02     2.08240406E-19
  -5.40000014E-02     5.69536496E-19
  -5.29999994E-02     8.87386540E-19
  -5.20000011E-02     9.53582392E-19
  -5.09999990E-02     5.54705406E-19
  -5.00000007E-02    -4.14208391E-19
  -4.89999987E-02    -1.82447505E-18
  -4.80000004E-02    -3.23865343E-18
  -4.69999984E-02    -3.95417314E-18
  -4.60000001E-02    -3.20721023E-18
  -4.50000018E-02    -5.14842745E-19
  -4.39999998E-02     3.94889117E-18
  -4.30000015E-02     9.11251776E-18
  -4.19999994E-02     1.30770191E-17
  -4.10000011E-02     1.35889686E-17
  -3.99999991E-02     8.85070848E-18
  -3.90000008E-02    -1.57867492E-18
  -3.79999988E-02    -1.61510919E-17
  -3.70000005E-02    -3.12926661E-17
  -3.59999985E-02    -4.20892888E-17
  -3.50000001E-02    -4.35243711E-17
  -3.40000018E-02    -3.18537228E-17
  -3.29999998E-02    -5.66812569E-18
  -3.20000015E-02     3.35636111E-17
  -3.09999995E-02     8.12721760E-17
  -2.99999993E-02     1.29405181E-16
  -2.89999992E-02     1.65581468E-16
  -2.80000009E-02     1.72269031E-16
  -2.70000007E-02     1.27615744E-16
  -2.60000005E-02     1.03279157E-17
  -2.50000004E-02    -1.89592258E-16
  -2.40000002E-02    -4.55047275E-16
  -2.30000000E-02    -7.26139799E-16
  -2.19999999E-02    -8.94188754E-16
  -2.09999997E-02    -8.16875080E-16
  -1.99999996E-02    -3.62120111E-16
  -1.89999994E-02     5.22431181E-16
  -1.79999992E-02     1.73320655E-15
  -1.70000009E-02     2.96169432E-15
  -1.60000008E-02     3.71239760E-15
  -1.49999997E-02     3.41637356E-15
  -1.40000004E-02     1.63796701E-15
  -1.30000003E-02    -1.67260769E-15
  -1.20000001E-02    -5.97152722E-15
  -1.09999999E-02    -1.00695573E-14
  -9.99999978E-03    -1.23256304E-14
  -8.99999961E-03    -1.11049662E-14
  -8.00000038E-03    -5.41553310E-15
  -7.00000022E-03     4.46935452E-15
  -6.00000005E-03     1.66548243E-14
  -4.99999989E-03     2.77612067E-14
  -4.00000019E-03     3.36533373E-14
  -3.00000003E-03     3.06590724E-14
  -2.00000009E-03     1.69592615E-14
  -1.00000005E-03    -6.30922443E-15
   0.00000000        -3.46895195E-14
   1.00000005E-03    -6.10521697E-14
   2.00000009E-03    -7.72139920E-14
   3.00000003E-03    -7.61472116E-14
   4.00000019E-03    -5.41575248E-14
   4.99999989E-03    -1.23750167E-14
   6.00000005E-03     4.29005281E-14
   7.00000022E-03     1.01099867E-13
   8.00000038E-03     1.49257654E-13
   8.99999961E-03     1.74360580E-13
   9.99999978E-03     1.65684672E-13
   1.09999999E-02     1.16855120E-13
   1.20000001E-02     2.76288900E-14
   1.30000003E-02    -9.44961205E-14
   1.40000004E-02    -2.32952085E-13
   1.49999997E-02    -3.61652087E-13
   1.60000008E-02    -4.46545660E-13
   1.70000009E-02    -4.50455428E-13
   1.79999992E-02    -3.41876050E-13
   1.89999994E-02    -1.06959153E-13
   1.99999996E-02     2.38093155E-13
   2.09999997E-02     6.38792784E-13
   2.19999999E-02     1.00345340E-12
   2.30000000E-02     1.21737679E-12
   2.40000002E-02     1.17034540E-12
   2.50000004E-02     7.92618792E-13
   2.60000005E-02     8.97647570E-14
   2.70000007E-02    -8.36050901E-13
   2.80000009E-02    -1.78952925E-12
   2.89999992E-02    -2.51605572E-12
   2.99999993E-02    -2.76242289E-12
   3.09999995E-02    -2.35111279E-12
   3.20000015E-02    -1.24749354E-12
   3.29999998E-02     4.02305955E-13
   3.40000018E-02     2.27944118E-12
   3.50000001E-02     3.95091989E-12
   3.59999985E-02     4.96825844E-12
   3.70000005E-02     4.98247233E-12
   3.79999988E-02     3.84467415E-12
   3.90000008E-02     1.66367744E-12
   3.99999991E-02    -1.19708009E-12
   4.10000011E-02    -4.18455852E-12
   4.19999994E-02    -6.66779219E-12
   4.30000015E-02    -8.06945136E-12
   4.39999998E-02    -7.98743276E-12
   4.50000018E-02    -6.28195759E-12
   4.60000001E-02    -3.11438852E-12
   4.69999984E-02     1.06462690E-12
   4.80000004E-02     5.57207318E-12
   4.89999987E-02     9.58608887E-12
   5.00000007E-02     1.22682437E-11
   5.09999990E-02     1.29069481E-11
   5.20000011E-02     1.10702697E-11
   5.29999994E-02     6.74668871E-12
   5.40000014E-02     4.40038305E-13
   5.49999997E-02    -6.82294108E-12
   5.60000017E-02    -1.36090089E-11
   5.70000000E-02    -1.83320737E-11
   5.79999983E-02    -1.96171326E-11
   5.90000004E-02    -1.67004396E-11
   5.99999987E-02    -9.75453746E-12
   6.10000007E-02    -1.77981544E-14
   6.19999990E-02     1.03604287E-11
   6.30000010E-02     1.87762080E-11
   6.40000030E-02     2.28502200E-11
   6.49999976E-02     2.11600598E-11
   6.59999996E-02     1.38034540E-11
   6.70000017E-02     2.58276170E-12
   6.80000037E-02    -9.31321253E-12
   6.89999983E-02    -1.81119252E-11
   7.00000003E-02    -2.05663975E-11
   7.10000023E-02    -1.50670153E-11
   7.19999969E-02    -2.40590946E-12
   7.29999989E-02     1.40957792E-11
   7.40000010E-02     2.92275405E-11
   7.50000030E-02     3.72064081E-11
   7.59999976E-02     3.33652932E-11
   7.69999996E-02     1.57618658E-11
   7.80000016E-02    -1.37677968E-11
   7.90000036E-02    -4.94743690E-11
   7.99999982E-02    -8.26199456E-11
   8.10000002E-02    -1.03327236E-10
   8.20000023E-02    -1.02965740E-10
   8.29999968E-02    -7.65259939E-11
   8.39999989E-02    -2.44055921E-11
   8.50000009E-02     4.68593740E-11
   8.60000029E-02     1.25166086E-10
   8.69999975E-02     1.94699118E-10
   8.79999995E-02     2.38784242E-10
   8.90000015E-02     2.43254139E-10
   9.00000036E-02     1.99720254E-10
   9.09999982E-02     1.08121880E-10
   9.20000002E-02    -2.20051633E-11
   9.30000022E-02    -1.71943501E-10
   9.39999968E-02    -3.16060317E-10
   9.49999988E-02    -4.25790014E-10
   9.60000008E-02    -4.74851214E-10
   9.70000029E-02    -4.44871084E-10
   9.79999974E-02    -3.30324768E-10
   9.89999995E-02    -1.41602341E-10
  0.100000001         9.48244955E-11
  0.101000004         3.39708539E-10
  0.101999998         5.47667134E-10
  0.103000000         6.76172673E-10
  0.104000002         6.95139224E-10
  0.104999997         5.94886584E-10
  0.105999999         3.90301097E-10
  0.107000001         1.19640908E-10
  0.108000003        -1.62416872E-10
  0.108999997        -3.96460004E-10
  0.109999999        -5.32369482E-10
  0.111000001        -5.42409395E-10
  0.112000003        -4.29964869E-10
  0.112999998        -2.31270419E-10
  0.114000000        -9.00654117E-12
  0.115000002         1.61394953E-10
  0.115999997         2.09985113E-10
  0.116999999         9.09751094E-11
  0.118000001        -2.02638753E-10
  0.119000003        -6.32298491E-10
  0.119999997        -1.11709031E-09
  0.120999999        -1.54683333E-09
  0.122000001        -1.80268522E-09
  0.123000003        -1.78114867E-09
  0.123999998        -1.41654932E-09
  0.125000000        -6.97353564E-10
  0.126000002         3.26984662E-10
  0.127000004         1.54994395E-09
  0.128000006         2.82168733E-09
  0.128999993         3.96975430E-09
  0.129999995         4.82253393E-09
  0.130999997         5.23101207E-09
  0.131999999         5.08494402E-09
  0.133000001         4.32103375E-09
  0.134000003         2.92271585E-09
  0.135000005         9.13229992E-10
  0.136000007        -1.65449443E-09
  0.136999995        -4.70653250E-09
  0.137999997        -8.15051404E-09
  0.138999999        -1.18683836E-08
  0.140000001        -1.56977880E-08
  0.141000003        -1.94033376E-08
  0.142000005        -2.26419132E-08
  0.143000007        -2.49284646E-08
  0.143999994        -2.56096548E-08
  0.144999996        -2.38518574E-08
  0.145999998        -1.86469311E-08
  0.147000000        -8.83464590E-09
  0.148000002         6.86462576E-09
  0.149000004         2.98181995E-08
  0.150000006         6.14645828E-08
  0.150999993         1.03326528E-07
  0.151999995         1.57064889E-07
  0.152999997         2.24578713E-07
  0.153999999         3.08149566E-07
  0.155000001         4.10620942E-07
  0.156000003         5.35598417E-07
  0.157000005         6.87655472E-07
  0.158000007         8.72530165E-07
  0.158999994         1.09730854E-06
  0.159999996         1.37059442E-06
  0.160999998         1.70267924E-06
  0.162000000         2.10572989E-06
  0.163000003         2.59401986E-06
  0.164000005         3.18422508E-06
  0.165000007         3.89580237E-06
  0.165999994         4.75146589E-06
  0.166999996         5.77775199E-06
  0.167999998         7.00568444E-06
  0.169000000         8.47150750E-06
  0.170000002         1.02174881E-05
  0.171000004         1.22927677E-05
  0.172000006         1.47542623E-05
  0.172999993         1.76676022E-05
  0.173999995         2.11081442E-05
  0.174999997         2.51620331E-05
  0.175999999         2.99273797E-05
  0.177000001         3.55155244E-05
  0.178000003         4.20524448E-05
  0.179000005         4.96802786E-05
  0.180000007         5.85590315E-05
  0.180999994         6.88683504E-05
  0.181999996         8.08094046E-05
  0.182999998         9.46068103E-05
  0.184000000         1.10510591E-04
  0.185000002         1.28797983E-04
  0.186000004         1.49775311E-04
  0.187000006         1.73779539E-04
  0.187999994         2.01179864E-04
  0.188999996         2.32378952E-04
  0.189999998         2.67814030E-04
  0.191000000         3.07957933E-04
  0.192000002         3.53319541E-04
  0.193000004         4.04444116E-04
  0.194000006         4.61913296E-04
  0.194999993         5.26344520E-04
  0.195999995         5.98389714E-04
  0.196999997         6.78733399E-04
  0.197999999         7.68090074E-04
  0.199000001         8.67200317E-04
  0.200000003         9.76826530E-04
  0.201000005         1.09774666E-03
  0.202000007         1.23074814E-03
  0.202999994         1.37661968E-03
  0.203999996         1.53614255E-03
  0.204999998         1.71008077E-03
  0.206000000         1.89917011E-03
  0.207000002         2.10410636E-03
  0.208000004         2.32553086E-03
  0.209000006         2.56401766E-03
  0.209999993         2.82005756E-03
  0.210999995         3.09404102E-03
  0.211999997         3.38624255E-03
  0.213000000         3.69680161E-03
  0.214000002         4.02570656E-03
  0.215000004         4.37277462E-03
  0.216000006         4.73763607E-03
  0.216999993         5.11971582E-03
  0.217999995         5.51821804E-03
  0.218999997         5.93211176E-03
  0.219999999         6.36011548E-03
  0.221000001         6.80068694E-03
  0.222000003         7.25201378E-03
  0.223000005         7.71200564E-03
  0.224000007         8.17829091E-03
  0.224999994         8.64821672E-03
  0.225999996         9.11885314E-03
  0.226999998         9.58699547E-03
  0.228000000         1.00491839E-02
  0.229000002         1.05017116E-02
  0.230000004         1.09406514E-02
  0.231000006         1.13618774E-02
  0.231999993         1.17610963E-02
  0.232999995         1.21338824E-02
  0.233999997         1.24757169E-02
  0.234999999         1.27820317E-02
  0.236000001         1.30482530E-02
  0.237000003         1.32698556E-02
  0.238000005         1.34424130E-02
  0.238999993         1.35616539E-02
  0.239999995         1.36235207E-02
  0.240999997         1.36242276E-02
  0.241999999         1.35603184E-02
  0.243000001         1.34287253E-02
  0.244000003         1.32268192E-02
  0.245000005         1.29524665E-02
  0.246000007         1.26040718E-02
  0.246999994         1.21806301E-02
  0.247999996         1.16817597E-02
  0.248999998         1.11077372E-02
  0.250000000         1.04595227E-02
  0.250999987         9.73877776E-03
  0.252000004         8.94787535E-03
  0.252999991         8.08989536E-03
  0.254000008         7.16862036E-03
  0.254999995         6.18851604E-03
  0.256000012         5.15470514E-03
  0.256999999         4.07293066E-03
  0.257999986         2.94951024E-03
  0.259000003         1.79127988E-03
  0.259999990         6.05533249E-04
  0.261000007        -6.00049389E-04
  0.261999995        -1.81747624E-03
  0.263000011        -3.03852488E-03
  0.263999999        -4.25482774E-03
  0.264999986        -5.45795867E-03
  0.266000003        -6.63952576E-03
  0.266999990        -7.79126212E-03
  0.268000007        -8.90511740E-03
  0.268999994        -9.97334719E-03
  0.270000011        -1.09885950E-02
  0.270999998        -1.19439736E-02
  0.272000015        -1.28331399E-02
  0.273000002        -1.36503540E-02
  0.273999989        -1.43905524E-02
  0.275000006        -1.50493821E-02
  0.275999993        -1.56232603E-02
  0.277000010        -1.61093865E-02
  0.277999997        -1.65057834E-02
  0.279000014        -1.68112926E-02
  0.280000001        -1.70255825E-02
  0.280999988        -1.71491280E-02
  0.282000005        -1.71832033E-02
  0.282999992        -1.71298441E-02
  0.284000009        -1.69918127E-02
  0.284999996        -1.67725403E-02
  0.286000013        -1.64760817E-02
  0.287000000        -1.61070470E-02
  0.287999988        -1.56705324E-02
  0.289000005        -1.51720596E-02
  0.289999992        -1.46174943E-02
  0.291000009        -1.40129747E-02
  0.291999996        -1.33648403E-02
  0.293000013        -1.26795480E-02
  0.294000000        -1.19636049E-02
  0.294999987        -1.12234866E-02
  0.296000004        -1.04655717E-02
  0.296999991        -9.69607476E-03
  0.298000008        -8.92098900E-03
  0.298999995        -8.14603455E-03
  0.300000012        -7.37660937E-03
  0.300999999        -6.61774818E-03
  0.301999986        -5.87408803E-03
  0.303000003        -5.14984317E-03
  0.303999990        -4.44878265E-03
  0.305000007        -3.77421943E-03
  0.305999994        -3.12900264E-03
  0.307000011        -2.51551904E-03
  0.307999998        -1.93569716E-03
  0.308999985        -1.39101990E-03
  0.310000002        -8.82537861E-04
  0.310999990        -4.10890760E-04
  0.312000006         2.36683190E-05
  0.312999994         4.21244244E-04
  0.314000010         7.82267947E-04
  0.314999998         1.10746350E-03
  0.316000015         1.39781390E-03
  0.317000002         1.65452727E-03
  0.317999989         1.87900278E-03
  0.319000006         2.07279716E-03
  0.319999993         2.23759189E-03
  0.321000010         2.37516104E-03
  0.321999997         2.48734048E-03
  0.323000014         2.57600029E-03
  0.324000001         2.64301850E-03
  0.324999988         2.69026007E-03
  0.326000005         2.71955552E-03
  0.326999992         2.73268390E-03
  0.328000009         2.73135863E-03
  0.328999996         2.71721347E-03
  0.330000013         2.69179558E-03
  0.331000000         2.65655527E-03
  0.331999987         2.61284504E-03
  0.333000004         2.56191520E-03
  0.333999991         2.50491546E-03
  0.335000008         2.44289474E-03
  0.335999995         2.37680343E-03
  0.337000012         2.30749813E-03
  0.338000000         2.23574461E-03
  0.338999987         2.16222578E-03
  0.340000004         2.08754838E-03
  0.340999991         2.01225048E-03
  0.342000008         1.93680858E-03
  0.342999995         1.86164363E-03
  0.344000012         1.78712665E-03
  0.344999999         1.71358278E-03
  0.345999986         1.64129643E-03
  0.347000003         1.57051522E-03
  0.347999990         1.50145544E-03
  0.349000007         1.43430557E-03
  0.349999994         1.36923057E-03
  0.351000011         1.30637316E-03
  0.351999998         1.24585594E-03
  0.352999985         1.18778110E-03
  0.354000002         1.13223109E-03
  0.354999989         1.07926899E-03
  0.356000006         1.02893787E-03
  0.356999993         9.81260440E-04
  0.358000010         9.36237921E-04
  0.358999997         8.93847318E-04
  0.360000014         8.54039623E-04
  0.361000001         8.16737767E-04
  0.361999989         7.81835988E-04
  0.363000005         7.49200175E-04
  0.363999993         7.18669035E-04
  0.365000010         6.90055545E-04
  0.365999997         6.63148181E-04
  0.367000014         6.37711550E-04
  0.368000001         6.13486627E-04
  0.368999988         5.90190990E-04
  0.370000005         5.67519630E-04
  0.370999992         5.45145478E-04
  0.372000009         5.22720744E-04
  0.372999996         4.99877788E-04
  0.374000013         4.76229063E-04
  0.375000000         4.51367378E-04
  0.375999987         4.24865517E-04
  0.377000004         3.96276242E-04
  0.377999991         3.65132437E-04
  0.379000008         3.30947107E-04
  0.379999995         2.93212768E-04
  0.381000012         2.51399208E-04
  0.381999999         2.04949494E-04
  0.382999986         1.53273912E-04
  0.384000003         9.57429947E-05
  0.384999990         3.16797959E-05
  0.386000007        -3.96474679E-05
  0.386999995        -1.19032273E-04
  0.388000011        -2.07335790E-04
  0.388999999        -3.05492227E-04
  0.389999986        -4.14513721E-04
  0.391000003        -5.35494124E-04
  0.391999990        -6.69612084E-04
  0.393000007        -8.18132597E-04
  0.393999994        -9.82407015E-04
  0.395000011        -1.16387254E-03
  0.395999998        -1.36404915E-03
  0.397000015        -1.58453581E-03
  0.398000002        -1.82700332E-03
  0.398999989        -2.09318474E-03
  0.400000006        -2.38486123E-03
  0.400999993        -2.70384294E-03
  0.402000010        -3.05194478E-03
  0.402999997        -3.43095837E-03
  0.404000014        -3.84261901E-03
  0.405000001        -4.28857282E-03
  0.405999988        -4.77033760E-03
  0.407000005        -5.28926635E-03
  0.407999992        -5.84650645E-03
  0.409000009        -6.44295802E-03
  0.409999996        -7.07922969E-03
  0.411000013        -7.75559573E-03
  0.412000000        -8.47194996E-03
  0.412999988        -9.22776200E-03
  0.414000005        -1.00220302E-02
  0.414999992        -1.08532496E-02
  0.416000009        -1.17193609E-02
  0.416999996        -1.26177277E-02
  0.418000013        -1.35451015E-02
  0.419000000        -1.44976042E-02
  0.419999987        -1.54707124E-02
  0.421000004        -1.64592527E-02
  0.421999991        -1.74574107E-02
  0.423000008        -1.84587352E-02
  0.423999995        -1.94561779E-02
  0.425000012        -2.04421040E-02
  0.425999999        -2.14083511E-02
  0.426999986        -2.23462768E-02
  0.428000003        -2.32468154E-02
  0.428999990        -2.41005626E-02
  0.430000007        -2.48978455E-02
  0.430999994        -2.56288275E-02
  0.432000011        -2.62836050E-02
  0.432999998        -2.68523060E-02
  0.433999985        -2.73252130E-02
  0.435000002        -2.76928768E-02
  0.435999990        -2.79462319E-02
  0.437000006        -2.80767214E-02
  0.437999994        -2.80764233E-02
  0.439000010        -2.79381610E-02
  0.439999998        -2.76556313E-02
  0.441000015        -2.72235069E-02
  0.442000002        -2.66375393E-02
  0.442999989        -2.58946586E-02
  0.444000006        -2.49930434E-02
  0.444999993        -2.39321999E-02
  0.446000010        -2.27130186E-02
  0.446999997        -2.13378035E-02
  0.448000014        -1.98103115E-02
  0.449000001        -1.81357469E-02
  0.449999988        -1.63207650E-02
  0.451000005        -1.43734254E-02
  0.451999992        -1.23031652E-02
  0.453000009        -1.01207290E-02
  0.453999996        -7.83809088E-03
  0.455000013        -5.46836108E-03
  0.456000000        -3.02567333E-03
  0.456999987        -5.25057432E-04
  0.458000004         2.01769988E-03
  0.458999991         4.58620628E-03
  0.460000008         7.16362614E-03
  0.460999995         9.73284524E-03
  0.462000012         1.22766448E-02
  0.463000000         1.47778764E-02
  0.463999987         1.72196310E-02
  0.465000004         1.95854176E-02
  0.465999991         2.18593255E-02
  0.467000008         2.40261797E-02
  0.467999995         2.60717049E-02
  0.469000012         2.79826634E-02
  0.469999999         2.97469776E-02
  0.470999986         3.13538611E-02
  0.472000003         3.27939056E-02
  0.472999990         3.40591855E-02
  0.474000007         3.51433009E-02
  0.474999994         3.60414460E-02
  0.476000011         3.67504321E-02
  0.476999998         3.72686870E-02
  0.477999985         3.75962555E-02
  0.479000002         3.77347767E-02
  0.479999989         3.76874208E-02
  0.481000006         3.74588296E-02
  0.481999993         3.70550565E-02
  0.483000010         3.64834592E-02
  0.483999997         3.57525945E-02
  0.485000014         3.48721035E-02
  0.486000001         3.38526033E-02
  0.486999989         3.27055380E-02
  0.488000005         3.14430445E-02
  0.488999993         3.00778188E-02
  0.490000010         2.86229588E-02
  0.490999997         2.70918291E-02
  0.492000014         2.54979115E-02
  0.493000001         2.38546692E-02
  0.493999988         2.21754182E-02
  0.495000005         2.04731915E-02
  0.495999992         1.87606327E-02
  0.497000009         1.70498770E-02
  0.497999996         1.53524475E-02
  0.499000013         1.36791877E-02
  0.500000000         1.20401643E-02
  0.500999987         1.04446225E-02
  0.501999974         8.90092272E-03
  0.503000021         7.41651468E-03
  0.504000008         5.99790178E-03
  0.504999995         4.65063239E-03
  0.505999982         3.37928929E-03
  0.507000029         2.18750071E-03
  0.508000016         1.07795489E-03
  0.509000003         5.24310453E-05
  0.509999990        -8.88163981E-04
  0.510999978        -1.74374785E-03
  0.512000024        -2.51500984E-03
  0.513000011        -3.20335128E-03
  0.513999999        -3.81082320E-03
  0.514999986        -4.34005912E-03
  0.515999973        -4.79420647E-03
  0.517000020        -5.17685572E-03
  0.518000007        -5.49196685E-03
  0.518999994        -5.74380066E-03
  0.519999981        -5.93684474E-03
  0.521000028        -6.07574871E-03
  0.522000015        -6.16525579E-03
  0.523000002        -6.21014182E-03
  0.523999989        -6.21515699E-03
  0.524999976        -6.18496956E-03
  0.526000023        -6.12411741E-03
  0.527000010        -6.03696331E-03
  0.527999997        -5.92765678E-03
  0.528999984        -5.80009911E-03
  0.529999971        -5.65792061E-03
  0.531000018        -5.50445588E-03
  0.532000005        -5.34273125E-03
  0.532999992        -5.17545454E-03
  0.533999979        -5.00501087E-03
  0.535000026        -4.83346684E-03
  0.536000013        -4.66257241E-03
  0.537000000        -4.49377578E-03
  0.537999988        -4.32823692E-03
  0.538999975        -4.16684523E-03
  0.540000021        -4.01024241E-03
  0.541000009        -3.85884172E-03
  0.541999996        -3.71285854E-03
  0.542999983        -3.57233151E-03
  0.544000030        -3.43715353E-03
  0.545000017        -3.30709806E-03
  0.546000004        -3.18184751E-03
  0.546999991        -3.06101982E-03
  0.547999978        -2.94419378E-03
  0.549000025        -2.83093378E-03
  0.550000012        -2.72081257E-03
  0.550999999        -2.61342921E-03
  0.551999986        -2.50842748E-03
  0.552999973        -2.40550819E-03
  0.554000020        -2.30443827E-03
  0.555000007        -2.20505940E-03
  0.555999994        -2.10728752E-03
  0.556999981        -2.01111566E-03
  0.558000028        -1.91661145E-03
  0.559000015        -1.82391296E-03
  0.560000002        -1.73322216E-03
  0.560999990        -1.64479646E-03
  0.561999977        -1.55893806E-03
  0.563000023        -1.47598097E-03
  0.564000010        -1.39627699E-03
  0.564999998        -1.32018060E-03
  0.565999985        -1.24803418E-03
  0.566999972        -1.18015392E-03
  0.568000019        -1.11681572E-03
  0.569000006        -1.05824275E-03
  0.569999993        -1.00459484E-03
  0.570999980        -9.55959666E-04
  0.572000027        -9.12345364E-04
  0.573000014        -8.73676967E-04
  0.574000001        -8.39794928E-04
  0.574999988        -8.10455764E-04
  0.575999975        -7.85335316E-04
  0.577000022        -7.64033583E-04
  0.578000009        -7.46081234E-04
  0.578999996        -7.30947824E-04
  0.579999983        -7.18051917E-04
  0.580999970        -7.06773484E-04
  0.582000017        -6.96467585E-04
  0.583000004        -6.86480023E-04
  0.583999991        -6.76163356E-04
  0.584999979        -6.64893014E-04
  0.586000025        -6.52082614E-04
  0.587000012        -6.37198158E-04
  0.588000000        -6.19770843E-04
  0.588999987        -5.99408289E-04
  0.589999974        -5.75803686E-04
  0.591000021        -5.48743119E-04
  0.592000008        -5.18110872E-04
  0.592999995        -4.83891868E-04
  0.593999982        -4.46172926E-04
  0.595000029        -4.05140920E-04
  0.596000016        -3.61079146E-04
  0.597000003        -3.14361037E-04
  0.597999990        -2.65441369E-04
  0.598999977        -2.14845044E-04
  0.600000024        -1.63153411E-04
  0.601000011        -1.10989662E-04
  0.601999998        -5.90032578E-05
  0.602999985        -7.85490192E-06
  0.603999972         4.17978335E-05
  0.605000019         8.93140386E-05
  0.606000006         1.34082438E-04
  0.606999993         1.75534034E-04
  0.607999980         2.13154490E-04
  0.609000027         2.46495940E-04
  0.610000014         2.75187194E-04
  0.611000001         2.98942032E-04
  0.611999989         3.17564351E-04
  0.612999976         3.30950745E-04
  0.614000022         3.39090155E-04
  0.615000010         3.42061598E-04
  0.615999997         3.40029685E-04
  0.616999984         3.33238626E-04
  0.617999971         3.22004111E-04
  0.619000018         3.06703470E-04
  0.620000005         2.87763949E-04
  0.620999992         2.65650073E-04
  0.621999979         2.40850670E-04
  0.623000026         2.13866821E-04
  0.624000013         1.85200668E-04
  0.625000000         1.55345435E-04
  0.625999987         1.24775979E-04
  0.626999974         9.39393503E-05
  0.628000021         6.32454176E-05
  0.629000008         3.30577350E-05
  0.629999995         3.68585779E-06
  0.630999982        -2.46202817E-05
  0.632000029        -5.16730106E-05
  0.633000016        -7.73465945E-05
  0.634000003        -1.01574689E-04
  0.634999990        -1.24346028E-04
  0.635999978        -1.45699494E-04
  0.637000024        -1.65718433E-04
  0.638000011        -1.84524470E-04
  0.638999999        -2.02270356E-04
  0.639999986        -2.19131573E-04
  0.640999973        -2.35296902E-04
  0.642000020        -2.50958401E-04
  0.643000007        -2.66301882E-04
  0.643999994        -2.81498098E-04
  0.644999981        -2.96695362E-04
  0.646000028        -3.12013348E-04
  0.647000015        -3.27537680E-04
  0.648000002        -3.43315449E-04
  0.648999989        -3.59351543E-04
  0.649999976        -3.75605974E-04
  0.651000023        -3.91992711E-04
  0.652000010        -4.08380612E-04
  0.652999997        -4.24596277E-04
  0.653999984        -4.40428441E-04
  0.654999971        -4.55633795E-04
  0.656000018        -4.69943538E-04
  0.657000005        -4.83070413E-04
  0.657999992        -4.94715990E-04
  0.658999979        -5.04578755E-04
  0.660000026        -5.12361818E-04
  0.661000013        -5.17781300E-04
  0.662000000        -5.20574802E-04
  0.662999988        -5.20509668E-04
  0.663999975        -5.17390028E-04
  0.665000021        -5.11063728E-04
  0.666000009        -5.01427334E-04
  0.666999996        -4.88429680E-04
  0.667999983        -4.72074607E-04
  0.669000030        -4.52421344E-04
  0.670000017        -4.29584441E-04
  0.671000004        -4.03732614E-04
  0.671999991        -3.75086529E-04
  0.672999978        -3.43915948E-04
  0.674000025        -3.10535630E-04
  0.675000012        -2.75299943E-04
  0.675999999        -2.38596083E-04
  0.676999986        -2.00836002E-04
  0.677999973        -1.62447570E-04
  0.679000020        -1.23865451E-04
  0.680000007        -8.55224207E-05
  0.680999994        -4.78411384E-05
  0.681999981        -1.12268499E-05
  0.683000028         2.39396377E-05
  0.684000015         5.73086509E-05
  0.685000002         8.85681729E-05
  0.685999990         1.17449927E-04
  0.686999977         1.43734433E-04
  0.688000023         1.67254577E-04
  0.689000010         1.87897342E-04