 -0.119999997         0.00000000    
 -0.119000003         0.00000000    
 -0.118000001         0.00000000    
 -0.116999999         0.00000000    
 -0.115999997         0.00000000    
 -0.115000002         0.00000000    
 -0.114000000         0.00000000    
 -0.112999998         0.00000000    
 -0.112000003         0.00000000    
 -0.111000001         0.00000000    
 -0.109999999         0.00000000    
 -0.108999997         0.00000000    
 -0.108000003         0.00000000    
 -0.107000001         0.00000000    
 -0.105999999         0.00000000    
 -0.104999997         0.00000000    
 -0.104000002         0.00000000    
 -0.103000000         0.00000000    
 -0.101999998         0.00000000    
 -0.101000004         0.00000000    
 -0.100000001         0.00000000    
  -9.89999995E-02     0.00000000    
  -9.79999974E-02     0.00000000    
  -9.70000029E-02     0.00000000    
  -9.60000008E-02     0.00000000    
  -9.49999988E-02     0.00000000    
  -9.39999968E-02     0.00000000    
  -9.30000022E-02     0.00000000    
  -9.20000002E-02     0.00000000    
  -9.09999982E-02     0.00000000    
  -9.00000036E-02     0.00000000    
  -8.90000015E-02     0.00000000    
  -8.79999995E-02     0.00000000    
  -8.69999975E-02     0.00000000    
  -8.60000029E-02     0.00000000    
  -8.50000009E-02     0.00000000    
  -8.39999989E-02     0.00000000    
  -8.29999968E-02     0.00000000    
  -8.20000023E-02     0.00000000    
  -8.10000002E-02     0.00000000    
  -7.99999982E-02     0.00000000    
  -7.90000036E-02     0.00000000    
  -7.80000016E-02     0.00000000    
  -7.69999996E-02     0.00000000    
  -7.59999976E-02     0.00000000    
  -7.50000030E-02     0.00000000    
  -7.40000010E-02     0.00000000    
  -7.29999989E-02     0.00000000    
  -7.19999969E-02     0.00000000    
  -7.10000023E-02     0.00000000    
  -7.00000003E-02     0.00000000    
  -6.89999983E-02     0.00000000    
  -6.80000037E-02     0.00000000    
  -6.70000017E-02     0.00000000    
  -6.59999996E-02     0.00000000    
  -6.49999976E-02     0.00000000    
  -6.40000030E-02     0.00000000    
  -6.30000010E-02     0.00000000    
  -6.19999990E-02     0.00000000    
  -6.10000007E-02     0.00000000    
  -5.99999987E-02     0.00000000    
  -5.90000004E-02     0.00000000    
  -5.79999983E-02     0.00000000    
  -5.70000000E-02     0.00000000    
  -5.60000017E-02     0.00000000    
  -5.49999997E-02     0.00000000    
  -5.40000014E-02     0.00000000    
  -5.29999994E-02     0.00000000    
  -5.20000011E-02     0.00000000    
  -5.09999990E-02     0.00000000    
  -5.00000007E-02     0.00000000    
  -4.89999987E-02     0.00000000    
  -4.80000004E-02     0.00000000    
  -4.69999984E-02     0.00000000    
  -4.60000001E-02     0.00000000    
  -4.50000018E-02     0.00000000    
  -4.39999998E-02     0.00000000    
  -4.30000015E-02     0.00000000    
  -4.19999994E-02     0.00000000    
  -4.10000011E-02     0.00000000    
  -3.99999991E-02     0.00000000    
  -3.90000008E-02     0.00000000    
  -3.79999988E-02     0.00000000    
  -3.70000005E-02     0.00000000    
  -3.59999985E-02     0.00000000    
  -3.50000001E-02     0.00000000    
  -3.40000018E-02     0.00000000    
  -3.29999998E-02     0.00000000    
  -3.20000015E-02     0.00000000    
  -3.09999995E-02     0.00000000    
  -2.99999993E-02     0.00000000    
  -2.89999992E-02     0.00000000    
  -2.80000009E-02     0.00000000    
  -2.70000007E-02     0.00000000    
  -2.60000005E-02     0.00000000    
  -2.50000004E-02     0.00000000    
  -2.40000002E-02     0.00000000    
  -2.30000000E-02     0.00000000    
  -2.19999999E-02     0.00000000    
  -2.09999997E-02     0.00000000    
  -1.99999996E-02     0.00000000    
  -1.89999994E-02     0.00000000    
  -1.79999992E-02     0.00000000    
  -1.70000009E-02     0.00000000    
  -1.60000008E-02     0.00000000    
  -1.49999997E-02     0.00000000    
  -1.40000004E-02     0.00000000    
  -1.30000003E-02     0.00000000    
  -1.20000001E-02     0.00000000    
  -1.09999999E-02     0.00000000    
  -9.99999978E-03     0.00000000    
  -8.99999961E-03     0.00000000    
  -8.00000038E-03     0.00000000    
  -7.00000022E-03     0.00000000    
  -6.00000005E-03     0.00000000    
  -4.99999989E-03     0.00000000    
  -4.00000019E-03     0.00000000    
  -3.00000003E-03     0.00000000    
  -2.00000009E-03     0.00000000    
  -1.00000005E-03     0.00000000    
   0.00000000         0.00000000    
   1.00000005E-03     0.00000000    
   2.00000009E-03     0.00000000    
   3.00000003E-03     0.00000000    
   4.00000019E-03     0.00000000    
   4.99999989E-03     0.00000000    
   6.00000005E-03     0.00000000    
   7.00000022E-03     0.00000000    
   8.00000038E-03     0.00000000    
   8.99999961E-03     0.00000000    
   9.99999978E-03     0.00000000    
   1.09999999E-02     0.00000000    
   1.20000001E-02     0.00000000    
   1.30000003E-02     0.00000000    
   1.40000004E-02     0.00000000    
   1.49999997E-02     0.00000000    
   1.60000008E-02     0.00000000    
   1.70000009E-02     0.00000000    
   1.79999992E-02     0.00000000    
   1.89999994E-02     0.00000000    
   1.99999996E-02     0.00000000    
   2.09999997E-02     0.00000000    
   2.19999999E-02     0.00000000    
   2.30000000E-02     0.00000000    
   2.40000002E-02     0.00000000    
   2.50000004E-02     0.00000000    
   2.60000005E-02     0.00000000    
   2.70000007E-02     0.00000000    
   2.80000009E-02     0.00000000    
   2.89999992E-02     0.00000000    
   2.99999993E-02     0.00000000    
   3.09999995E-02    -0.00000000    
   3.20000015E-02    -0.00000000    
   3.29999998E-02    -0.00000000    
   3.40000018E-02    -0.00000000    
   3.50000001E-02    -0.00000000    
   3.59999985E-02     0.00000000    
   3.70000005E-02     2.24543660E-38
   3.79999988E-02     3.58561252E-38
   3.90000008E-02     1.83172915E-38
   3.99999991E-02    -4.46846279E-38
   4.10000011E-02    -1.31694613E-37
   4.19999994E-02    -2.02414222E-37
   4.30000015E-02    -2.23923616E-37
   4.39999998E-02    -1.43320547E-37
   4.50000018E-02     6.74846451E-38
   4.60000001E-02     3.85558820E-37
   4.69999984E-02     7.35337311E-37
   4.80000004E-02     9.68989951E-37
   4.89999987E-02     8.59715845E-37
   5.00000007E-02     1.67524122E-37
   5.09999990E-02    -1.22028093E-36
   5.20000011E-02    -3.09223496E-36
   5.29999994E-02    -4.75627765E-36
   5.40000014E-02    -5.04581058E-36
   5.49999997E-02    -2.65194456E-36
   5.60000017E-02     3.22769375E-36
   5.70000000E-02     1.20004772E-35
   5.79999983E-02     2.09302322E-35
   5.90000004E-02     2.50555186E-35
   5.99999987E-02     1.83219678E-35
   6.10000007E-02    -3.81676501E-36
   6.19999990E-02    -4.07157666E-35
   6.30000010E-02    -8.30490777E-35
   6.40000030E-02    -1.11604189E-34
   6.49999976E-02    -1.00674582E-34
   6.59999996E-02    -2.74553265E-35
   6.70000017E-02     1.13479091E-34
   6.80000037E-02     2.94962665E-34
   6.89999983E-02     4.49055464E-34
   7.00000003E-02     4.75124164E-34
   7.10000023E-02     2.70900847E-34
   7.19999969E-02    -2.14606950E-34
   7.29999989E-02    -9.19893665E-34
   7.40000010E-02    -1.62825253E-33
   7.50000030E-02    -1.97808755E-33
   7.59999976E-02    -1.55510225E-33
   7.69999996E-02    -7.08962052E-35
   7.80000016E-02     2.40947983E-33
   7.90000036E-02     5.27707222E-33
   7.99999982E-02     7.34588534E-33
   8.10000002E-02     7.09048568E-33
   8.20000023E-02     3.19906159E-33
   8.29999968E-02    -4.64579318E-33
   8.39999989E-02    -1.50127321E-32
   8.50000009E-02    -2.43840654E-32
   8.60000029E-02    -2.76451468E-32
   8.69999975E-02    -1.96384346E-32
   8.79999995E-02     2.36831549E-33
   8.90000015E-02     3.59825374E-32
   9.00000036E-02     7.19332131E-32
   9.09999982E-02     9.46332432E-32
   9.20000002E-02     8.60621908E-32
   9.30000022E-02     3.29247093E-32
   9.39999968E-02    -6.45475527E-32
   9.49999988E-02    -1.85432729E-31
   9.60000008E-02    -2.86827933E-31
   9.70000029E-02    -3.12107433E-31
   9.79999974E-02    -2.09826165E-31
   9.89999995E-02     4.00400941E-32
  0.100000001         4.00910436E-31
  0.101000004         7.67576464E-31
  0.101999998         9.79395186E-31
  0.103000000         8.65104221E-31
  0.104000002         3.14350817E-31
  0.104999997        -6.43491704E-31
  0.105999999        -1.78520089E-30
  0.107000001        -2.70022995E-30
  0.108000003        -2.88339812E-30
  0.108999997        -1.91253495E-30
  0.109999999         3.28564589E-31
  0.111000001         3.45963748E-30
  0.112000003         6.54430318E-30
  0.112999998         8.24581639E-30
  0.114000000         7.22551363E-30
  0.115000002         2.71687778E-30
  0.115999997        -4.89744048E-30
  0.116999999        -1.37537789E-29
  0.118000001        -2.06680826E-29
  0.119000003        -2.19277882E-29
  0.119999997        -1.46397564E-29
  0.120999999         1.71072552E-30
  0.122000001         2.40667576E-29
  0.123000003         4.56275133E-29
  0.123999998         5.71812392E-29
  0.125000000         4.99823659E-29
  0.126000002         1.95732080E-29
  0.127000004        -3.06835909E-29
  0.128000006        -8.79541451E-29
  0.128999993        -1.31580244E-28
  0.129999995        -1.38600572E-28
  0.130999997        -9.23213056E-29
  0.131999999         8.47235616E-30
  0.133000001         1.43239330E-28
  0.134000003         2.70023612E-28
  0.135000005         3.34710061E-28
  0.136000007         2.88642274E-28
  0.136999995         1.10398734E-28
  0.137999997        -1.75706826E-28
  0.138999999        -4.93145436E-28
  0.140000001        -7.25632481E-28
  0.141000003        -7.50129250E-28
  0.142000005        -4.84150381E-28
  0.143000007         6.68655613E-29
  0.143999994         7.81319156E-28
  0.144999996         1.43035938E-27
  0.145999998         1.73303150E-27
  0.147000000         1.45111089E-27
  0.148000002         4.98818552E-28
  0.149000004        -9.71688376E-28
  0.150000006        -2.55143617E-27
  0.150999993        -3.65198649E-27
  0.151999995        -3.67979577E-27
  0.152999997        -2.26977488E-27
  0.153999999         4.95671727E-28
  0.155000001         3.97383327E-27
  0.156000003         7.03395838E-27
  0.157000005         8.34506061E-27
  0.158000007         6.83400679E-27
  0.158999994         2.18709356E-27
  0.159999996        -4.78842036E-27
  0.160999998        -1.21281201E-26
  0.162000000        -1.71141987E-26
  0.163000003        -1.70963769E-26
  0.164000005        -1.05371826E-26
  0.165000007         2.05691013E-27
  0.165999994         1.77138809E-26
  0.166999996         3.13990183E-26
  0.167999998         3.73303987E-26
  0.169000000         3.09677055E-26
  0.170000002         1.11056886E-26
  0.171000004        -1.87011881E-26
  0.172000006        -5.01203547E-26
  0.172999993        -7.18363426E-26
  0.173999995        -7.29865819E-26
  0.174999997        -4.73884061E-26
  0.175999999         2.83078480E-27
  0.177000001         6.57437664E-26
  0.178000003         1.21426154E-25
  0.179000005         1.47264726E-25
  0.180000007         1.25710939E-25
  0.180999994         5.22066421E-26
  0.181999996        -5.96635594E-26
  0.182999998        -1.78470486E-25
  0.184000000        -2.62013099E-25
  0.185000002        -2.70278513E-25
  0.186000004        -1.80950283E-25
  0.187000006        -2.30032167E-27
  0.187999994         2.22048913E-25
  0.188999996         4.20364649E-25
  0.189999998         5.12399671E-25
  0.191000000         4.37154568E-25
  0.192000002         1.80491622E-25
  0.193000004        -2.07751820E-25
  0.194000006        -6.16181472E-25
  0.194999993        -8.97790467E-25
  0.195999995        -9.15653138E-25
  0.196999997        -5.96299564E-25
  0.197999999         2.71321867E-26
  0.199000001         8.00483489E-25
  0.200000003         1.47531406E-24
  0.201000005         1.77701785E-24
  0.202000007         1.49933724E-24
  0.202999994         5.96961467E-25
  0.203999996        -7.58202812E-25
  0.204999998        -2.18640649E-24
  0.206000000        -3.18735995E-24
  0.207000002        -3.29222461E-24
  0.208000004        -2.24042650E-24
  0.209000006        -1.23135924E-25
  0.209999993         2.56607617E-24
  0.210999995         5.01303277E-24
  0.211999997         6.29808561E-24
  0.213000000         5.69778218E-24
  0.214000002         2.98479348E-24
  0.215000004        -1.38104695E-24
  0.216000006        -6.26233285E-24
  0.216999993        -1.00944156E-23
  0.217999995        -1.13395955E-23
  0.218999997        -9.02802160E-24
  0.219999999        -3.21277705E-24
  0.221000001         4.83894734E-24
  0.222000003         1.28400152E-23
  0.223000005         1.80728128E-23
  0.224000007         1.82462691E-23
  0.224999994         1.23723517E-23
  0.225999996         1.35757854E-24
  0.226999998        -1.19545583E-23
  0.228000000        -2.34121737E-23
  0.229000002        -2.87629162E-23
  0.230000004        -2.51264552E-23
  0.231000006        -1.22614899E-23
  0.231999993         6.86132125E-24
  0.232999995         2.65177423E-23
  0.233999997         3.97560211E-23
  0.234999999         4.06543349E-23
  0.236000001         2.66473774E-23
  0.237000003         1.05378271E-25
  0.238000005        -3.15457083E-23
  0.238999993        -5.74957358E-23
  0.239999995        -6.67758134E-23
  0.240999997        -5.22012264E-23
  0.241999999        -1.37749992E-23
  0.243000001         3.97650330E-23
  0.244000003         9.21813061E-23
  0.245000005         1.23887311E-22
  0.246000007         1.18154615E-22
  0.246999994         6.76300741E-23
  0.247999996        -2.10340357E-23
  0.248999998        -1.26412991E-22
  0.250000000        -2.16438769E-22
  0.250999987        -2.56984933E-22
  0.252000004        -2.22870068E-22
  0.252999991        -1.08047590E-22
  0.254000008         6.85693676E-23
  0.254999995         2.64377228E-22
  0.256000012         4.22295670E-22
  0.256999999         4.86292586E-22
  0.257999986         4.19234208E-22
  0.259000003         2.17662047E-22
  0.259999990        -8.17517445E-23
  0.261000007        -4.07408363E-22
  0.261999995        -6.69684243E-22
  0.263000011        -7.85768268E-22
  0.263999999        -7.05568250E-22
  0.264999986        -4.30549023E-22
  0.266000003        -1.86133719E-23
  0.266999990         4.28161337E-22
  0.268000007         7.90866303E-22
  0.268999994         9.68885073E-22
  0.270000011         9.12051040E-22
  0.270999998         6.38852731E-22
  0.272000015         2.33183548E-22
  0.273000002        -1.81350539E-22
  0.273999989        -4.82842247E-22
  0.275000006        -5.95107781E-22
  0.275999993        -5.18582316E-22
  0.277000010        -3.34942818E-22
  0.277999997        -1.80015219E-22
  0.279000014        -1.90394142E-22
  0.280000001        -4.39895548E-22
  0.280999988        -8.88643505E-22
  0.282000005        -1.36722141E-21
  0.282999992        -1.60979596E-21
  0.284000009        -1.33502064E-21
  0.284999996        -3.55931213E-22
  0.286000013         1.31435839E-21
  0.287000000         3.40004472E-21
  0.287999988         5.37545421E-21
  0.289000005         6.56686531E-21
  0.289999992         6.33001216E-21
  0.291000009         4.26239101E-21
  0.291999996         3.90192742E-22
  0.293000013        -4.73376279E-21
  0.294000000        -1.00685814E-20
  0.294999987        -1.42742390E-20
  0.296000004        -1.60216322E-20
  0.296999991        -1.43537259E-20
  0.298000008        -9.00257173E-21
  0.298999995        -5.66828796E-22
  0.300000012         9.51731960E-21
  0.300999999         1.92276130E-20
  0.301999986         2.63838982E-20
  0.303000003         2.91534896E-20
  0.303999990         2.65046375E-20
  0.305000007         1.84850714E-20
  0.305999994         6.24524674E-21
  0.307000011        -8.20495071E-21
  0.307999998        -2.24412032E-20
  0.308999985        -3.41467879E-20
  0.310000002        -4.15631310E-20
  0.310999990        -4.37432657E-20
  0.312000006        -4.05472142E-20
  0.312999994        -3.24073757E-20
  0.314000010        -1.99769191E-20
  0.314999998        -3.82554393E-21
  0.316000015         1.56567551E-20
  0.317000002         3.80525151E-20
  0.317999989         6.24238182E-20
  0.319000006         8.66811094E-20
  0.319999993         1.07067480E-19
  0.321000010         1.18054506E-19
  0.321999997         1.12898224E-19
  0.323000014         8.49629454E-20
  0.324000001         2.97082919E-20
  0.324999988        -5.30023732E-20
  0.326000005        -1.56818762E-19
  0.326999992        -2.67703047E-19
  0.328000009        -3.64242831E-19
  0.328999996        -4.19921056E-19
  0.330000013        -4.07449240E-19
  0.331000000        -3.04820734E-19
  0.331999987        -1.02249430E-19
  0.333000004         1.91293297E-19
  0.333999991         5.43539967E-19
  0.335000008         8.98060478E-19
  0.335999995         1.17849104E-18
  0.337000012         1.29865929E-18
  0.338000000         1.17839116E-18
  0.338999987         7.63460357E-19
  0.340000004         4.66664605E-20
  0.340999991        -9.14326985E-19
  0.342000008        -1.98762216E-18
  0.342999995        -2.97138724E-18
  0.344000012        -3.61575700E-18
  0.344999999        -3.66354819E-18
  0.345999986        -2.90697965E-18
  0.347000003        -1.25268470E-18
  0.347999990         1.21748599E-18
  0.349000007         4.20589743E-18
  0.349999994         7.19563257E-18
  0.351000011         9.49783172E-18
  0.351999998         1.03560663E-17
  0.352999985         9.10215649E-18
  0.354000002         5.34337541E-18
  0.354999989        -8.53497726E-19
  0.356000006        -8.82668715E-18
  0.356999993        -1.72812191E-17
  0.358000010        -2.43892549E-17
  0.358999997        -2.80501479E-17
  0.360000014        -2.62997890E-17
  0.361000001        -1.78194755E-17
  0.361999989        -2.45483300E-18
  0.363000005         1.83755526E-17
  0.363999993         4.15137101E-17
  0.365000010         6.22537916E-17
  0.365999997         7.49586174E-17
  0.367000014         7.40888469E-17
  0.368000001         5.55316058E-17
  0.368999988         1.80104367E-17
  0.370000005        -3.57270159E-17
  0.370999992        -9.82883003E-17
  0.372000009        -1.57900044E-16
  0.372999996        -1.99766169E-16
  0.374000013        -2.08541510E-16
  0.375000000        -1.71692811E-16
  0.375999987        -8.32476752E-17
  0.377000004         5.28052317E-17
  0.377999991         2.20342505E-16
  0.379000008         3.91020293E-16
  0.379999995         5.26923950E-16
  0.381000012         5.86178351E-16
  0.381999999         5.31149374E-16
  0.382999986         3.38180075E-16
  0.384000003         7.15623644E-18
  0.384999990        -4.31268837E-16
  0.386000007        -9.13077059E-16
  0.386999995        -1.34485581E-15
  0.388000011        -1.61540364E-15
  0.388999999        -1.61468747E-15
  0.389999986        -1.25819333E-15
  0.391000003        -5.12979935E-16
  0.391999990         5.79676474E-16
  0.393000007         1.89089412E-15
  0.393999994         3.20559661E-15
  0.395000011         4.24269655E-15
  0.395999998         4.69518494E-15
  0.397000015         4.28738898E-15
  0.398000002         2.84229656E-15
  0.398999989         3.47746385E-16
  0.400000006        -2.99258392E-15
  0.400999993        -6.73825763E-15
  0.402000010        -1.02339910E-14
  0.402999997        -1.26819365E-14
  0.404000014        -1.32636669E-14
  0.405000001        -1.13009425E-14
  0.405999988        -6.43352355E-15
  0.407000005         1.21697416E-15
  0.407999992         1.09338130E-14
  0.409000009         2.13788456E-14
  0.409999996         3.06821083E-14
  0.411000013         3.66611377E-14
  0.412000000         3.71621340E-14
  0.412999988         3.04892118E-14
  0.414000005         1.58622200E-14
  0.414999992        -6.17759551E-15
  0.416000009        -3.35057164E-14
  0.416999996        -6.23842679E-14
  0.418000013        -8.77304482E-14
  0.419000000        -1.03711094E-13
  0.419999987        -1.04636819E-13
  0.421000004        -8.60668416E-14
  0.421999991        -4.59738211E-14
  0.423000008         1.42305940E-14
  0.423999995         8.90334559E-14
  0.425000012         1.68734723E-13
  0.425999999         2.40099851E-13
  0.426999986         2.87819600E-13
  0.428000003         2.96718379E-13
  0.428999990         2.54505266E-13
  0.430000007         1.54715230E-13
  0.430999994        -6.29141451E-16
  0.432000011        -1.99170433E-13
  0.432999998        -4.17704391E-13
  0.433999985        -6.23417930E-13
  0.435000002        -7.77089764E-13
  0.435999990        -8.38183364E-13
  0.437000006        -7.71423561E-13
  0.437999994        -5.54106511E-13
  0.439000010        -1.83093300E-13
  0.439999998         3.19749137E-13
  0.441000015         9.04925278E-13
  0.442000002         1.49660048E-12
  0.442999989         1.99850661E-12
  0.444000006         2.30458599E-12
  0.444999993         2.31375964E-12
  0.446000010         1.94741532E-12
  0.446999997         1.16746847E-12
  0.448000014        -7.71796855E-15
  0.449000001        -1.49253082E-12
  0.449999988        -3.13126001E-12
  0.451000005        -4.70544133E-12
  0.451999992        -5.95255659E-12
  0.453000009        -6.59579249E-12
  0.453999996        -6.38282699E-12
  0.455000013        -5.12984360E-12
  0.456000000        -2.76538297E-12
  0.456999987         6.32489829E-13
  0.458000004         4.81259390E-12
  0.458999991         9.34703443E-12
  0.460000008         1.36524490E-11
  0.460999995         1.70384453E-11
  0.462000012         1.87821928E-11
  0.463000000         1.82242797E-11
  0.463999987         1.48769330E-11
  0.465000004         8.53220012E-12
  0.465999991        -6.44833254E-13
  0.467000008        -1.20537356E-11
  0.467999995        -2.46423160E-11
  0.469000012        -3.69479274E-11
  0.469999999        -4.72030609E-11
  0.470999986        -5.35046209E-11
  0.472000003        -5.40377465E-11
  0.472999990        -4.73363258E-11
  0.474000007        -3.25538832E-11
  0.474999994        -9.71224837E-12
  0.476000011         2.01082866E-11
  0.476999998         5.46732035E-11
  0.477999985         9.06235850E-11
  0.479000002         1.23653018E-10
  0.479999989         1.48839344E-10
  0.481000006         1.61121644E-10
  0.481999993         1.55893409E-10
  0.483000010         1.29663863E-10
  0.483999997         8.07218736E-11
  0.485000014         9.72491965E-12
  0.486000001        -7.98702979E-11
  0.486999989        -1.81616056E-10
  0.488000005        -2.86188406E-10
  0.488999993        -3.81854048E-10
  0.490000010        -4.55303267E-10
  0.490999997        -4.92825836E-10
  0.492000014        -4.81763518E-10
  0.493000001        -4.12133050E-10
  0.493999988        -2.78275736E-10
  0.495000005        -8.03630010E-11
  0.495999992         1.74427486E-10
  0.497000009         4.71245876E-10
  0.497999996         7.87574672E-10
  0.499000013         1.09402154E-09
  0.500000000         1.35595901E-09
  0.500999987         1.53599533E-09
  0.501999974         1.59718050E-09
  0.503000021         1.50676349E-09
  0.504000008         1.24024069E-09
  0.504999995         7.85368548E-10
  0.505999982         1.45773602E-10
  0.507000029        -6.56226573E-10
  0.508000016        -1.57795699E-09
  0.509000003        -2.55618948E-09
  0.509999990        -3.50865137E-09
  0.510999978        -4.33735847E-09
  0.512000024        -4.93376451E-09
  0.513000011        -5.18557730E-09
  0.513999999        -4.98495245E-09
  0.514999986        -4.23765378E-09
  0.515999973        -2.87267854E-09
  0.517000020        -8.51784088E-10
  0.518000007         1.82164561E-09
  0.518999994         5.09491915E-09
  0.519999981         8.85995544E-09
  0.521000028         1.29490703E-08
  0.522000015         1.71327059E-08
  0.523000002         2.11189501E-08
  0.523999989         2.45544527E-08
  0.524999976         2.70260951E-08
  0.526000023         2.80625621E-08
  0.527000010         2.71347282E-08
  0.527999997         2.36536550E-08
  0.528999984         1.69648953E-08
  0.529999971         6.33770059E-09
  0.531000018        -9.05221320E-09
  0.532000005        -3.01476675E-08
  0.532999992        -5.80440300E-08
  0.533999979        -9.40334317E-08
  0.535000026        -1.39660145E-07
  0.536000013        -1.96788193E-07
  0.537000000        -2.67682225E-07
  0.537999988        -3.55102515E-07
  0.538999975        -4.62415500E-07
  0.540000021        -5.93720756E-07
  0.541000009        -7.53996460E-07
  0.541999996        -9.49265029E-07
  0.542999983        -1.18678111E-06
  0.544000030        -1.47524554E-06
  0.545000017        -1.82504709E-06
  0.546000004        -2.24853716E-06
  0.546999991        -2.76034098E-06
  0.547999978        -3.37770916E-06
  0.549000025        -4.12091686E-06
  0.550000012        -5.01371187E-06
  0.550999999        -6.08381697E-06
  0.551999986        -7.36350012E-06
  0.552999973        -8.89019975E-06
  0.554000020        -1.07072274E-05
  0.555000007        -1.28645434E-05
  0.555999994        -1.54196023E-05
  0.556999981        -1.84382825E-05
  0.558000028        -2.19959020E-05
  0.559000015        -2.61782843E-05
  0.560000002        -3.10829419E-05
  0.560999990        -3.68202964E-05
  0.561999977        -4.35149741E-05
  0.563000023        -5.13071791E-05
  0.564000010        -6.03540757E-05
  0.564999998        -7.08312364E-05
  0.565999985        -8.29340861E-05
  0.566999972        -9.68793465E-05
  0.568000019        -1.12906440E-04
  0.569000006        -1.31278837E-04
  0.569999993        -1.52285327E-04
  0.570999980        -1.76241098E-04
  0.572000027        -2.03488729E-04
  0.573000014        -2.34398874E-04
  0.574000001        -2.69370794E-04
  0.574999988        -3.08832328E-04
  0.575999975        -3.53239855E-04
  0.577000022        -4.03077342E-04
  0.578000009        -4.58855415E-04
  0.578999996        -5.21109265E-04
  0.579999983        -5.90396521E-04
  0.580999970        -6.67293847E-04
  0.582000017        -7.52393389E-04
  0.583000004        -8.46297713E-04
  0.583999991        -9.49614623E-04
  0.584999979        -1.06295047E-03
  0.586000025        -1.18690275E-03
  0.587000012        -1.32205198E-03
  0.588000000        -1.46895216E-03
  0.588999987        -1.62812136E-03
  0.589999974        -1.80002919E-03
  0.591000021        -1.98508636E-03
  0.592000008        -2.18363083E-03
  0.592999995        -2.39591557E-03
  0.593999982        -2.62209377E-03
  0.595000029        -2.86220573E-03
  0.596000016        -3.11616296E-03
  0.597000003        -3.38373566E-03
  0.597999990        -3.66453710E-03
  0.598999977        -3.95801058E-03
  0.600000024        -4.26341640E-03
  0.601000011        -4.57982067E-03
  0.601999998        -4.90608485E-03
  0.602999985        -5.24085760E-03
  0.603999972        -5.58256591E-03
  0.605000019        -5.92941232E-03
  0.606000006        -6.27937447E-03
  0.606999993        -6.63020276E-03
  0.607999980        -6.97942823E-03
  0.609000027        -7.32436869E-03
  0.610000014        -7.66214076E-03
  0.611000001        -7.98967388E-03
  0.611999989        -8.30372889E-03
  0.612999976        -8.60092230E-03
  0.614000022        -8.87775142E-03
  0.615000010        -9.13062692E-03
  0.615999997        -9.35590453E-03
  0.616999984        -9.54992324E-03
  0.617999971        -9.70904622E-03
  0.619000018        -9.82970186E-03
  0.620000005        -9.90842935E-03
  0.620999992        -9.94192716E-03
  0.621999979        -9.92709771E-03
  0.623000026        -9.86109767E-03
  0.624000013        -9.74138267E-03
  0.625000000        -9.56575759E-03
  0.625999987        -9.33241658E-03
  0.626999974        -9.03998408E-03
  0.628000021        -8.68755952E-03
  0.629000008        -8.27474333E-03
  0.629999995        -7.80167244E-03
  0.630999982        -7.26903742E-03
  0.632000029        -6.67810300E-03
  0.633000016        -6.03071786E-03
  0.634000003        -5.32931415E-03
  0.634999990        -4.57690749E-03
  0.635999978        -3.77708045E-03
  0.637000024        -2.93396506E-03
  0.638000011        -2.05221353E-03
  0.638999999        -1.13696128E-03
  0.639999986        -1.93784013E-04
  0.640999973         7.71351974E-04
  0.642000020         1.75214733E-03
  0.643000007         2.74203066E-03
  0.643999994         3.73422541E-03
  0.644999981         4.72182129E-03
  0.646000028         5.69784734E-03
  0.647000015         6.65534846E-03
  0.648000002         7.58746127E-03
  0.648999989         8.48749094E-03
  0.649999976         9.34898388E-03
  0.651000023         1.01658022E-02
  0.652000010         1.09321885E-02
  0.652999997         1.16428323E-02
  0.653999984         1.22929253E-02
  0.654999971         1.28782149E-02
  0.656000018         1.33950477E-02
  0.657000005         1.38404034E-02
  0.657999992         1.42119229E-02
  0.658999979         1.45079317E-02
  0.660000026         1.47274407E-02
  0.661000013         1.48701556E-02
  0.662000000         1.49364658E-02
  0.662999988         1.49274282E-02
  0.663999975         1.48447407E-02
  0.665000021         1.46907102E-02
  0.666000009         1.44682163E-02
  0.666999996         1.41806602E-02
  0.667999983         1.38319191E-02
  0.669000030         1.34262880E-02
  0.670000017         1.29684163E-02
  0.671000004         1.24632539E-02
  0.671999991         1.19159790E-02
  0.672999978         1.13319401E-02
  0.674000025         1.07165910E-02
  0.675000012         1.00754257E-02
  0.675999999         9.41391848E-03
  0.676999986         8.73746537E-03
  0.677999973         8.05133302E-03
  0.679000020         7.36060832E-03
  0.680000007         6.67015091E-03
  0.680999994         5.98455593E-03
  0.681999981         5.30811725E-03
  0.683000028         4.64479998E-03
  0.684000015         3.99821671E-03
  0.685000002         3.37161287E-03
  0.685999990         2.76785111E-03
  0.686999977         2.18940992E-03
  0.688000023         1.63837906E-03
  0.689000010         1.11646531E-03