 -0.12000000000000000          0.0000000000000000     
 -0.11889999999999999          0.0000000000000000     
 -0.11780000000000000          0.0000000000000000     
 -0.11670000000000000          0.0000000000000000     
 -0.11559999999999999          0.0000000000000000     
 -0.11449999999999999          0.0000000000000000     
 -0.11340000000000000          0.0000000000000000     
 -0.11230000000000000          0.0000000000000000     
 -0.11119999999999999          0.0000000000000000     
 -0.11009999999999999          0.0000000000000000     
 -0.10900000000000000          0.0000000000000000     
 -0.10790000000000000          0.0000000000000000     
 -0.10679999999999999          0.0000000000000000     
 -0.10569999999999999          0.0000000000000000     
 -0.10460000000000000          0.0000000000000000     
 -0.10349999999999999          0.0000000000000000     
 -0.10239999999999999          0.0000000000000000     
 -0.10130000000000000          0.0000000000000000     
 -0.10020000000000000          0.0000000000000000     
  -9.9099999999999994E-002     0.0000000000000000     
  -9.7999999999999990E-002     0.0000000000000000     
  -9.6899999999999986E-002     0.0000000000000000     
  -9.5799999999999996E-002     0.0000000000000000     
  -9.4699999999999993E-002     0.0000000000000000     
  -9.3599999999999989E-002     0.0000000000000000     
  -9.2499999999999999E-002     0.0000000000000000     
  -9.1399999999999995E-002     0.0000000000000000     
  -9.0299999999999991E-002     0.0000000000000000     
  -8.9200000000000002E-002     0.0000000000000000     
  -8.8099999999999984E-002     0.0000000000000000     
  -8.6999999999999994E-002     0.0000000000000000     
  -8.5899999999999990E-002     0.0000000000000000     
  -8.4799999999999986E-002     0.0000000000000000     
  -8.3699999999999997E-002     0.0000000000000000     
  -8.2599999999999993E-002     0.0000000000000000     
  -8.1499999999999989E-002     0.0000000000000000     
  -8.0399999999999999E-002     0.0000000000000000     
  -7.9299999999999995E-002     0.0000000000000000     
  -7.8199999999999992E-002     0.0000000000000000     
  -7.7100000000000002E-002     0.0000000000000000     
  -7.5999999999999984E-002     0.0000000000000000     
  -7.4899999999999994E-002     0.0000000000000000     
  -7.3799999999999991E-002     0.0000000000000000     
  -7.2699999999999987E-002     0.0000000000000000     
  -7.1599999999999997E-002     0.0000000000000000     
  -7.0499999999999993E-002     0.0000000000000000     
  -6.9399999999999989E-002     0.0000000000000000     
  -6.8300000000000000E-002     0.0000000000000000     
  -6.7199999999999996E-002     0.0000000000000000     
  -6.6099999999999992E-002     0.0000000000000000     
  -6.5000000000000002E-002     0.0000000000000000     
  -6.3899999999999985E-002     0.0000000000000000     
  -6.2799999999999995E-002     0.0000000000000000     
  -6.1699999999999991E-002     0.0000000000000000     
  -6.0599999999999994E-002     0.0000000000000000     
  -5.9499999999999990E-002     0.0000000000000000     
  -5.8399999999999994E-002     0.0000000000000000     
  -5.7299999999999990E-002     0.0000000000000000     
  -5.6199999999999986E-002     0.0000000000000000     
  -5.5099999999999996E-002     0.0000000000000000     
  -5.3999999999999992E-002     0.0000000000000000     
  -5.2899999999999989E-002     0.0000000000000000     
  -5.1799999999999985E-002     0.0000000000000000     
  -5.0699999999999995E-002     0.0000000000000000     
  -4.9599999999999991E-002     0.0000000000000000     
  -4.8499999999999988E-002     0.0000000000000000     
  -4.7399999999999998E-002     0.0000000000000000     
  -4.6299999999999994E-002     0.0000000000000000     
  -4.5199999999999990E-002     0.0000000000000000     
  -4.4099999999999986E-002     0.0000000000000000     
  -4.2999999999999997E-002     0.0000000000000000     
  -4.1899999999999993E-002     0.0000000000000000     
  -4.0799999999999989E-002     0.0000000000000000     
  -3.9699999999999985E-002     0.0000000000000000     
  -3.8599999999999995E-002     0.0000000000000000     
  -3.7499999999999992E-002     0.0000000000000000     
  -3.6399999999999988E-002     0.0000000000000000     
  -3.5299999999999984E-002     0.0000000000000000     
  -3.4199999999999994E-002     0.0000000000000000     
  -3.3099999999999991E-002     0.0000000000000000     
  -3.1999999999999987E-002     0.0000000000000000     
  -3.0899999999999997E-002     0.0000000000000000     
  -2.9799999999999993E-002     0.0000000000000000     
  -2.8699999999999989E-002     0.0000000000000000     
  -2.7599999999999986E-002     0.0000000000000000     
  -2.6499999999999996E-002    -6.1164968576735786E-044
  -2.5399999999999992E-002    -3.3996176871187692E-043
  -2.4299999999999988E-002    -8.6055282487831736E-040
  -2.3199999999999985E-002    -3.9994475158611031E-042
  -2.2099999999999995E-002     5.2726335744713713E-039
  -2.0999999999999991E-002     1.5422148342309902E-038
  -1.9899999999999987E-002     2.1217497263601246E-038
  -1.8799999999999983E-002    -7.7856663326123626E-039
  -1.7699999999999994E-002    -8.6885454351019293E-038
  -1.6599999999999990E-002    -1.9281872627732964E-037
  -1.5499999999999986E-002    -2.3767520815629817E-037
  -1.4399999999999996E-002    -1.9294895375660641E-038
  -1.3299999999999992E-002     6.1021556381604491E-037
  -1.2199999999999989E-002     1.6277670893281195E-036
  -1.1099999999999985E-002     2.5394713990387984E-036
  -9.9999999999999950E-003     2.2284483371926719E-036
  -8.8999999999999913E-003    -8.3677020695444820E-037
  -7.7999999999999875E-003    -7.5668994158311754E-036
  -6.6999999999999837E-003    -1.6463827680041868E-035
  -5.5999999999999939E-003    -2.1733251630859110E-035
  -4.4999999999999901E-003    -1.3101952195625473E-035
  -3.3999999999999864E-003     2.0194991999623901E-035
  -2.2999999999999826E-003     7.9627475031723606E-035
  -1.1999999999999927E-003     1.4368382798721919E-034
  -9.9999999999988987E-005     1.5833289099040451E-034
   1.0000000000000148E-003     4.5875409992046162E-035
   2.1000000000000185E-003    -2.5310775093433544E-034
   3.2000000000000084E-003    -7.0269405694512694E-034
   4.3000000000000121E-003    -1.0871421090085231E-033
   5.4000000000000159E-003    -9.8629574289245056E-034
   6.5000000000000058E-003     9.6701378766560514E-035
   7.6000000000000234E-003     2.3912356688285339E-033
   8.7000000000000133E-003     5.3511788112461501E-033
   9.8000000000000032E-003     7.2366090289727694E-033
   1.0900000000000021E-002     5.2424277652253149E-033
   1.2000000000000011E-002    -3.3348200334978402E-033
   1.3100000000000001E-002    -1.8744717341391788E-032
   1.4200000000000018E-002    -3.5928225621911405E-032
   1.5300000000000008E-002    -4.2971995393981666E-032
   1.6400000000000026E-002    -2.3486054227543544E-032
   1.7500000000000016E-002     3.4986508477809979E-032
   1.8600000000000005E-002     1.2712512106409217E-031
   1.9700000000000023E-002     2.1604783205638148E-031
   2.0800000000000013E-002     2.3041334795254129E-031
   2.1900000000000003E-002     8.5223617092796537E-032
   2.3000000000000020E-002    -2.6690311358441287E-031
   2.4100000000000010E-002    -7.6411077736933464E-031
   2.5200000000000000E-002    -1.1782442491596149E-030
   2.6300000000000018E-002    -1.1283259375250385E-030
   2.7400000000000008E-002    -2.1875907918482458E-031
   2.8500000000000025E-002     1.6870417034067043E-030
   2.9600000000000015E-002     4.1363391220522265E-030
   3.0700000000000005E-002     5.8883542526627755E-030
   3.1800000000000023E-002     5.1026473234606616E-030
   3.2900000000000013E-002     1.1124187715126513E-031
   3.4000000000000002E-002    -9.2762215551758662E-030
   3.5100000000000020E-002    -2.0399952170051299E-029
   3.6200000000000010E-002    -2.7202424755976332E-029
   3.7300000000000028E-002    -2.1548822409897866E-029
   3.8400000000000017E-002     2.9875883725485895E-030
   3.9500000000000007E-002     4.5479647145755072E-029
   4.0600000000000025E-002     9.2463643268926264E-029
   4.1700000000000015E-002     1.1701351615815304E-028
   4.2800000000000005E-002     8.5916189543646865E-029
   4.3900000000000022E-002    -2.3657875013337686E-029
   4.5000000000000012E-002    -2.0175540618281676E-028
   4.6100000000000002E-002    -3.8772496508742435E-028
   4.7200000000000020E-002    -4.7145862634187930E-028
   4.8300000000000010E-002    -3.2666960878688192E-028
   4.9400000000000027E-002     1.2215458317953241E-028
   5.0500000000000017E-002     8.1749620400814202E-028
   5.1600000000000007E-002     1.5117118444579157E-027
   5.2700000000000025E-002     1.7872889028519550E-027
   5.3800000000000014E-002     1.1938703433846131E-027
   5.4900000000000004E-002    -5.0386964409692921E-028
   5.6000000000000022E-002    -3.0444428652172765E-027
   5.7100000000000012E-002    -5.5005646567877871E-027
   5.8200000000000002E-002    -6.3951504553689231E-027
   5.9300000000000019E-002    -4.2129365507248929E-027
   6.0400000000000009E-002     1.7466857804007509E-027
   6.1500000000000027E-002     1.0463130191563342E-026
   6.2600000000000017E-002     1.8726234356542573E-026
   6.3700000000000007E-002     2.1636879172240665E-026
   6.4800000000000024E-002     1.4362124165372518E-026
   6.5900000000000014E-002    -5.1205634861194219E-027
   6.7000000000000004E-002    -3.3268556527283764E-026
   6.8100000000000022E-002    -5.9746181730618649E-026
   6.9200000000000012E-002    -6.9262833886254962E-026
   7.0300000000000029E-002    -4.7155495750107182E-026
   7.1400000000000019E-002     1.2310669878601591E-026
   7.2500000000000009E-002     9.7997806259049133E-026
   7.3600000000000027E-002     1.7881555586167110E-025
   7.4700000000000016E-002     2.0972664023175347E-025
   7.5800000000000006E-002     1.4832231998707797E-025
   7.6900000000000024E-002    -2.1478776160816115E-026
   7.8000000000000014E-002    -2.6760444188486567E-025
   7.9100000000000004E-002    -5.0234816212023891E-025
   8.0200000000000021E-002    -6.0023547122675927E-025
   8.1300000000000011E-002    -4.4422100068186648E-025
   8.2400000000000029E-002     1.0219642415938664E-026
   8.3500000000000019E-002     6.7780458726032599E-025
   8.4600000000000009E-002     1.3256683044734889E-024
   8.5700000000000026E-002     1.6224689584269933E-024
   8.6800000000000016E-002     1.2598447947441588E-024
   8.7900000000000006E-002     1.1713282419677513E-025
   8.9000000000000024E-002    -1.5946896854471209E-024
   9.0100000000000013E-002    -3.2914408636836253E-024
   9.1200000000000003E-002    -4.1418276889736268E-024
   9.2300000000000021E-002    -3.3701547025279629E-024
   9.3400000000000011E-002    -6.5996625793949550E-025
   9.4500000000000028E-002     3.4990210961695430E-024
   9.5600000000000018E-002     7.7153094617410038E-024
   9.6700000000000008E-002     1.0001071990220625E-023
   9.7800000000000026E-002     8.4911424876514473E-024
   9.8900000000000016E-002     2.3898249291477998E-024
  0.10000000000000001         -7.2250338810556272E-024
  0.10110000000000002         -1.7186387472550825E-023
  0.10220000000000001         -2.2942467532045816E-023
  0.10330000000000003         -2.0193928040701318E-023
  0.10440000000000002         -7.0301033796984646E-024
  0.10550000000000001          1.4272094871613144E-023
  0.10660000000000003          3.6771603001782850E-023
  0.10770000000000002          5.0422568064658471E-023
  0.10880000000000001          4.5670509820198320E-023
  0.10990000000000003          1.8116200281968644E-023
  0.11100000000000002         -2.7576215917141936E-023
  0.11210000000000001         -7.6639422057333904E-023
  0.11320000000000002         -1.0753248749437567E-022
  0.11430000000000001         -9.9605560843599048E-023
  0.11540000000000003         -4.3015956942251550E-023
  0.11650000000000002          5.2960395801119657E-023
  0.11760000000000001          1.5764516535548570E-022
  0.11870000000000003          2.2581414603841012E-022
  0.11980000000000002          2.1360602083601419E-022
  0.12090000000000001          9.9170271061475807E-023
  0.12200000000000003         -9.9880854069420617E-023
  0.12310000000000001         -3.2129540760873289E-022
  0.12420000000000003         -4.7169555575100788E-022
  0.12530000000000002         -4.5872992966159784E-022
  0.12640000000000001         -2.3329425729496265E-022
  0.12750000000000003          1.7407275587164758E-022
  0.12860000000000002          6.4092962825213737E-022
  0.12970000000000001          9.7800932621922769E-022
  0.13080000000000003          9.9218794595255962E-022
  0.13190000000000002          5.7110301600549304E-022
  0.13300000000000001         -2.4147669789901570E-022
  0.13410000000000000         -1.2157589784404210E-021
  0.13520000000000004         -1.9785842798401867E-021
  0.13630000000000003         -2.1318528474199145E-021
  0.13740000000000002         -1.4176527614863243E-021
  0.13850000000000001          1.2793226518079602E-022
  0.13960000000000000          2.1023071920267423E-021
  0.14070000000000005          3.8000081120464389E-021
  0.14180000000000004          4.4242068905130574E-021
  0.14290000000000003          3.3974924734051394E-021
  0.14400000000000002          6.6731510621296897E-022
  0.14510000000000001         -3.1249736687719300E-021
  0.14620000000000000         -6.7201219348778120E-021
  0.14730000000000004         -8.5959306322709774E-021
  0.14840000000000003         -7.5262602975494786E-021
  0.14950000000000002         -3.1637291887495446E-021
  0.15060000000000001          3.5906785836800055E-021
  0.15170000000000000          1.0638933352379207E-020
  0.15280000000000005          1.5242501985189686E-020
  0.15390000000000004          1.4978811522534914E-020
  0.15500000000000003          8.8002944420396496E-021
  0.15610000000000002         -2.2158412486756458E-021
  0.15720000000000001         -1.4809210724473903E-020
  0.15830000000000000         -2.4355376904970394E-020
  0.15940000000000004         -2.6429104782129407E-020
  0.16050000000000003         -1.8639736955335494E-020
  0.16160000000000002         -2.0458485201543780E-021
  0.16270000000000001          1.8527662170272410E-020
  0.16380000000000000          3.5646053052914895E-020
  0.16490000000000005          4.1745915310234561E-020
  0.16600000000000004          3.2210274167252396E-020
  0.16710000000000003          7.8973018905511574E-021
  0.16820000000000002         -2.4046013531222287E-020
  0.16930000000000001         -5.1803794301269007E-020
  0.17040000000000000         -6.2814116319387627E-020
  0.17150000000000004         -4.8878739308503088E-020
  0.17260000000000003         -1.0599339418145651E-020
  0.17370000000000002          4.0861701557393234E-020
  0.17480000000000001          8.6043901065563598E-020
  0.17590000000000000          1.0346491678639581E-019
  0.17700000000000005          7.8240072424543166E-020
  0.17810000000000004          1.0024285386535151E-020
  0.17920000000000003         -8.3164719522809078E-020
  0.18030000000000002         -1.6779601166793882E-019
  0.18140000000000001         -2.0477812054497821E-019
  0.18250000000000000         -1.6416900077683754E-019
  0.18360000000000004         -3.9841434815995576E-020
  0.18470000000000003          1.4178485054236922E-019
  0.18580000000000002          3.2382312820359123E-019
  0.18690000000000001          4.3353671978016705E-019
  0.18800000000000000          4.0670633110587000E-019
  0.18910000000000005          2.1456532207074940E-019
  0.19020000000000004         -1.1642703003439679E-019
  0.19130000000000003         -5.0105819865365289E-019
  0.19240000000000002         -8.1293397172667038E-019
  0.19350000000000001         -9.2110461223233585E-019
  0.19460000000000005         -7.3623046028791207E-019
  0.19570000000000004         -2.5142111638717134E-019
  0.19680000000000003          4.3797210145090147E-019
  0.19790000000000002          1.1465967862422103E-018
  0.19900000000000001          1.6448235262484260E-018
  0.20010000000000000          1.7277762040218864E-018
  0.20120000000000005          1.2876614212589655E-018
  0.20230000000000004          3.6518862987752708E-019
  0.20340000000000003         -8.4038278909501886E-019
  0.20450000000000002         -2.0115879655009959E-018
  0.20560000000000000         -2.7964475155025234E-018
  0.20670000000000005         -2.9129305200425727E-018
  0.20780000000000004         -2.2422062368086733E-018
  0.20890000000000003         -8.7941416757351396E-019
  0.21000000000000002          8.7770000489365121E-019
  0.21110000000000001          2.6025498894804016E-018
  0.21220000000000000          3.8552388892714269E-018
  0.21330000000000005          4.3042372829278982E-018
  0.21440000000000003          3.8153845495295891E-018
  0.21550000000000002          2.4799677765448831E-018
  0.21660000000000001          5.7488807881067525E-019
  0.21770000000000000         -1.5275487169704850E-018
  0.21880000000000005         -3.4642477391445203E-018
  0.21990000000000004         -4.9597853707925376E-018
  0.22100000000000003         -5.8503229656409336E-018
  0.22210000000000002         -6.0498476785260621E-018
  0.22320000000000001         -5.4844052628967642E-018
  0.22430000000000000         -4.0400231681284460E-018
  0.22540000000000004         -1.5708556522200967E-018
  0.22650000000000003          2.0080537692908789E-018
  0.22760000000000002          6.5589111012984306E-018
  0.22870000000000001          1.1549471069635048E-017
  0.22980000000000000          1.5960073413408031E-017
  0.23090000000000005          1.8356676328611196E-017
  0.23200000000000004          1.7177814401137293E-017
  0.23310000000000003          1.1212375020283842E-017
  0.23420000000000002          1.6178410815895022E-019
  0.23530000000000001         -1.4886672908228950E-017
  0.23640000000000000         -3.1270928586027557E-017
  0.23750000000000004         -4.5004710182713251E-017
  0.23860000000000003         -5.1519722448966527E-017
  0.23970000000000002         -4.6807427089946210E-017
  0.24080000000000001         -2.8721589724378519E-017
  0.24190000000000000          1.9011909792359824E-018
  0.24300000000000005          4.0667883073252280E-017
  0.24410000000000004          7.9887536310269777E-017
  0.24520000000000003          1.0977321839095631E-016
  0.24630000000000002          1.2046563137722972E-016
  0.24740000000000001          1.0451873212935514E-016
  0.24850000000000005          5.9307096628648182E-017
  0.24960000000000004         -1.1257870580701114E-017
  0.25070000000000003         -9.6249855771283297E-017
  0.25180000000000002         -1.7883166204638031E-016
  0.25290000000000001         -2.3897597210189486E-016
  0.25400000000000000         -2.5747636968447413E-016
  0.25510000000000005         -2.2057886413385199E-016
  0.25620000000000004         -1.2430947306274309E-016
  0.25730000000000003          2.2529518738323114E-017
  0.25840000000000002          1.9762979123978608E-016
  0.25950000000000001          3.6734214123419121E-016
  0.26060000000000005          4.9186337978335558E-016
  0.26170000000000004          5.3293325614575535E-016
  0.26280000000000003          4.6285577379919639E-016
  0.26390000000000002          2.7309229881465410E-016
  0.26500000000000001         -1.9632493245014173E-017
  0.26610000000000000         -3.7167058909273312E-016
  0.26720000000000005         -7.1660933943545016E-016
  0.26830000000000004         -9.7556248802979264E-016
  0.26940000000000003         -1.0725213058903255E-015
  0.27050000000000002         -9.5224957904909180E-016
  0.27160000000000001         -5.9705755834379809E-016
  0.27270000000000005         -3.8300185225407061E-017
  0.27380000000000004          6.4112766415168566E-016
  0.27490000000000003          1.3155892617986199E-015
  0.27600000000000002          1.8368307905529317E-015
  0.27710000000000001          2.0627987139920698E-015
  0.27820000000000000          1.8900425874494823E-015
  0.27930000000000005          1.2829624882828867E-015
  0.28040000000000004          2.9287486737571711E-016
  0.28150000000000003         -9.3882019754684996E-016
  0.28260000000000002         -2.1963086623924943E-015
  0.28370000000000001         -3.2230668032970204E-015
  0.28480000000000005         -3.7688422781729290E-015
  0.28590000000000004         -3.6418562239743990E-015
  0.28700000000000003         -2.7562544381003722E-015
  0.28810000000000002         -1.1647858824157486E-015
  0.28920000000000001          9.3141797674373525E-016
  0.29030000000000000          3.2005470054137560E-015
  0.29140000000000005          5.2252635459885218E-015
  0.29250000000000004          6.5703015107350433E-015
  0.29360000000000003          6.8629945686000479E-015
  0.29470000000000002          5.8737784987215902E-015
  0.29580000000000001          3.5820074564327478E-015
  0.29690000000000005          2.1281767517035668E-016
  0.29800000000000004         -3.7663588042840631E-015
  0.29910000000000003         -7.6957082628940665E-015
  0.30020000000000002         -1.0817893641108443E-014
  0.30130000000000001         -1.2407501370071455E-014
  0.30240000000000000         -1.1915826868016654E-014
  0.30350000000000005         -9.1048966818204929E-015
  0.30460000000000004         -4.1417484198375524E-015
  0.30570000000000003          2.3729595433374803E-015
  0.30680000000000002          9.4584529706301413E-015
  0.30790000000000001          1.5890621878370820E-014
  0.30900000000000005          2.0405036447057467E-014
  0.31010000000000004          2.1931921706457274E-014
  0.31120000000000003          1.9817422095343583E-014
  0.31230000000000002          1.3983826436041141E-014
  0.31340000000000001          4.9912078277489812E-015
  0.31450000000000006         -6.0169644308567454E-015
  0.31560000000000005         -1.7476025862598575E-014
  0.31670000000000004         -2.7637311535573494E-014
  0.31780000000000003         -3.4831485346903766E-014
  0.31890000000000002         -3.7706513092558622E-014
  0.32000000000000001         -3.5401122574883034E-014
  0.32110000000000005         -2.7637864789964073E-014
  0.32220000000000004         -1.4745798329922058E-014
  0.32330000000000003          2.3582713580144916E-015
  0.32440000000000002          2.2197963423332906E-014
  0.32550000000000001          4.2758351134581374E-014
  0.32660000000000006          6.1513460124489537E-014
  0.32770000000000005          7.5506593729178352E-014
  0.32880000000000004          8.1550451276712505E-014
  0.32990000000000003          7.6606806806226696E-014
  0.33100000000000002          5.8364544897259865E-014
  0.33210000000000001          2.5963742861157854E-014
  0.33320000000000005         -1.9269637847293775E-014
  0.33430000000000004         -7.3281650103509996E-014
  0.33540000000000003         -1.2916735214729428E-013
  0.33650000000000002         -1.7765147393671117E-013
  0.33760000000000001         -2.0824541406350858E-013
  0.33870000000000006         -2.1099123282270417E-013
  0.33980000000000005         -1.7852854637337291E-013
  0.34090000000000004         -1.0808525936427935E-013
  0.34200000000000003         -2.9414976179320009E-015
  0.34310000000000002          1.2702188518074745E-013
  0.34420000000000001          2.6590970684476619E-013
  0.34530000000000005          3.9351596121065511E-013
  0.34640000000000004          4.8788433342708870E-013
  0.34750000000000003          5.2829037113738236E-013
  0.34860000000000002          4.9815872049575220E-013
  0.34970000000000001          3.8751599330414688E-013
  0.35080000000000006          1.9477325067086427E-013
  0.35190000000000005         -7.2144072682327330E-014
  0.35300000000000004         -3.9514298814192076E-013
  0.35410000000000003         -7.4560703270994591E-013
  0.35520000000000002         -1.0843430092835929E-012
  0.35630000000000001         -1.3621713680109184E-012
  0.35740000000000005         -1.5218752750879672E-012
  0.35850000000000004         -1.5024619259790086E-012
  0.35960000000000003         -1.2466226982880652E-012
  0.36070000000000002         -7.1178181136613173E-013
  0.36180000000000001          1.1582340147912419E-013
  0.36290000000000006          1.2058344682825802E-012
  0.36400000000000005          2.4703361982482770E-012
  0.36510000000000004          3.7563655063483292E-012
  0.36620000000000003          4.8487012143236190E-012
  0.36730000000000002          5.4865637989916593E-012
  0.36840000000000006          5.3960087533137698E-012
  0.36950000000000005          4.3369976563677737E-012
  0.37060000000000004          2.1606877912221808E-012
  0.37170000000000003         -1.1310109175758926E-012
  0.37280000000000002         -5.3344180798786057E-012
  0.37390000000000001         -1.0013944018958458E-011
  0.37500000000000006         -1.4504819456090146E-011
  0.37610000000000005         -1.7958088124996616E-011
  0.37720000000000004         -1.9432377058776656E-011
  0.37830000000000003         -1.8030057158926510E-011
  0.37940000000000002         -1.3067170453131056E-011
  0.38050000000000006         -4.2578052936585633E-012
  0.38160000000000005          8.1142400496931952E-012
  0.38270000000000004          2.3069201683774883E-011
  0.38380000000000003          3.8885008260950779E-011
  0.38490000000000002          5.3161988819484263E-011
  0.38600000000000001          6.3020325646171865E-011
  0.38710000000000000          6.5436182333280855E-011
  0.38819999999999999          5.7700999260233470E-011
  0.38930000000000009          3.7963626587890448E-011
  0.39040000000000008          5.7895536042778398E-012
  0.39150000000000007         -3.7349886561871250E-011
  0.39260000000000006         -8.7758297227123823E-011
  0.39370000000000005         -1.3946449444875365E-010
  0.39480000000000004         -1.8452481844000348E-010
  0.39590000000000003         -2.1372498547086508E-010
  0.39700000000000002         -2.1767751112672452E-010
  0.39810000000000001         -1.8824686390950328E-010
  0.39920000000000000         -1.2016624204541806E-010
  0.40029999999999999         -1.2646700285003527E-011
  0.40140000000000009          1.2926846147879819E-010
  0.40250000000000008          2.9387141905641554E-010
  0.40360000000000007          4.6273377265092915E-010
  0.40470000000000006          6.1162637180087957E-010
  0.40580000000000005          7.1252126604249271E-010
  0.40690000000000004          7.3665234103097663E-010
  0.40800000000000003          6.5845768207174604E-010
  0.40910000000000002          4.6006501599558142E-010
  0.41020000000000001          1.3582966857180941E-010
  0.41130000000000000         -3.0368273463888687E-010
  0.41239999999999999         -8.2894015600409780E-010
  0.41350000000000009         -1.3905741945902659E-009
  0.41460000000000008         -1.9209538740230522E-009
  0.41570000000000007         -2.3385696502185213E-009
  0.41680000000000006         -2.5553076224511852E-009
  0.41790000000000005         -2.4863464235024126E-009
  0.41900000000000004         -2.0620192681753146E-009
  0.42010000000000003         -1.2405964478792426E-009
  0.42120000000000002         -2.0623903288353313E-011
  0.42230000000000001          1.5487744476179647E-009
  0.42340000000000000          3.3612780523372373E-009
  0.42449999999999999          5.2519639837263941E-009
  0.42560000000000009          7.0023069831764846E-009
  0.42670000000000008          8.3522666129857793E-009
  0.42780000000000007          9.0194660287379941E-009
  0.42890000000000006          8.7247140429457998E-009
  0.43000000000000005          7.2223730213243686E-009
  0.43110000000000004          4.3333970955343735E-009
  0.43220000000000003         -2.1601335994908707E-011
  0.43330000000000002         -5.7920966878140307E-009
  0.43440000000000001         -1.2772926551956401E-008
  0.43550000000000000         -2.0587347704586863E-008
  0.43659999999999999         -2.8679295543999432E-008
  0.43770000000000009         -3.6315167317450652E-008
  0.43880000000000008         -4.2594134956374757E-008
  0.43990000000000007         -4.6464628412060816E-008
  0.44100000000000006         -4.6743226984497252E-008
  0.44210000000000005         -4.2131073162118859E-008
  0.44320000000000004         -3.1221963195398310E-008
  0.44430000000000003         -1.2495874379396514E-008
  0.44540000000000002          1.5708494118129057E-008
  0.44650000000000001          5.5248146761843502E-008
  0.44760000000000000          1.0826245787453424E-007
  0.44869999999999999          1.7729604788329256E-007
  0.44980000000000009          2.6546111477729774E-007
  0.45090000000000008          3.7664076149375983E-007
  0.45200000000000007          5.1573447751577807E-007
  0.45310000000000006          6.8894550086442494E-007
  0.45420000000000005          9.0411172129841692E-007
  0.45530000000000004          1.1710802157468870E-006
  0.45640000000000003          1.5021274612505828E-006
  0.45750000000000002          1.9124320570346613E-006
  0.45860000000000001          2.4206037047777940E-006
  0.45970000000000000          3.0492817615766346E-006
  0.46079999999999999          3.8258131554760429E-006
  0.46190000000000009          4.7830258784639969E-006
  0.46300000000000008          5.9601169036934760E-006
  0.46410000000000007          7.4036737171347420E-006
  0.46520000000000006          9.1688464322352787E-006
  0.46630000000000005          1.1320696435809780E-005
  0.46740000000000004          1.3935726331328190E-005
  0.46850000000000003          1.7103627875540458E-005
  0.46960000000000002          2.0929237733019711E-005
  0.47070000000000001          2.5534729813650617E-005
  0.47180000000000000          3.1062023693358820E-005
  0.47289999999999999          3.7675435362922946E-005
  0.47400000000000009          4.5564530430599576E-005
  0.47510000000000008          5.4947209181976808E-005
  0.47620000000000007          6.6072949309867234E-005
  0.47730000000000006          7.9226211775699004E-005
  0.47840000000000005          9.4729970584358348E-005