-0.1200000E+00  0.0000000E+00
-0.1189000E+00  0.0000000E+00
-0.1178000E+00  0.0000000E+00
-0.1167000E+00  0.0000000E+00
-0.1156000E+00  0.0000000E+00
-0.1145000E+00  0.0000000E+00
-0.1134000E+00  0.0000000E+00
-0.1123000E+00  0.0000000E+00
-0.1112000E+00  0.0000000E+00
-0.1101000E+00  0.0000000E+00
-0.1090000E+00  0.0000000E+00
-0.1079000E+00  0.0000000E+00
-0.1068000E+00  0.0000000E+00
-0.1057000E+00  0.0000000E+00
-0.1046000E+00  0.0000000E+00
-0.1035000E+00  0.0000000E+00
-0.1024000E+00  0.0000000E+00
-0.1013000E+00  0.0000000E+00
-0.1002000E+00  0.0000000E+00
-0.9910000E-01  0.0000000E+00
-0.9800000E-01  0.0000000E+00
-0.9690000E-01  0.0000000E+00
-0.9580000E-01  0.0000000E+00
-0.9470000E-01  0.0000000E+00
-0.9360000E-01  0.0000000E+00
-0.9250000E-01  0.0000000E+00
-0.9140000E-01  0.0000000E+00
-0.9030000E-01  0.0000000E+00
-0.8920000E-01  0.0000000E+00
-0.8810000E-01  0.0000000E+00
-0.8700000E-01  0.0000000E+00
-0.8590000E-01  0.0000000E+00
-0.8480000E-01  0.0000000E+00
-0.8370000E-01  0.0000000E+00
-0.8260000E-01  0.0000000E+00
-0.8150000E-01  0.0000000E+00
-0.8040000E-01  0.0000000E+00
-0.7930000E-01  0.0000000E+00
-0.7820000E-01  0.0000000E+00
-0.7710000E-01  0.0000000E+00
-0.7600000E-01  0.0000000E+00
-0.7490000E-01  0.0000000E+00
-0.7380000E-01  0.0000000E+00
-0.7270000E-01  0.0000000E+00
-0.7160000E-01  0.0000000E+00
-0.7050000E-01  0.0000000E+00
-0.6940000E-01  0.0000000E+00
-0.6830000E-01  0.0000000E+00
-0.6720000E-01  0.0000000E+00
-0.6610000E-01  0.0000000E+00
-0.6500000E-01  0.0000000E+00
-0.6390000E-01  0.0000000E+00
-0.6280000E-01  0.0000000E+00
-0.6170000E-01  0.0000000E+00
-0.6060000E-01  0.0000000E+00
-0.5950000E-01  0.0000000E+00
-0.5840000E-01  0.0000000E+00
-0.5730000E-01  0.0000000E+00
-0.5620000E-01  0.0000000E+00
-0.5510000E-01  0.0000000E+00
-0.5400000E-01  0.0000000E+00
-0.5290000E-01  0.0000000E+00
-0.5180000E-01  0.0000000E+00
-0.5070000E-01  0.0000000E+00
-0.4960000E-01  0.0000000E+00
-0.4850000E-01  0.0000000E+00
-0.4740000E-01  0.0000000E+00
-0.4630000E-01  0.0000000E+00
-0.4520000E-01  0.0000000E+00
-0.4410000E-01  0.0000000E+00
-0.4300000E-01  0.0000000E+00
-0.4190000E-01  0.0000000E+00
-0.4080000E-01  0.0000000E+00
-0.3970000E-01  0.0000000E+00
-0.3860000E-01  0.0000000E+00
-0.3750000E-01  0.0000000E+00
-0.3640000E-01  0.0000000E+00
-0.3530000E-01  0.0000000E+00
-0.3420000E-01  0.0000000E+00
-0.3310000E-01  0.0000000E+00
-0.3200000E-01  0.0000000E+00
-0.3090000E-01  0.0000000E+00
-0.2980000E-01  0.0000000E+00
-0.2870000E-01  0.0000000E+00
-0.2760000E-01  0.0000000E+00
-0.2650000E-01  0.0000000E+00
-0.2540000E-01  0.0000000E+00
-0.2430000E-01  0.0000000E+00
-0.2320000E-01  0.0000000E+00
-0.2210000E-01  0.0000000E+00
-0.2100000E-01  0.0000000E+00
-0.1990000E-01  0.0000000E+00
-0.1880000E-01  0.0000000E+00
-0.1770000E-01  0.0000000E+00
-0.1660000E-01  0.0000000E+00
-0.1550000E-01  0.0000000E+00
-0.1440000E-01  0.0000000E+00
-0.1330000E-01  0.0000000E+00
-0.1220000E-01  0.0000000E+00
-0.1110000E-01  0.0000000E+00
-0.1000000E-01  0.0000000E+00
-0.8900000E-02  0.0000000E+00
-0.7800000E-02  0.0000000E+00
-0.6700000E-02  0.0000000E+00
-0.5600000E-02  0.0000000E+00
-0.4500000E-02  0.0000000E+00
-0.3400000E-02  0.0000000E+00
-0.2300000E-02  0.0000000E+00
-0.1200000E-02  0.0000000E+00
-0.1000000E-03  0.0000000E+00
 0.1000000E-02  0.0000000E+00
 0.2100000E-02  0.0000000E+00
 0.3200000E-02  0.0000000E+00
 0.4300000E-02  0.0000000E+00
 0.5400000E-02  0.0000000E+00
 0.6500000E-02  0.0000000E+00
 0.7600000E-02  0.0000000E+00
 0.8700000E-02  0.0000000E+00
 0.9800000E-02  0.0000000E+00
 0.1090000E-01  0.0000000E+00
 0.1200000E-01  0.0000000E+00
 0.1310000E-01  0.0000000E+00
 0.1420000E-01  0.0000000E+00
 0.1530000E-01  0.0000000E+00
 0.1640000E-01  0.0000000E+00
 0.1750000E-01  0.0000000E+00
 0.1860000E-01  0.0000000E+00
 0.1970000E-01  0.0000000E+00
 0.2080000E-01  0.0000000E+00
 0.2190000E-01  0.0000000E+00
 0.2300000E-01  0.0000000E+00
 0.2410000E-01  0.0000000E+00
 0.2520000E-01  0.0000000E+00
 0.2630000E-01  0.0000000E+00
 0.2740000E-01  0.0000000E+00
 0.2850000E-01  0.0000000E+00
 0.2960000E-01  0.0000000E+00
 0.3070000E-01  0.0000000E+00
 0.3180000E-01  0.0000000E+00
 0.3290000E-01  0.0000000E+00
 0.3400000E-01  0.0000000E+00
 0.3510000E-01  0.0000000E+00
 0.3620000E-01  0.0000000E+00
 0.3730000E-01  0.0000000E+00
 0.3840000E-01  0.0000000E+00
 0.3950000E-01  0.0000000E+00
 0.4060000E-01  0.0000000E+00
 0.4170000E-01  0.0000000E+00
 0.4280000E-01  0.0000000E+00
 0.4390000E-01  0.0000000E+00
 0.4500000E-01  0.0000000E+00
 0.4610000E-01  0.0000000E+00
 0.4720000E-01  0.0000000E+00
 0.4830000E-01  0.0000000E+00
 0.4940000E-01  0.0000000E+00
 0.5050000E-01  0.0000000E+00
 0.5160000E-01  0.0000000E+00
 0.5270000E-01  0.0000000E+00
 0.5380000E-01  0.0000000E+00
 0.5490000E-01  0.0000000E+00
 0.5600000E-01  0.0000000E+00
 0.5710000E-01  0.0000000E+00
 0.5820000E-01  0.0000000E+00
 0.5930000E-01  0.0000000E+00
 0.6040000E-01  0.0000000E+00
 0.6150000E-01  0.0000000E+00
 0.6260000E-01  0.0000000E+00
 0.6370000E-01  0.0000000E+00
 0.6480000E-01  0.0000000E+00
 0.6590000E-01  0.0000000E+00
 0.6700000E-01  0.0000000E+00
 0.6810000E-01  0.0000000E+00
 0.6920000E-01  0.0000000E+00
 0.7030000E-01  0.0000000E+00
 0.7140000E-01  0.0000000E+00
 0.7250000E-01  0.0000000E+00
 0.7360000E-01  0.0000000E+00
 0.7470000E-01  0.0000000E+00
 0.7580000E-01  0.0000000E+00
 0.7690000E-01  0.0000000E+00
 0.7800000E-01  0.0000000E+00
 0.7910000E-01  0.0000000E+00
 0.8020000E-01  0.0000000E+00
 0.8130000E-01  0.0000000E+00
 0.8240000E-01  0.0000000E+00
 0.8350000E-01  0.0000000E+00
 0.8460000E-01  0.0000000E+00
 0.8570000E-01  0.0000000E+00
 0.8680000E-01  0.0000000E+00
 0.8790000E-01  0.0000000E+00
 0.8900000E-01  0.0000000E+00
 0.9010000E-01  0.0000000E+00
 0.9120000E-01  0.0000000E+00
 0.9230000E-01  0.0000000E+00
 0.9340000E-01  0.0000000E+00
 0.9450000E-01  0.0000000E+00
 0.9560000E-01  0.0000000E+00
 0.9670000E-01  0.0000000E+00
 0.9780000E-01  0.0000000E+00
 0.9890000E-01  0.0000000E+00
 0.1000000E+00  0.0000000E+00
 0.1011000E+00  0.0000000E+00
 0.1022000E+00  0.0000000E+00
 0.1033000E+00  0.0000000E+00
 0.1044000E+00  0.0000000E+00
 0.1055000E+00  0.0000000E+00
 0.1066000E+00  0.0000000E+00
 0.1077000E+00  0.0000000E+00
 0.1088000E+00  0.0000000E+00
 0.1099000E+00  0.0000000E+00
 0.1110000E+00  0.0000000E+00
 0.1121000E+00  0.0000000E+00
 0.1132000E+00  0.0000000E+00
 0.1143000E+00  0.0000000E+00
 0.1154000E+00  0.0000000E+00
 0.1165000E+00  0.0000000E+00
 0.1176000E+00  0.0000000E+00
 0.1187000E+00  0.0000000E+00
 0.1198000E+00  0.0000000E+00
 0.1209000E+00  0.0000000E+00
 0.1220000E+00  0.0000000E+00
 0.1231000E+00  0.0000000E+00
 0.1242000E+00  0.0000000E+00
 0.1253000E+00  0.0000000E+00
 0.1264000E+00  0.0000000E+00
 0.1275000E+00  0.0000000E+00
 0.1286000E+00  0.0000000E+00
 0.1297000E+00  0.0000000E+00
 0.1308000E+00  0.0000000E+00
 0.1319000E+00  0.0000000E+00
 0.1330000E+00  0.0000000E+00
 0.1341000E+00  0.0000000E+00
 0.1352000E+00  0.0000000E+00
 0.1363000E+00  0.0000000E+00
 0.1374000E+00  0.0000000E+00
 0.1385000E+00  0.0000000E+00
 0.1396000E+00  0.0000000E+00
 0.1407000E+00  0.0000000E+00
 0.1418000E+00  0.0000000E+00
 0.1429000E+00  0.0000000E+00
 0.1440000E+00  0.0000000E+00
 0.1451000E+00  0.0000000E+00
 0.1462000E+00  0.0000000E+00
 0.1473000E+00  0.0000000E+00
 0.1484000E+00  0.0000000E+00
 0.1495000E+00  0.0000000E+00
 0.1506000E+00  0.0000000E+00
 0.1517000E+00  0.0000000E+00
 0.1528000E+00  0.0000000E+00
 0.1539000E+00  0.0000000E+00
 0.1550000E+00  0.0000000E+00
 0.1561000E+00  0.0000000E+00
 0.1572000E+00  0.0000000E+00
 0.1583000E+00  0.0000000E+00
 0.1594000E+00  0.0000000E+00
 0.1605000E+00  0.0000000E+00
 0.1616000E+00  0.0000000E+00
 0.1627000E+00  0.0000000E+00
 0.1638000E+00  0.0000000E+00
 0.1649000E+00  0.0000000E+00
 0.1660000E+00  0.0000000E+00
 0.1671000E+00  0.0000000E+00
 0.1682000E+00  0.0000000E+00
 0.1693000E+00  0.0000000E+00
 0.1704000E+00  0.0000000E+00
 0.1715000E+00  0.0000000E+00
 0.1726000E+00  0.0000000E+00
 0.1737000E+00  0.0000000E+00
 0.1748000E+00  0.0000000E+00
 0.1759000E+00  0.0000000E+00
 0.1770000E+00  0.0000000E+00
 0.1781000E+00  0.0000000E+00
 0.1792000E+00  0.0000000E+00
 0.1803000E+00  0.0000000E+00
 0.1814000E+00  0.0000000E+00
 0.1825000E+00  0.0000000E+00
 0.1836000E+00  0.0000000E+00
 0.1847000E+00  0.0000000E+00
 0.1858000E+00  0.0000000E+00
 0.1869000E+00  0.0000000E+00
 0.1880000E+00  0.0000000E+00
 0.1891000E+00  0.0000000E+00
 0.1902000E+00  0.0000000E+00
 0.1913000E+00  0.0000000E+00
 0.1924000E+00  0.0000000E+00
 0.1935000E+00  0.0000000E+00
 0.1946000E+00  0.0000000E+00
 0.1957000E+00  0.0000000E+00
 0.1968000E+00  0.0000000E+00
 0.1979000E+00  0.0000000E+00
 0.1990000E+00  0.0000000E+00
 0.2001000E+00  0.0000000E+00
 0.2012000E+00  0.0000000E+00
 0.2023000E+00 -0.2109648E-37
 0.2034000E+00 -0.6478140E-37
 0.2045000E+00 -0.9503296E-37
 0.2056000E+00 -0.7376679E-37
 0.2067000E+00 -0.0000000E+00
 0.2078000E+00  0.1349513E-36
 0.2089000E+00  0.1982335E-36
 0.2100000E+00  0.8166665E-37
 0.2111000E+00 -0.2225750E-36
 0.2122000E+00 -0.5879060E-36
 0.2133000E+00 -0.7315491E-36
 0.2144000E+00 -0.4154037E-36
 0.2155000E+00  0.3610912E-36
 0.2166000E+00  0.1296906E-35
 0.2177000E+00  0.1837175E-35
 0.2188000E+00  0.1444215E-35
 0.2199000E+00 -0.4280640E-37
 0.2210000E+00 -0.2172726E-35
 0.2221000E+00 -0.3923809E-35
 0.2232000E+00 -0.4063350E-35
 0.2243000E+00 -0.1817035E-35
 0.2254000E+00  0.2493457E-35
 0.2265000E+00  0.7183279E-35
 0.2276000E+00  0.9624473E-35
 0.2287000E+00  0.7400661E-35
 0.2298000E+00 -0.1884759E-36
 0.2309000E+00 -0.1096249E-34
 0.2320000E+00 -0.1990762E-34
 0.2331000E+00 -0.2092733E-34
 0.2342000E+00 -0.9976532E-35
 0.2353000E+00  0.1166056E-34
 0.2364000E+00  0.3578916E-34
 0.2375000E+00  0.4922568E-34
 0.2386000E+00  0.3939593E-34
 0.2397000E+00  0.2110310E-35
 0.2408000E+00 -0.5235831E-34
 0.2419000E+00 -0.9919043E-34
 0.2430000E+00 -0.1074922E-33
 0.2441000E+00 -0.5603042E-34
 0.2452000E+00  0.5011567E-34
 0.2463000E+00  0.1714755E-33
 0.2474000E+00  0.2430887E-33
 0.2485000E+00  0.2021693E-33
 0.2496000E+00  0.2598700E-34
 0.2507000E+00 -0.2382416E-33
 0.2518000E+00 -0.4723118E-33
 0.2529000E+00 -0.5272900E-33
 0.2540000E+00 -0.2981435E-33
 0.2551000E+00  0.1971273E-33
 0.2562000E+00  0.7784258E-33
 0.2573000E+00  0.1143427E-32
 0.2584000E+00  0.9945135E-33
 0.2595000E+00  0.2132536E-33
 0.2606000E+00 -0.1000335E-32
 0.2617000E+00 -0.2118389E-32
 0.2628000E+00 -0.2461656E-32
 0.2639000E+00 -0.1531699E-32
 0.2650000E+00  0.6329612E-33
 0.2661000E+00  0.3272798E-32
 0.2672000E+00  0.5066630E-32
 0.2683000E+00  0.4672862E-32
 0.2694000E+00  0.1486278E-32
 0.2705000E+00 -0.3741533E-32
 0.2716000E+00 -0.8822720E-32
 0.2727000E+00 -0.1083975E-31
 0.2738000E+00 -0.7525305E-32
 0.2749000E+00  0.1221023E-32
 0.2760000E+00  0.1248758E-31
 0.2771000E+00  0.2089624E-31
 0.2782000E+00  0.2072943E-31
 0.2793000E+00  0.9005736E-32
 0.2804000E+00 -0.1188586E-31
 0.2815000E+00 -0.3362273E-31
 0.2826000E+00 -0.4449387E-31
 0.2837000E+00 -0.3471268E-31
 0.2848000E+00 -0.2495153E-32
 0.2859000E+00  0.4220825E-31
 0.2870000E+00  0.7919186E-31
 0.2881000E+00  0.8562628E-31
 0.2892000E+00  0.4769536E-31
 0.2903000E+00 -0.2883295E-31
 0.2914000E+00 -0.1152608E-30
 0.2925000E+00 -0.1680460E-30
 0.2936000E+00 -0.1476243E-30
 0.2947000E+00 -0.4116977E-31
 0.2958000E+00  0.1218380E-30
 0.2969000E+00  0.2720003E-30
 0.2980000E+00  0.3247356E-30
 0.2991000E+00  0.2210089E-30
 0.3002000E+00 -0.3295592E-31
 0.3013000E+00 -0.3487092E-30
 0.3024000E+00 -0.5774941E-30
 0.3035000E+00 -0.5711710E-30
 0.3046000E+00 -0.2613355E-30
 0.3057000E+00  0.2802086E-30
 0.3068000E+00  0.8374880E-30
 0.3079000E+00  0.1121810E-29
 0.3090000E+00  0.9028640E-30
 0.3101000E+00  0.1473630E-30
 0.3112000E+00 -0.9060404E-30
 0.3123000E+00 -0.1793532E-29
 0.3134000E+00 -0.2004773E-29
 0.3145000E+00 -0.1236779E-29
 0.3156000E+00  0.3891952E-30
 0.3167000E+00  0.2271898E-29
 0.3178000E+00  0.3509400E-29
 0.3189000E+00  0.3284553E-29
 0.3200000E+00  0.1311867E-29
 0.3211000E+00 -0.1870233E-29
 0.3222000E+00 -0.4955337E-29
 0.3233000E+00 -0.6337210E-29
 0.3244000E+00 -0.4857005E-29
 0.3255000E+00 -0.5166174E-30
 0.3266000E+00  0.5218929E-29
 0.3277000E+00  0.9792432E-29
 0.3288000E+00  0.1058120E-28
 0.3299000E+00  0.6219544E-29
 0.3310000E+00 -0.2386134E-29
 0.3321000E+00 -0.1194691E-28
 0.3332000E+00 -0.1786798E-28
 0.3343000E+00 -0.1625729E-28
 0.3354000E+00 -0.6072030E-29
 0.3365000E+00  0.9655741E-29
 0.3376000E+00  0.2436077E-28
 0.3387000E+00  0.3040516E-28
 0.3398000E+00  0.2267119E-28
 0.3409000E+00  0.1738688E-29
 0.3420000E+00 -0.2505546E-28
 0.3431000E+00 -0.4570726E-28
 0.3442000E+00 -0.4846694E-28
 0.3453000E+00 -0.2777454E-28
 0.3464000E+00  0.1153503E-28
 0.3475000E+00  0.5425804E-28
 0.3486000E+00  0.8002509E-28
 0.3497000E+00  0.7224851E-28
 0.3508000E+00  0.2719191E-28
 0.3519000E+00 -0.4132304E-28
 0.3530000E+00 -0.1048693E-27
 0.3541000E+00 -0.1312342E-27
 0.3552000E+00 -0.9945271E-28
 0.3563000E+00 -0.1252929E-28
 0.3574000E+00  0.9892578E-28
 0.3585000E+00  0.1858603E-27
 0.3596000E+00  0.2009227E-27
 0.3607000E+00  0.1219705E-27
 0.3618000E+00 -0.3190553E-28
 0.3629000E+00 -0.2012416E-27
 0.3640000E+00 -0.3069810E-27
 0.3651000E+00 -0.2850512E-27
 0.3662000E+00 -0.1206189E-27
 0.3673000E+00  0.1347806E-27
 0.3684000E+00  0.3750325E-27
 0.3695000E+00  0.4801736E-27
 0.3706000E+00  0.3719794E-27
 0.3717000E+00  0.6030908E-28
 0.3728000E+00 -0.3441270E-27
 0.3739000E+00 -0.6633660E-27
 0.3750000E+00 -0.7249602E-27
 0.3761000E+00 -0.4463730E-27
 0.3772000E+00  0.1074495E-27
 0.3783000E+00  0.7262092E-27
 0.3794000E+00  0.1126499E-26
 0.3805000E+00  0.1072893E-26
 0.3816000E+00  0.4992382E-27
 0.3827000E+00 -0.4276012E-27
 0.3838000E+00 -0.1342512E-26
 0.3849000E+00 -0.1816967E-26
 0.3860000E+00 -0.1548289E-26
 0.3871000E+00 -0.5237603E-27
 0.3882000E+00  0.9221335E-27
 0.3893000E+00  0.2202871E-26
 0.3904000E+00  0.2709036E-26
 0.3915000E+00  0.2086753E-26
 0.3926000E+00  0.4432372E-27
 0.3937000E+00 -0.1628930E-26
 0.3948000E+00 -0.3249980E-26
 0.3959000E+00 -0.3616996E-26
 0.3970000E+00 -0.2389957E-26
 0.3981000E+00  0.7795654E-28
 0.3992000E+00  0.2799253E-26
 0.4003000E+00  0.4519342E-26
 0.4014000E+00  0.4269134E-26
 0.4025000E+00  0.1872632E-26
 0.4036000E+00 -0.1837561E-26
 0.4047000E+00 -0.5247274E-26
 0.4058000E+00 -0.6597775E-26
 0.4069000E+00 -0.4802329E-26
 0.4080000E+00 -0.8944334E-28
 0.4091000E+00  0.5858204E-26
 0.4102000E+00  0.1042073E-25
 0.4113000E+00  0.1108693E-25
 0.4124000E+00  0.6637367E-26
 0.4135000E+00 -0.2053861E-26
 0.4146000E+00 -0.1202623E-25
 0.4157000E+00 -0.1917686E-25
 0.4168000E+00 -0.1986636E-25
 0.4179000E+00 -0.1257308E-25
 0.4190000E+00  0.1127862E-26
 0.4201000E+00  0.1678511E-25
 0.4212000E+00  0.2855376E-25
 0.4223000E+00  0.3145220E-25
 0.4234000E+00  0.2350284E-25
 0.4245000E+00  0.6812770E-26
 0.4256000E+00 -0.1298506E-25
 0.4267000E+00 -0.2884206E-25
 0.4278000E+00 -0.3516192E-25
 0.4289000E+00 -0.3020782E-25
 0.4300000E+00 -0.1691571E-25
 0.4311000E+00 -0.1599657E-26
 0.4322000E+00  0.9031745E-26
 0.4333000E+00  0.1127584E-25
 0.4344000E+00  0.6619434E-26
 0.4355000E+00  0.1438348E-26
 0.4366000E+00  0.3973376E-26
 0.4377000E+00  0.1964596E-25
 0.4388000E+00  0.4678400E-25
 0.4399000E+00  0.7502136E-25
 0.4410000E+00  0.8779277E-25
 0.4421000E+00  0.6868823E-25
 0.4432000E+00  0.9583675E-26
 0.4443000E+00 -0.8276758E-25
 0.4454000E+00 -0.1849666E-24
 0.4465000E+00 -0.2618304E-24
 0.4476000E+00 -0.2771967E-24
 0.4487000E+00 -0.2074049E-24
 0.4498000E+00 -0.5260445E-25
 0.4509000E+00  0.1587524E-24
 0.4520000E+00  0.3747758E-24
 0.4531000E+00  0.5335837E-24
 0.4542000E+00  0.5812730E-24
 0.4553000E+00  0.4884753E-24
 0.4564000E+00  0.2599170E-24
 0.4575000E+00 -0.6604547E-25
 0.4586000E+00 -0.4271877E-24
 0.4597000E+00 -0.7523872E-24
 0.4608000E+00 -0.9762160E-24
 0.4619000E+00 -0.1048649E-23
 0.4630000E+00 -0.9385611E-24
 0.4641000E+00 -0.6334103E-24
 0.4652000E+00 -0.1398042E-24
 0.4663000E+00  0.5109511E-24
 0.4674000E+00  0.1251936E-23
 0.4685000E+00  0.1969320E-23
 0.4696000E+00  0.2500120E-23
 0.4707000E+00  0.2649164E-23
 0.4718000E+00  0.2230853E-23
 0.4729000E+00  0.1131948E-23
 0.4740000E+00 -0.6196268E-24
 0.4751000E+00 -0.2803638E-23
 0.4762000E+00 -0.4999509E-23
 0.4773000E+00 -0.6639221E-23
 0.4784000E+00 -0.7122837E-23
 0.4795000E+00 -0.5977747E-23
 0.4806000E+00 -0.3024427E-23
 0.4817000E+00  0.1498262E-23
 0.4828000E+00  0.6891759E-23
 0.4839000E+00  0.1206744E-22
 0.4850000E+00  0.1572813E-22
 0.4861000E+00  0.1663419E-22
 0.4872000E+00  0.1390397E-22
 0.4883000E+00  0.7286288E-23
 0.4894000E+00 -0.2655880E-23
 0.4905000E+00 -0.1449901E-22
 0.4916000E+00 -0.2607793E-22
 0.4927000E+00 -0.3477435E-22
 0.4938000E+00 -0.3795469E-22
 0.4949000E+00 -0.3351125E-22
 0.4960000E+00 -0.2043440E-22
 0.4971000E+00  0.6834476E-24
 0.4982000E+00  0.2733255E-22
 0.4993000E+00  0.5508632E-22
 0.5004000E+00  0.7802343E-22
 0.5015000E+00  0.8961914E-22
 0.5026000E+00  0.8405577E-22
 0.5037000E+00  0.5777755E-22
 0.5048000E+00  0.1099043E-22
 0.5059000E+00 -0.5128089E-22
 0.5070000E+00 -0.1189773E-21
 0.5081000E+00 -0.1779384E-21
 0.5092000E+00 -0.2120884E-21
 0.5103000E+00 -0.2066953E-21
 0.5114000E+00 -0.1522066E-21
 0.5125000E+00 -0.4789359E-22
 0.5136000E+00  0.9561216E-22
 0.5147000E+00  0.2557718E-21
 0.5158000E+00  0.4002109E-21
 0.5169000E+00  0.4915884E-21
 0.5180000E+00  0.4948486E-21
 0.5191000E+00  0.3858089E-21
 0.5202000E+00  0.1594895E-21
 0.5213000E+00 -0.1637373E-21
 0.5224000E+00 -0.5360977E-21
 0.5235000E+00 -0.8859726E-21
 0.5246000E+00 -0.1127729E-20
 0.5257000E+00 -0.1177298E-20
 0.5268000E+00 -0.9715721E-21
 0.5279000E+00 -0.4883323E-21
 0.5290000E+00  0.2376127E-21
 0.5301000E+00  0.1106740E-20
 0.5312000E+00  0.1959655E-20
 0.5323000E+00  0.2596873E-20
 0.5334000E+00  0.2813199E-20
 0.5345000E+00  0.2443012E-20
 0.5356000E+00  0.1409121E-20
 0.5367000E+00 -0.2349383E-21
 0.5378000E+00 -0.2280721E-20
 0.5389000E+00 -0.4369413E-20
 0.5400000E+00 -0.6032107E-20
 0.5411000E+00 -0.6766569E-20
 0.5422000E+00 -0.6143136E-20
 0.5433000E+00 -0.3923663E-20
 0.5444000E+00 -0.1699997E-21
 0.5455000E+00  0.4685649E-20
 0.5466000E+00  0.9835186E-20
 0.5477000E+00  0.1417329E-19
 0.5488000E+00  0.1646613E-19
 0.5499000E+00  0.1559720E-19
 0.5510000E+00  0.1085639E-19
 0.5521000E+00  0.2219131E-20
 0.5532000E+00 -0.9450303E-20
 0.5543000E+00 -0.2233913E-19
 0.5554000E+00 -0.3382478E-19
 0.5565000E+00 -0.4083797E-19
 0.5576000E+00 -0.4043338E-19
 0.5587000E+00 -0.3049947E-19
 0.5598000E+00 -0.1048786E-19
 0.5609000E+00  0.1799690E-19
 0.5620000E+00  0.5092150E-19
 0.5631000E+00  0.8201780E-19
 0.5642000E+00  0.1035423E-18
 0.5653000E+00  0.1075984E-18
 0.5664000E+00  0.8789229E-19
 0.5675000E+00  0.4165485E-19
 0.5686000E+00 -0.2865210E-19
 0.5697000E+00 -0.1142959E-18
 0.5708000E+00 -0.2003348E-18
 0.5719000E+00 -0.2671013E-18
 0.5730000E+00 -0.2932066E-18
 0.5741000E+00 -0.2598555E-18
 0.5752000E+00 -0.1559065E-18
 0.5763000E+00  0.1722696E-19
 0.5774000E+00  0.2419753E-18
 0.5785000E+00  0.4835150E-18
 0.5796000E+00  0.6921892E-18
 0.5807000E+00  0.8099976E-18
 0.5818000E+00  0.7809741E-18
 0.5829000E+00  0.5643613E-18
 0.5840000E+00  0.1485380E-18
 0.5851000E+00 -0.4371419E-18
 0.5862000E+00 -0.1115859E-17
 0.5873000E+00 -0.1765287E-17
 0.5884000E+00 -0.2230210E-17
 0.5895000E+00 -0.2346379E-17
 0.5906000E+00 -0.1973894E-17
 0.5917000E+00 -0.1035836E-17
 0.5928000E+00  0.4446374E-18
 0.5939000E+00  0.2317255E-17
 0.5950000E+00  0.4296690E-17
 0.5961000E+00  0.5981437E-17
 0.5972000E+00  0.6903859E-17
 0.5983000E+00  0.6610498E-17
 0.5994000E+00  0.4764903E-17
 0.6005000E+00  0.1258093E-17
 0.6016000E+00 -0.3694561E-17
 0.6027000E+00 -0.9494982E-17
 0.6038000E+00 -0.1516714E-16
 0.6049000E+00 -0.1944388E-16
 0.6060000E+00 -0.2094331E-16
 0.6071000E+00 -0.1842597E-16
 0.6082000E+00 -0.1110390E-16
 0.6093000E+00  0.1046749E-17
 0.6104000E+00  0.1703406E-16
 0.6115000E+00  0.3473140E-16
 0.6126000E+00  0.5095787E-16
 0.6137000E+00  0.6180414E-16
 0.6148000E+00  0.6321362E-16
 0.6159000E+00  0.5177903E-16
 0.6170000E+00  0.2565842E-16
 0.6181000E+00 -0.1454021E-16
 0.6192000E+00 -0.6509636E-16
 0.6203000E+00 -0.1189417E-15
 0.6214000E+00 -0.1660337E-15
 0.6225000E+00 -0.1944544E-15
 0.6236000E+00 -0.1922378E-15
 0.6247000E+00 -0.1497861E-15
 0.6258000E+00 -0.6257378E-16
 0.6269000E+00  0.6631688E-16
 0.6280000E+00  0.2243849E-15
 0.6291000E+00  0.3892146E-15
 0.6302000E+00  0.5298019E-15
 0.6313000E+00  0.6100057E-15
 0.6324000E+00  0.5941014E-15
 0.6335000E+00  0.4539941E-15
 0.6346000E+00  0.1771882E-15
 0.6357000E+00 -0.2258138E-15
 0.6368000E+00 -0.7162999E-15
 0.6379000E+00 -0.1226013E-14
 0.6390000E+00 -0.1661139E-14
 0.6401000E+00 -0.1912489E-14
 0.6412000E+00 -0.1871811E-14
 0.6423000E+00 -0.1452975E-14
 0.6434000E+00 -0.6154857E-15
 0.6445000E+00  0.6134754E-15
 0.6456000E+00  0.2123089E-14
 0.6467000E+00  0.3713915E-14
 0.6478000E+00  0.5108151E-14
 0.6489000E+00  0.5977810E-14
 0.6500000E+00  0.5990950E-14
 0.6511000E+00  0.4872773E-14
 0.6522000E+00  0.2474668E-14
 0.6533000E+00 -0.1159187E-14
 0.6544000E+00 -0.5740693E-14
 0.6555000E+00 -0.1071620E-13
 0.6566000E+00 -0.1528711E-13
 0.6577000E+00 -0.1848156E-13
 0.6588000E+00 -0.1927930E-13
 0.6599000E+00 -0.1678284E-13
 0.6610000E+00 -0.1041780E-13
 0.6621000E+00 -0.1347767E-15
 0.6632000E+00  0.1342283E-13
 0.6643000E+00  0.2882507E-13
 0.6654000E+00  0.4387422E-13
 0.6665000E+00  0.5576527E-13
 0.6676000E+00  0.6140119E-13
 0.6687000E+00  0.5785229E-13
 0.6698000E+00  0.4292100E-13
 0.6709000E+00  0.1574425E-13
 0.6720000E+00 -0.2266001E-13
 0.6731000E+00 -0.6901259E-13
 0.6742000E+00 -0.1176716E-12
 0.6753000E+00 -0.1609073E-12
 0.6764000E+00 -0.1896130E-12
 0.6775000E+00 -0.1944561E-12
 0.6786000E+00 -0.1673981E-12
 0.6797000E+00 -0.1034318E-12
 0.6808000E+00 -0.2306566E-14
 0.6819000E+00  0.1300532E-12
 0.6830000E+00  0.2807540E-12
 0.6841000E+00  0.4300697E-12
 0.6852000E+00  0.5527410E-12
 0.6863000E+00  0.6205465E-12
 0.6874000E+00  0.6060732E-12
 0.6885000E+00  0.4874073E-12
 0.6896000E+00  0.2532399E-12
 0.6907000E+00 -0.9231273E-13
 0.6918000E+00 -0.5260223E-12
 0.6929000E+00 -0.1003883E-11
 0.6940000E+00 -0.1462280E-11
 0.6951000E+00 -0.1822567E-11
 0.6962000E+00 -0.1999254E-11
 0.6973000E+00 -0.1911487E-11
 0.6984000E+00 -0.1496903E-11
 0.6995000E+00 -0.7263634E-12
 0.7006000E+00  0.3824778E-12
 0.7017000E+00  0.1755128E-11
 0.7028000E+00  0.3256153E-11
 0.7039000E+00  0.4693166E-11
 0.7050000E+00  0.5830361E-11
 0.7061000E+00  0.6412035E-11
 0.7072000E+00  0.6195174E-11
 0.7083000E+00  0.4988645E-11
 0.7094000E+00  0.2694971E-11
 0.7105000E+00 -0.6507042E-12
 0.7116000E+00 -0.4850765E-11
 0.7127000E+00 -0.9530947E-11
 0.7138000E+00 -0.1414774E-10
 0.7149000E+00 -0.1802166E-10
 0.7160000E+00 -0.2039791E-10
 0.7171000E+00 -0.2053285E-10
 0.7182000E+00 -0.1780013E-10
 0.7193000E+00 -0.1180693E-10
 0.7204000E+00 -0.2506714E-11
 0.7215000E+00  0.9707324E-11
 0.7226000E+00  0.2394523E-10
 0.7237000E+00  0.3881545E-10
 0.7248000E+00  0.5248506E-10
 0.7259000E+00  0.6281198E-10
 0.7270000E+00  0.6754884E-10
 0.7281000E+00  0.6460830E-10
 0.7292000E+00  0.5237022E-10
 0.7303000E+00  0.3000087E-10
 0.7314000E+00 -0.2253186E-11
 0.7325000E+00 -0.4283873E-10
 0.7336000E+00 -0.8877964E-10
 0.7347000E+00 -0.1357084E-09
 0.7358000E+00 -0.1780725E-09
 0.7369000E+00 -0.2095284E-09
 0.7380000E+00 -0.2235136E-09
 0.7391000E+00 -0.2139693E-09
 0.7402000E+00 -0.1761587E-09
 0.7413000E+00 -0.1075101E-09
 0.7424000E+00 -0.8392616E-11
 0.7435000E+00  0.1172740E-09
 0.7446000E+00  0.2616751E-09
 0.7457000E+00  0.4131128E-09
 0.7468000E+00  0.5564407E-09
 0.7479000E+00  0.6739539E-09
 0.7490000E+00  0.7467282E-09
 0.7501000E+00  0.7563479E-09
 0.7512000E+00  0.6869210E-09
 0.7523000E+00  0.5272283E-09
 0.7534000E+00  0.2728250E-09
 0.7545000E+00 -0.7211408E-10
 0.7556000E+00 -0.4934140E-09
 0.7567000E+00 -0.9661844E-09
 0.7578000E+00 -0.1454933E-08
 0.7589000E+00 -0.1914625E-08
 0.7600000E+00 -0.2292728E-08
 0.7611000E+00 -0.2532224E-08
 0.7622000E+00 -0.2575459E-08
 0.7633000E+00 -0.2368640E-08
 0.7644000E+00 -0.1866710E-08
 0.7655000E+00 -0.1038309E-08
 0.7666000E+00  0.1295281E-09
 0.7677000E+00  0.1627216E-08
 0.7688000E+00  0.3419272E-08
 0.7699000E+00  0.5441952E-08
 0.7710000E+00  0.7601938E-08
 0.7721000E+00  0.9776014E-08
 0.7732000E+00  0.1181156E-07
 0.7743000E+00  0.1352751E-07
 0.7754000E+00  0.1471532E-07
 0.7765000E+00  0.1513926E-07
 0.7776000E+00  0.1453539E-07
 0.7787000E+00  0.1260831E-07
 0.7798000E+00  0.9024843E-08
 0.7809000E+00  0.3403747E-08
 0.7820000E+00 -0.4699421E-08
 0.7831000E+00 -0.1581317E-07
 0.7842000E+00 -0.3057749E-07
 0.7853000E+00 -0.4977863E-07
 0.7864000E+00 -0.7439232E-07
 0.7875000E+00 -0.1056361E-06
 0.7886000E+00 -0.1450324E-06
 0.7897000E+00 -0.1944828E-06
 0.7908000E+00 -0.2563558E-06
 0.7919000E+00 -0.3335886E-06
 0.7930000E+00 -0.4298060E-06
 0.7941000E+00 -0.5494568E-06
 0.7952000E+00 -0.6979720E-06
 0.7963000E+00 -0.8819477E-06
 0.7974000E+00 -0.1109355E-05
 0.7985000E+00 -0.1389782E-05
 0.7996000E+00 -0.1734709E-05
 0.8007000E+00 -0.2157829E-05
 0.8018000E+00 -0.2675401E-05
 0.8029000E+00 -0.3306659E-05
 0.8040000E+00 -0.4074272E-05
 0.8051000E+00 -0.5004853E-05
 0.8062000E+00 -0.6129533E-05
 0.8073000E+00 -0.7484589E-05
 0.8084000E+00 -0.9112138E-05
 0.8095000E+00 -0.1106089E-04
 0.8106000E+00 -0.1338695E-04
 0.8117000E+00 -0.1615470E-04
 0.8128000E+00 -0.1943770E-04
 0.8139000E+00 -0.2331967E-04
 0.8150000E+00 -0.2789544E-04
 0.8161000E+00 -0.3327199E-04
 0.8172000E+00 -0.3956943E-04
 0.8183000E+00 -0.4692196E-04
 0.8194000E+00 -0.5547885E-04
 0.8205000E+00 -0.6540523E-04
 0.8216000E+00 -0.7688289E-04
 0.8227000E+00 -0.9011081E-04
 0.8238000E+00 -0.1053056E-03
 0.8249000E+00 -0.1227016E-03
 0.8260000E+00 -0.1425508E-03
 0.8271000E+00 -0.1651226E-03
 0.8282000E+00 -0.1907024E-03
 0.8293000E+00 -0.2195908E-03
 0.8304000E+00 -0.2521018E-03
 0.8315000E+00 -0.2885601E-03
 0.8326000E+00 -0.3292984E-03
 0.8337000E+00 -0.3746540E-03
 0.8348000E+00 -0.4249640E-03
 0.8359000E+00 -0.4805611E-03
 0.8370000E+00 -0.5417669E-03
 0.8381000E+00 -0.6088867E-03
 0.8392000E+00 -0.6822011E-03
 0.8403000E+00 -0.7619592E-03
 0.8414000E+00 -0.8483698E-03
 0.8425000E+00 -0.9415926E-03
 0.8436000E+00 -0.1041728E-02
 0.8447000E+00 -0.1148810E-02
 0.8458000E+00 -0.1262791E-02
 0.8469000E+00 -0.1383539E-02
 0.8480000E+00 -0.1510821E-02
 0.8491000E+00 -0.1644299E-02
 0.8502000E+00 -0.1783518E-02
 0.8513000E+00 -0.1927900E-02
 0.8524000E+00 -0.2076737E-02
 0.8535000E+00 -0.2229185E-02
 0.8546000E+00 -0.2384262E-02
 0.8557000E+00 -0.2540844E-02
 0.8568000E+00 -0.2697668E-02
 0.8579000E+00 -0.2853334E-02
 0.8590000E+00 -0.3006311E-02
 0.8601000E+00 -0.3154945E-02
 0.8612000E+00 -0.3297469E-02
 0.8623000E+00 -0.3432020E-02
 0.8634000E+00 -0.3556652E-02
 0.8645000E+00 -0.3669360E-02
 0.8656000E+00 -0.3768101E-02
 0.8667000E+00 -0.3850817E-02
 0.8678000E+00 -0.3915468E-02
 0.8689000E+00 -0.3960056E-02
 0.8700000E+00 -0.3982658E-02
 0.8711000E+00 -0.3981458E-02
 0.8722000E+00 -0.3954781E-02
 0.8733000E+00 -0.3901126E-02
 0.8744000E+00 -0.3819193E-02
 0.8755000E+00 -0.3707922E-02
 0.8766000E+00 -0.3566514E-02
 0.8777000E+00 -0.3394462E-02
 0.8788000E+00 -0.3191576E-02
 0.8799000E+00 -0.2957996E-02
 0.8810000E+00 -0.2694212E-02
 0.8821000E+00 -0.2401073E-02
 0.8832000E+00 -0.2079790E-02
 0.8843000E+00 -0.1731940E-02
 0.8854000E+00 -0.1359456E-02
 0.8865000E+00 -0.9646162E-03
 0.8876000E+00 -0.5500245E-03
 0.8887000E+00 -0.1185875E-03
 0.8898000E+00  0.3265160E-03
 0.8909000E+00  0.7818689E-03
 0.8920000E+00  0.1243855E-02
 0.8931000E+00  0.1708703E-02
 0.8942000E+00  0.2172532E-02
 0.8953000E+00  0.2631399E-02
 0.8964000E+00  0.3081357E-02
 0.8975000E+00  0.3518502E-02
 0.8986000E+00  0.3939026E-02
 0.8997000E+00  0.4339266E-02
 0.9008000E+00  0.4715757E-02
 0.9019000E+00  0.5065273E-02
 0.9030000E+00  0.5384873E-02
 0.9041000E+00  0.5671939E-02
 0.9052000E+00  0.5924212E-02
 0.9063000E+00  0.6139812E-02
 0.9074000E+00  0.6317266E-02
 0.9085000E+00  0.6455521E-02
 0.9096000E+00  0.6553952E-02
 0.9107000E+00  0.6612363E-02
 0.9118000E+00  0.6630984E-02
 0.9129000E+00  0.6610459E-02
 0.9140000E+00  0.6551829E-02
 0.9151000E+00  0.6456510E-02
 0.9162000E+00  0.6326261E-02
 0.9173000E+00  0.6163158E-02
 0.9184000E+00  0.5969551E-02
 0.9195000E+00  0.5748032E-02
 0.9206000E+00  0.5501387E-02
 0.9217000E+00  0.5232558E-02
 0.9228000E+00  0.4944596E-02
 0.9239000E+00  0.4640621E-02
 0.9250000E+00  0.4323777E-02
 0.9261000E+00  0.3997193E-02
 0.9272000E+00  0.3663944E-02
 0.9283000E+00  0.3327015E-02
 0.9294000E+00  0.2989270E-02
 0.9305000E+00  0.2653421E-02
 0.9316000E+00  0.2322002E-02
 0.9327000E+00  0.1997351E-02
 0.9338000E+00  0.1681590E-02
 0.9349000E+00  0.1376615E-02
 0.9360000E+00  0.1084087E-02
 0.9371000E+00  0.8054310E-03
 0.9382000E+00  0.5418288E-03
 0.9393000E+00  0.2942270E-03
 0.9404000E+00  0.6334059E-04
 0.9415000E+00 -0.1503377E-03
 0.9426000E+00 -0.3465253E-03
 0.9437000E+00 -0.5251358E-03
 0.9448000E+00 -0.6862634E-03
 0.9459000E+00 -0.8301663E-03
 0.9470000E+00 -0.9572494E-03
 0.9481000E+00 -0.1068047E-02
 0.9492000E+00 -0.1163206E-02
 0.9503000E+00 -0.1243465E-02
 0.9514000E+00 -0.1309636E-02
 0.9525000E+00 -0.1362590E-02
 0.9536000E+00 -0.1403239E-02
 0.9547000E+00 -0.1432521E-02
 0.9558000E+00 -0.1451386E-02
 0.9569000E+00 -0.1460786E-02
 0.9580000E+00 -0.1461661E-02
 0.9591000E+00 -0.1454930E-02
 0.9602000E+00 -0.1441484E-02
 0.9613000E+00 -0.1422173E-02
 0.9624000E+00 -0.1397809E-02
 0.9635000E+00 -0.1369152E-02
 0.9646000E+00 -0.1336916E-02
 0.9657000E+00 -0.1301761E-02
 0.9668000E+00 -0.1264294E-02
 0.9679000E+00 -0.1225066E-02
 0.9690000E+00 -0.1184576E-02
 0.9701000E+00 -0.1143269E-02
 0.9712000E+00 -0.1101539E-02
 0.9723000E+00 -0.1059735E-02
 0.9734000E+00 -0.1018156E-02
 0.9745000E+00 -0.9770617E-03
 0.9756000E+00 -0.9366705E-03
 0.9767000E+00 -0.8971644E-03
 0.9778000E+00 -0.8586924E-03
 0.9789000E+00 -0.8213741E-03