 -0.119999997         0.00000000    
 -0.119000003         0.00000000    
 -0.118000001         0.00000000    
 -0.116999999         0.00000000    
 -0.115999997         0.00000000    
 -0.115000002         0.00000000    
 -0.114000000         0.00000000    
 -0.112999998         0.00000000    
 -0.112000003         0.00000000    
 -0.111000001         0.00000000    
 -0.109999999         0.00000000    
 -0.108999997         1.56281706E-37
 -0.108000003         9.95794311E-36
 -0.107000001        -9.92087730E-35
 -0.105999999        -3.51075604E-33
 -0.104999997        -3.75485986E-32
 -0.104000002        -2.39652336E-31
 -0.103000000        -1.04817816E-30
 -0.101999998        -3.18744377E-30
 -0.101000004        -5.72909503E-30
 -0.100000001         2.41918656E-30
  -9.89999995E-02     6.39487584E-29
  -9.79999974E-02     2.82628799E-28
  -9.70000029E-02     8.08243753E-28
  -9.60000008E-02     1.62200472E-27
  -9.49999988E-02     1.85870209E-27
  -9.39999968E-02    -1.49400828E-27
  -9.30000022E-02    -1.49134909E-26
  -9.20000002E-02    -4.71829818E-26
  -9.09999982E-02    -1.00552784E-25
  -9.00000036E-02    -1.47912172E-25
  -8.90000015E-02    -9.57655630E-26
  -8.79999995E-02     2.46482770E-25
  -8.69999975E-02     1.13268238E-24
  -8.60000029E-02     2.68414636E-24
  -8.50000009E-02     4.44180202E-24
  -8.39999989E-02     4.70875137E-24
  -8.29999968E-02     5.39048871E-26
  -8.20000023E-02    -1.41621832E-23
  -8.10000002E-02    -4.09929171E-23
  -7.99999982E-02    -7.58954179E-23
  -7.90000036E-02    -9.83011628E-23
  -7.80000016E-02    -6.51948163E-23
  -7.69999996E-02     8.41041972E-23
  -7.59999976E-02     3.99715922E-22
  -7.50000030E-02     8.61070380E-22
  -7.40000010E-02     1.29271225E-21
  -7.29999989E-02     1.29472315E-21
  -7.19999969E-02     2.64123556E-22
  -7.10000023E-02    -2.39435728E-21
  -7.00000003E-02    -6.79924207E-21
  -6.89999983E-02    -1.19129486E-20
  -6.80000037E-02    -1.49124492E-20
  -6.70000017E-02    -1.11237972E-20
  -6.59999996E-02     4.81181948E-21
  -6.49999976E-02     3.60295641E-20
  -6.40000030E-02     7.89470159E-20
  -6.30000010E-02     1.18561788E-19
  -6.19999990E-02     1.26397825E-19
  -6.10000007E-02     6.49686782E-20
  -5.99999987E-02    -9.79016076E-20
  -5.90000004E-02    -3.64643987E-19
  -5.79999983E-02    -6.79059293E-19
  -5.70000000E-02    -9.06169744E-19
  -5.60000017E-02    -8.39940752E-19
  -5.49999997E-02    -2.57635147E-19
  -5.40000014E-02     9.71816762E-19
  -5.29999994E-02     2.74230556E-18
  -5.20000011E-02     4.57790496E-18
  -5.09999990E-02     5.59335105E-18
  -5.00000007E-02     4.63686515E-18
  -4.89999987E-02     6.72864589E-19
  -4.80000004E-02    -6.62085992E-18
  -4.69999984E-02    -1.61920985E-17
  -4.60000001E-02    -2.51706362E-17
  -4.50000018E-02    -2.89980406E-17
  -4.39999998E-02    -2.24342466E-17
  -4.30000015E-02    -1.51494479E-18
  -4.19999994E-02     3.38649927E-17
  -4.10000011E-02     7.75431664E-17
  -3.99999991E-02     1.16032529E-16
  -3.90000008E-02     1.30040230E-16
  -3.79999988E-02     9.93179549E-17
  -3.70000005E-02     1.05564252E-17
  -3.59999985E-02    -1.33403242E-16
  -3.50000001E-02    -3.06180308E-16
  -3.40000018E-02    -4.56193311E-16
  -3.29999998E-02    -5.14147728E-16
  -3.20000015E-02    -4.11002727E-16
  -3.09999995E-02    -1.04221429E-16
  -2.99999993E-02     3.94042427E-16
  -2.89999992E-02     9.96561367E-16
  -2.80000009E-02     1.53923251E-15
  -2.70000007E-02     1.80605360E-15
  -2.60000005E-02     1.58253548E-15
  -2.50000004E-02     7.29761130E-16
  -2.40000002E-02    -7.38655346E-16
  -2.30000000E-02    -2.60155370E-15
  -2.19999999E-02    -4.42297735E-15
  -2.09999997E-02    -5.61124133E-15
  -1.99999996E-02    -5.54751820E-15
  -1.89999994E-02    -3.76644974E-15
  -1.79999992E-02    -1.50385393E-16
  -1.70000009E-02     4.91608902E-15
  -1.60000008E-02     1.04879645E-14
  -1.49999997E-02     1.51429281E-14
  -1.40000004E-02     1.72241236E-14
  -1.30000003E-02     1.52232963E-14
  -1.20000001E-02     8.24339156E-15
  -1.09999999E-02    -3.55708056E-15
  -9.99999978E-03    -1.86582453E-14
  -8.99999961E-03    -3.41324157E-14
  -8.00000038E-03    -4.59502296E-14
  -7.00000022E-03    -4.96747757E-14
  -6.00000005E-03    -4.14941349E-14
  -4.99999989E-03    -1.94401685E-14
  -4.00000019E-03     1.54602673E-14
  -3.00000003E-03     5.84294914E-14
  -2.00000009E-03     1.00920920E-13
  -1.00000005E-03     1.31606152E-13
   0.00000000         1.38454664E-13
   1.00000005E-03     1.11717601E-13
   2.00000009E-03     4.73022331E-14
   3.00000003E-03    -5.02710226E-14
   4.00000019E-03    -1.66296732E-13
   4.99999989E-03    -2.76591467E-13
   6.00000005E-03    -3.51007743E-13
   7.00000022E-03    -3.59640919E-13
   8.00000038E-03    -2.80808254E-13
   8.99999961E-03    -1.09105487E-13
   9.99999978E-03     1.38649400E-13
   1.09999999E-02     4.21768848E-13
   1.20000001E-02     6.79891419E-13
   1.30000003E-02     8.43336143E-13
   1.40000004E-02     8.48333556E-13
   1.49999997E-02     6.54263156E-13
   1.60000008E-02     2.58904253E-13
   1.70000009E-02    -2.92555585E-13
   1.79999992E-02    -9.08202170E-13
   1.89999994E-02    -1.46138386E-12
   1.99999996E-02    -1.81312073E-12
   2.09999997E-02    -1.84142328E-12
   2.19999999E-02    -1.47189856E-12
   2.30000000E-02    -7.02987798E-13
   2.40000002E-02     3.80483161E-13
   2.50000004E-02     1.61002158E-12
   2.60000005E-02     2.75421374E-12
   2.70000007E-02     3.55586459E-12
   2.80000009E-02     3.78052320E-12
   2.89999992E-02     3.26860934E-12
   2.99999993E-02     1.98160607E-12
   3.09999995E-02     3.24149277E-14
   3.20000015E-02    -2.30884756E-12
   3.29999998E-02    -4.63945635E-12
   3.40000018E-02    -6.48039998E-12
   3.50000001E-02    -7.35983323E-12
   3.59999985E-02    -6.91246843E-12
   3.70000005E-02    -4.97754962E-12
   3.79999988E-02    -1.67394733E-12
   3.90000008E-02     2.56944422E-12
   3.99999991E-02     7.04503643E-12
   4.10000011E-02     1.08662558E-11
   4.19999994E-02     1.31274479E-11
   4.30000015E-02     1.30991945E-11
   4.39999998E-02     1.04200129E-11
   4.50000018E-02     5.23810899E-12
   4.60000001E-02    -1.73993383E-12
   4.69999984E-02    -9.32129894E-12
   4.80000004E-02    -1.60221957E-11
   4.89999987E-02    -2.03578456E-11
   5.00000007E-02    -2.11706746E-11
   5.09999990E-02    -1.79227102E-11
   5.20000011E-02    -1.08778975E-11
   5.29999994E-02    -1.11905721E-12
   5.40000014E-02     9.62006863E-12
   5.49999997E-02     1.92830075E-11
   5.60000017E-02     2.59127581E-11
   5.70000000E-02     2.80743467E-11
   5.79999983E-02     2.51791591E-11
   5.90000004E-02     1.76326141E-11
   5.99999987E-02     6.76739307E-12
   6.10000007E-02    -5.42460391E-12
   6.19999990E-02    -1.67005750E-11
   6.30000010E-02    -2.50223904E-11
   6.40000030E-02    -2.89580790E-11
   6.49999976E-02    -2.79445633E-11
   6.59999996E-02    -2.23627974E-11
   6.70000017E-02    -1.34209007E-11
   6.80000037E-02    -2.88175235E-12
   6.89999983E-02     7.30046405E-12
   7.00000003E-02     1.53597777E-11
   7.10000023E-02     2.00446222E-11
   7.19999969E-02     2.08377326E-11
   7.29999989E-02     1.80373268E-11
   7.40000010E-02     1.26871300E-11
   7.50000030E-02     6.36091440E-12
   7.59999976E-02     8.25612202E-13
   7.69999996E-02    -2.37179655E-12
   7.80000016E-02    -2.32405588E-12
   7.90000036E-02     9.01892818E-13
   7.99999982E-02     6.11819102E-12
   8.10000002E-02     1.11456755E-11
   8.20000023E-02     1.32614119E-11
   8.29999968E-02     9.92630977E-12
   8.39999989E-02    -3.42301681E-13
   8.50000009E-02    -1.71760627E-11
   8.60000029E-02    -3.79056925E-11
   8.69999975E-02    -5.76929754E-11
   8.79999995E-02    -7.03659908E-11
   8.90000015E-02    -6.98910027E-11
   9.00000036E-02    -5.21977322E-11
   9.09999982E-02    -1.68932004E-11
   9.20000002E-02     3.16793952E-11
   9.30000022E-02     8.45065684E-11
   9.39999968E-02     1.29329158E-10
   9.49999988E-02     1.53302593E-10
   9.60000008E-02     1.46378257E-10
   9.70000029E-02     1.04580331E-10
   9.79999974E-02     3.22308256E-11
   9.89999995E-02    -5.76888398E-11
  0.100000001        -1.45457743E-10
  0.101000004        -2.08661852E-10
  0.101999998        -2.27600772E-10
  0.103000000        -1.90811145E-10
  0.104000002        -9.92686766E-11
  0.104999997         3.19936404E-11
  0.105999999         1.75582313E-10
  0.107000001         2.96713543E-10
  0.108000003         3.60588392E-10
  0.108999997         3.40641154E-10
  0.109999999         2.25805000E-10
  0.111000001         2.50542712E-11
  0.112000003        -2.31989455E-10
  0.112999998        -4.98777741E-10
  0.114000000        -7.19360405E-10
  0.115000002        -8.38400405E-10
  0.115999997        -8.11861744E-10
  0.116999999        -6.16430851E-10
  0.118000001        -2.55974353E-10
  0.119000003         2.36138609E-10
  0.119999997         7.99354971E-10
  0.120999999         1.35271394E-09
  0.122000001         1.80528636E-09
  0.123000003         2.06899076E-09
  0.123999998         2.07214446E-09
  0.125000000         1.77188875E-09
  0.126000002         1.16357735E-09
  0.127000004         2.85396179E-10
  0.128000006        -7.83057785E-10
  0.128999993        -1.92870964E-09
  0.129999995        -3.01884540E-09
  0.130999997        -3.91903399E-09
  0.131999999        -4.51222482E-09
  0.133000001        -4.71548445E-09
  0.134000003        -4.49092941E-09
  0.135000005        -3.84839094E-09
  0.136000007        -2.83910140E-09
  0.136999995        -1.54188451E-09
  0.137999997        -4.54229362E-11
  0.138999999         1.56845614E-09
  0.140000001         3.23538929E-09
  0.141000003         4.90918151E-09
  0.142000005         6.55135501E-09
  0.143000007         8.11152567E-09
  0.143999994         9.50365386E-09
  0.144999996         1.05852642E-08
  0.145999998         1.11469936E-08
  0.147000000         1.09182086E-08
  0.148000002         9.59108171E-09
  0.149000004         6.86137591E-09
  0.150000006         2.48027332E-09
  0.150999993        -3.69103170E-09
  0.151999995        -1.16327117E-08
  0.152999997        -2.11305995E-08
  0.153999999        -3.17567306E-08
  0.155000001        -4.28649258E-08
  0.156000003        -5.35959792E-08
  0.157000005        -6.28843608E-08
  0.158000007        -6.94576272E-08
  0.158999994        -7.18212547E-08
  0.159999996        -6.82248924E-08
  0.160999998        -5.66093767E-08
  0.162000000        -3.45372726E-08
  0.163000003         8.88741969E-10
  0.164000005         5.31160076E-08
  0.165000007         1.26238703E-07
  0.165999994         2.25102625E-07
  0.166999996         3.55424675E-07
  0.167999998         5.23934659E-07
  0.169000000         7.38551194E-07
  0.170000002         1.00860484E-06
  0.171000004         1.34512049E-06
  0.172000006         1.76117135E-06
  0.172999993         2.27231976E-06
  0.173999995         2.89715013E-06
  0.174999997         3.65790765E-06
  0.175999999         4.58124941E-06
  0.177000001         5.69911026E-06
  0.178000003         7.04969716E-06
  0.179000005         8.67859762E-06
  0.180000007         1.06400157E-05
  0.180999994         1.29981363E-05
  0.181999996         1.58286202E-05
  0.182999998         1.92202551E-05
  0.184000000         2.32767779E-05
  0.185000002         2.81189095E-05
  0.186000004         3.38866303E-05
  0.187000006         4.07417356E-05
  0.187999994         4.88707265E-05
  0.188999996         5.84880145E-05
  0.189999998         6.98394797E-05
  0.191000000         8.32063743E-05
  0.192000002         9.89095279E-05
  0.193000004         1.17313866E-04
  0.194000006         1.38833129E-04
  0.194999993         1.63934892E-04
  0.195999995         1.93145708E-04
  0.196999997         2.27056531E-04
  0.197999999         2.66328192E-04
  0.199000001         3.11697280E-04
  0.200000003         3.63981759E-04
  0.201000005         4.24086931E-04
  0.202000007         4.93011146E-04
  0.202999994         5.71850978E-04
  0.203999996         6.61807135E-04
  0.204999998         7.64188066E-04
  0.206000000         8.80414562E-04
  0.207000002         1.01202237E-03
  0.208000004         1.16066344E-03
  0.209000006         1.32810732E-03
  0.209999993         1.51623879E-03
  0.210999995         1.72705553E-03
  0.211999997         1.96266267E-03
  0.213000000         2.22526561E-03
  0.214000002         2.51716026E-03
  0.215000004         2.84072035E-03
  0.216000006         3.19838128E-03
  0.216999993         3.59262084E-03
  0.217999995         4.02593799E-03
  0.218999997         4.50082542E-03
  0.219999999         5.01974160E-03
  0.221000001         5.58507489E-03
  0.222000003         6.19910657E-03
  0.223000005         6.86397217E-03
  0.224000007         7.58161256E-03
  0.224999994         8.35372973E-03
  0.225999996         9.18173324E-03
  0.226999998         1.00666871E-02
  0.228000000         1.10092545E-02
  0.229000002         1.20096374E-02
  0.230000004         1.30675221E-02
  0.231000006         1.41820190E-02
  0.231999993         1.53516065E-02
  0.232999995         1.65740773E-02
  0.233999997         1.78464781E-02
  0.234999999         1.91650763E-02
  0.236000001         2.05252990E-02
  0.237000003         2.19217110E-02
  0.238000005         2.33479831E-02
  0.238999993         2.47968659E-02
  0.239999995         2.62601916E-02
  0.240999997         2.77288668E-02
  0.241999999         2.91929040E-02
  0.243000001         3.06414273E-02
  0.244000003         3.20627391E-02
  0.245000005         3.34443562E-02
  0.246000007         3.47731076E-02
  0.246999994         3.60352099E-02
  0.247999996         3.72163765E-02
  0.248999998         3.83019336E-02
  0.250000000         3.92769612E-02
  0.250999987         4.01264392E-02
  0.252000004         4.08354066E-02
  0.252999991         4.13891450E-02
  0.254000008         4.17733379E-02
  0.254999995         4.19742838E-02
  0.256000012         4.19790596E-02
  0.256999999         4.17757444E-02
  0.257999986         4.13536020E-02
  0.259000003         4.07032594E-02
  0.259999990         3.98169123E-02
  0.261000007         3.86884697E-02
  0.261999995         3.73137444E-02
  0.263000011         3.56905572E-02
  0.263999999         3.38188857E-02
  0.264999986         3.17009613E-02
  0.266000003         2.93413326E-02
  0.266999990         2.67469157E-02
  0.268000007         2.39270218E-02
  0.268999994         2.08933484E-02
  0.270000011         1.76599193E-02
  0.270999998         1.42430328E-02
  0.272000015         1.06611364E-02
  0.273000002         6.93469681E-03
  0.273999989         3.08602513E-03
  0.275000006        -8.60915578E-04
  0.275999993        -4.88073751E-03
  0.277000010        -8.94687325E-03
  0.277999997        -1.30318459E-02
  0.279000014        -1.71075463E-02
  0.280000001        -2.11455356E-02
  0.280999988        -2.51173452E-02
  0.282000005        -2.89947987E-02
  0.282999992        -3.27503122E-02
  0.284000009        -3.63571979E-02
  0.284999996        -3.97899710E-02
  0.286000013        -4.30246368E-02
  0.287000000        -4.60389256E-02
  0.287999988        -4.88125756E-02
  0.289000005        -5.13275191E-02
  0.289999992        -5.35680614E-02
  0.291000009        -5.55210635E-02
  0.291999996        -5.71760423E-02
  0.293000013        -5.85252717E-02
  0.294000000        -5.95638193E-02
  0.294999987        -6.02895953E-02
  0.296000004        -6.07032776E-02
  0.296999991        -6.08082972E-02
  0.298000008        -6.06107339E-02
  0.298999995        -6.01191819E-02
  0.300000012        -5.93446158E-02
  0.300999999        -5.83002046E-02
  0.301999986        -5.70010990E-02
  0.303000003        -5.54642156E-02
  0.303999990        -5.37080094E-02
  0.305000007        -5.17522171E-02
  0.305999994        -4.96175960E-02
  0.307000011        -4.73256819E-02
  0.307999998        -4.48985137E-02
  0.308999985        -4.23583835E-02
  0.310000002        -3.97275910E-02
  0.310999990        -3.70282009E-02
  0.312000006        -3.42818201E-02
  0.312999994        -3.15093920E-02
  0.314000010        -2.87309978E-02
  0.314999998        -2.59657055E-02
  0.316000015        -2.32314114E-02
  0.317000002        -2.05447245E-02
  0.317999989        -1.79208666E-02
  0.319000006        -1.53735913E-02
  0.319999993        -1.29151428E-02
  0.321000010        -1.05562070E-02
  0.321999997        -8.30591563E-03
  0.323000014        -6.17184490E-03
  0.324000001        -4.16004844E-03
  0.324999988        -2.27510021E-03
  0.326000005        -5.20157628E-04
  0.326999992         1.10296707E-03
  0.328000009         2.59372033E-03
  0.328999996         3.95271415E-03
  0.330000013         5.18162409E-03
  0.331000000         6.28308672E-03
  0.331999987         7.26058939E-03
  0.333000004         8.11836589E-03
  0.333999991         8.86128470E-03
  0.335000008         9.49474704E-03
  0.335999995         1.00245830E-02
  0.337000012         1.04569485E-02
  0.338000000         1.07982354E-02
  0.338999987         1.10549824E-02
  0.340000004         1.12337917E-02
  0.340999991         1.13412598E-02
  0.342000008         1.13839125E-02
  0.342999995         1.13681443E-02
  0.344000012         1.13001755E-02
  0.344999999         1.11860037E-02
  0.345999986         1.10313715E-02
  0.347000003         1.08417338E-02
  0.347999990         1.06222406E-02
  0.349000007         1.03777088E-02
  0.349999994         1.01126237E-02
  0.351000011         9.83112585E-03
  0.351999998         9.53701325E-03
  0.352999985         9.23374854E-03
  0.354000002         8.92446004E-03
  0.354999989         8.61195941E-03
  0.356000006         8.29874445E-03
  0.356999993         7.98701402E-03
  0.358000010         7.67868571E-03
  0.358999997         7.37540331E-03
  0.360000014         7.07855867E-03
  0.361000001         6.78930758E-03
  0.361999989         6.50859065E-03
  0.363000005         6.23714784E-03
  0.363999993         5.97554166E-03
  0.365000010         5.72417211E-03
  0.365999997         5.48329251E-03
  0.367000014         5.25302626E-03
  0.368000001         5.03338035E-03
  0.368999988         4.82425839E-03
  0.370000005         4.62547597E-03
  0.370999992         4.43677232E-03
  0.372000009         4.25782287E-03
  0.372999996         4.08825325E-03
  0.374000013         3.92765133E-03
  0.375000000         3.77557543E-03
  0.375999987         3.63156758E-03
  0.377000004         3.49516049E-03
  0.377999991         3.36588547E-03
  0.379000008         3.24327918E-03
  0.379999995         3.12688807E-03
  0.381000012         3.01627419E-03
  0.381999999         2.91101867E-03
  0.382999986         2.81072571E-03
  0.384000003         2.71502743E-03
  0.384999990         2.62358552E-03
  0.386000007         2.53609591E-03
  0.386999995         2.45228829E-03
  0.388000011         2.37192749E-03
  0.388999999         2.29481282E-03
  0.389999986         2.22077523E-03
  0.391000003         2.14967411E-03
  0.391999990         2.08139536E-03
  0.393000007         2.01584771E-03
  0.393999994         1.95296004E-03
  0.395000011         1.89267867E-03
  0.395999998         1.83496566E-03
  0.397000015         1.77979632E-03
  0.398000002         1.72715751E-03
  0.398999989         1.67704467E-03
  0.400000006         1.62945862E-03
  0.400999993         1.58440287E-03
  0.402000010         1.54187961E-03
  0.402999997         1.50188652E-03
  0.404000014         1.46441488E-03
  0.405000001         1.42944744E-03
  0.405999988         1.39695941E-03
  0.407000005         1.36691937E-03
  0.407999992         1.33929215E-03
  0.409000009         1.31404120E-03
  0.409999996         1.29113114E-03
  0.411000013         1.27053005E-03
  0.412000000         1.25221082E-03
  0.412999988         1.23615237E-03
  0.414000005         1.22234155E-03
  0.414999992         1.21077476E-03
  0.416000009         1.20146072E-03
  0.416999996         1.19442411E-03
  0.418000013         1.18970836E-03
  0.419000000         1.18737936E-03
  0.419999987         1.18752697E-03
  0.421000004         1.19026669E-03
  0.421999991         1.19573937E-03
  0.423000008         1.20411091E-03
  0.423999995         1.21556967E-03
  0.425000012         1.23032427E-03
  0.425999999         1.24860031E-03
  0.426999986         1.27063575E-03
  0.428000003         1.29667507E-03
  0.428999990         1.32696214E-03
  0.430000007         1.36173388E-03
  0.430999994         1.40121172E-03
  0.432000011         1.44559331E-03
  0.432999998         1.49504468E-03
  0.433999985         1.54969119E-03
  0.435000002         1.60960818E-03
  0.435999990         1.67481147E-03
  0.437000006         1.74524554E-03
  0.437999994         1.82077277E-03
  0.439000010         1.90116256E-03
  0.439999998         1.98608078E-03
  0.441000015         2.07508262E-03
  0.442000002         2.16760440E-03
  0.442999989         2.26296135E-03
  0.444000006         2.36034370E-03
  0.444999993         2.45881570E-03
  0.446000010         2.55731610E-03
  0.446999997         2.65465956E-03
  0.448000014         2.74953851E-03
  0.449000001         2.84052896E-03
  0.449999988         2.92609585E-03
  0.451000005         3.00460448E-03
  0.451999992         3.07433051E-03
  0.453000009         3.13347834E-03
  0.453999996         3.18019767E-03
  0.455000013         3.21260490E-03
  0.456000000         3.22880456E-03
  0.456999987         3.22691328E-03
  0.458000004         3.20508308E-03
  0.458999991         3.16152559E-03
  0.460000008         3.09453672E-03
  0.460999995         3.00252088E-03
  0.462000012         2.88401614E-03
  0.463000000         2.73771863E-03
  0.463999987         2.56250845E-03
  0.465000004         2.35747430E-03
  0.465999991         2.12193606E-03
  0.467000008         1.85546814E-03
  0.467999995         1.55791698E-03
  0.469000012         1.22941751E-03
  0.469999999         8.70404940E-04
  0.470999986         4.81622817E-04
  0.472000003         6.41277220E-05
  0.472999990        -3.80710291E-04
  0.474000007        -8.51209974E-04
  0.474999994        -1.34538475E-03
  0.476000011        -1.86095247E-03
  0.476999998        -2.39534862E-03
  0.477999985        -2.94574280E-03
  0.479000002        -3.50905885E-03
  0.479999989        -4.08199988E-03
  0.481000006        -4.66107531E-03
  0.481999993        -5.24263224E-03
  0.483000010        -5.82289137E-03
  0.483999997        -6.39798073E-03
  0.485000014        -6.96397899E-03
  0.486000001        -7.51695130E-03
  0.486999989        -8.05299077E-03
  0.488000005        -8.56825709E-03
  0.488999993        -9.05901566E-03
  0.490000010        -9.52167250E-03
  0.490999997        -9.95281525E-03
  0.492000014        -1.03492420E-02
  0.493000001        -1.07080024E-02
  0.493999988        -1.10264244E-02
  0.495000005        -1.13021461E-02
  0.495999992        -1.15331402E-02
  0.497000009        -1.17177321E-02
  0.497999996        -1.18546179E-02
  0.499000013        -1.19428718E-02
  0.500000000        -1.19819576E-02
  0.500999987        -1.19717224E-02
  0.501999974        -1.19124046E-02
  0.503000021        -1.18046217E-02
  0.504000008        -1.16493665E-02
  0.504999995        -1.14479885E-02
  0.505999982        -1.12021845E-02
  0.507000029        -1.09139699E-02
  0.508000016        -1.05856601E-02
  0.509000003        -1.02198431E-02
  0.509999990        -9.81934462E-03
  0.510999978        -9.38719790E-03
  0.512000024        -8.92660953E-03
  0.513000011        -8.44092853E-03
  0.513999999        -7.93360639E-03
  0.514999986        -7.40816584E-03
  0.515999973        -6.86816638E-03
  0.517000020        -6.31717360E-03
  0.518000007        -5.75872511E-03
  0.518999994        -5.19630034E-03
  0.519999981        -4.63329023E-03
  0.521000028        -4.07296931E-03
  0.522000015        -3.51846963E-03
  0.523000002        -2.97275675E-03
  0.523999989        -2.43860879E-03
  0.524999976        -1.91859948E-03
  0.526000023        -1.41508423E-03
  0.527000010        -9.30189621E-04
  0.527999997        -4.65804595E-04
  0.528999984        -2.35756670E-05
  0.529999971         3.95096460E-04
  0.531000018         7.89057696E-04
  0.532000005         1.15739892E-03
  0.532999992         1.49945111E-03
  0.533999979         1.81477959E-03
  0.535000026         2.10317411E-03
  0.536000013         2.36463919E-03
  0.537000000         2.59937998E-03
  0.537999988         2.80778995E-03
  0.538999975         2.99043674E-03
  0.540000021         3.14804586E-03
  0.541000009         3.28148552E-03
  0.541999996         3.39174876E-03
  0.542999983         3.47993779E-03
  0.544000030         3.54724634E-03
  0.545000017         3.59494216E-03
  0.546000004         3.62435100E-03
  0.546999991         3.63684190E-03
  0.547999978         3.63380928E-03
  0.549000025         3.61665944E-03
  0.550000012         3.58679541E-03
  0.550999999         3.54560325E-03
  0.551999986         3.49443895E-03
  0.552999973         3.43461754E-03
  0.554000020         3.36740282E-03
  0.555000007         3.29400133E-03
  0.555999994         3.21555464E-03
  0.556999981         3.13313561E-03
  0.558000028         3.04774381E-03
  0.559000015         2.96030054E-03
  0.560000002         2.87164655E-03
  0.560999990         2.78253690E-03
  0.561999977         2.69364123E-03
  0.563000023         2.60554231E-03
  0.564000010         2.51873792E-03
  0.564999998         2.43364554E-03
  0.565999985         2.35060626E-03
  0.566999972         2.26989109E-03
  0.568000019         2.19170609E-03
  0.569000006         2.11619795E-03
  0.569999993         2.04345863E-03
  0.570999980         1.97353098E-03
  0.572000027         1.90641324E-03
  0.573000014         1.84206560E-03
  0.574000001         1.78041542E-03
  0.574999988         1.72136398E-03
  0.575999975         1.66479137E-03
  0.577000022         1.61056360E-03
  0.578000009         1.55853597E-03
  0.578999996         1.50855829E-03
  0.579999983         1.46047864E-03
  0.580999970         1.41414651E-03
  0.582000017         1.36941636E-03
  0.583000004         1.32615003E-03
  0.583999991         1.28421886E-03
  0.584999979         1.24350504E-03
  0.586000025         1.20390113E-03
  0.587000012         1.16530980E-03
  0.588000000         1.12764153E-03
  0.588999987         1.09081424E-03
  0.589999974         1.05475029E-03
  0.591000021         1.01937586E-03
  0.592000008         9.84619022E-04
  0.592999995         9.50408634E-04
  0.593999982         9.16672638E-04
  0.595000029         8.83336761E-04
  0.596000016         8.50321725E-04
  0.597000003         8.17541615E-04
  0.597999990         7.84901611E-04
  0.598999977         7.52296241E-04
  0.600000024         7.19608564E-04
  0.601000011         6.86709711E-04
  0.601999998         6.53459458E-04
  0.602999985         6.19706581E-04
  0.603999972         5.85290371E-04
  0.605000019         5.50041615E-04
  0.606000006         5.13784005E-04
  0.606999993         4.76335903E-04
  0.607999980         4.37512674E-04
  0.609000027         3.97129508E-04
  0.610000014         3.55005031E-04
  0.611000001         3.10965494E-04
  0.611999989         2.64849514E-04
  0.612999976         2.16512868E-04
  0.614000022         1.65833408E-04
  0.615000010         1.12715941E-04
  0.615999997         5.70965130E-05
  0.616999984        -1.05330560E-06
  0.617999971        -6.17225887E-05
  0.619000018        -1.24857514E-04
  0.620000005        -1.90358100E-04
  0.620999992        -2.58075161E-04
  0.621999979        -3.27807647E-04
  0.623000026        -3.99300159E-04
  0.624000013        -4.72240761E-04
  0.625000000        -5.46258932E-04
  0.625999987        -6.20924460E-04
  0.626999974        -6.95746217E-04
  0.628000021        -7.70172803E-04
  0.629000008        -8.43593793E-04
  0.629999995        -9.15342476E-04
  0.630999982        -9.84700280E-04
  0.632000029        -1.05090195E-03
  0.633000016        -1.11314247E-03
  0.634000003        -1.17058342E-03
  0.634999990        -1.22236123E-03
  0.635999978        -1.26759440E-03
  0.637000024        -1.30539213E-03
  0.638000011        -1.33486197E-03
  0.638999999        -1.35512045E-03
  0.639999986        -1.36530201E-03
  0.640999973        -1.36457139E-03
  0.642000020        -1.35213602E-03
  0.643000007        -1.32725853E-03
  0.643999994        -1.28927093E-03
  0.644999981        -1.23758661E-03
  0.646000028        -1.17171253E-03
  0.647000015        -1.09126046E-03
  0.648000002        -9.95955546E-04
  0.648999989        -8.85645277E-04
  0.649999976        -7.60306371E-04
  0.651000023        -6.20051520E-04
  0.652000010        -4.65135148E-04
  0.652999997        -2.95958424E-04
  0.653999984        -1.13072980E-04
  0.654999971         8.28174961E-05
  0.656000018         2.90857948E-04
  0.657000005         5.10045618E-04
  0.657999992         7.39236362E-04
  0.658999979         9.77154239E-04
  0.660000026         1.22240221E-03
  0.661000013         1.47347513E-03
  0.662000000         1.72877382E-03
  0.662999988         1.98661932E-03
  0.663999975         2.24526809E-03
  0.665000021         2.50292919E-03
  0.666000009         2.75778072E-03
  0.666999996         3.00798891E-03
  0.667999983         3.25172977E-03
  0.669000030         3.48720769E-03
  0.670000017         3.71267879E-03
  0.671000004         3.92647088E-03
  0.671999991         4.12700325E-03
  0.672999978         4.31280490E-03
  0.674000025         4.48252959E-03
  0.675000012         4.63497220E-03
  0.675999999         4.76907939E-03
  0.676999986         4.88396036E-03
  0.677999973         4.97889426E-03
  0.679000020         5.05333906E-03
  0.680000007         5.10693388E-03
  0.680999994         5.13950363E-03
  0.681999981         5.15105762E-03
  0.683000028         5.14178909E-03
  0.684000015         5.11206966E-03
  0.685000002         5.06244088E-03
  0.685999990         4.99360869E-03
  0.686999977         4.90642805E-03
  0.688000023         4.80189221E-03
  0.689000010         4.68111783E-03