 -0.12000000000000000          0.0000000000000000     
 -0.11889999999999999          0.0000000000000000     
 -0.11780000000000000          0.0000000000000000     
 -0.11670000000000000          0.0000000000000000     
 -0.11559999999999999          0.0000000000000000     
 -0.11449999999999999          0.0000000000000000     
 -0.11340000000000000          0.0000000000000000     
 -0.11230000000000000          0.0000000000000000     
 -0.11119999999999999          0.0000000000000000     
 -0.11009999999999999          0.0000000000000000     
 -0.10900000000000000          0.0000000000000000     
 -0.10790000000000000          0.0000000000000000     
 -0.10679999999999999          0.0000000000000000     
 -0.10569999999999999          0.0000000000000000     
 -0.10460000000000000          0.0000000000000000     
 -0.10349999999999999          0.0000000000000000     
 -0.10239999999999999          0.0000000000000000     
 -0.10130000000000000          0.0000000000000000     
 -0.10020000000000000          0.0000000000000000     
  -9.9099999999999994E-002     0.0000000000000000     
  -9.7999999999999990E-002     0.0000000000000000     
  -9.6899999999999986E-002     0.0000000000000000     
  -9.5799999999999996E-002     0.0000000000000000     
  -9.4699999999999993E-002     0.0000000000000000     
  -9.3599999999999989E-002     0.0000000000000000     
  -9.2499999999999999E-002     0.0000000000000000     
  -9.1399999999999995E-002     0.0000000000000000     
  -9.0299999999999991E-002     0.0000000000000000     
  -8.9200000000000002E-002     0.0000000000000000     
  -8.8099999999999984E-002     0.0000000000000000     
  -8.6999999999999994E-002     0.0000000000000000     
  -8.5899999999999990E-002     0.0000000000000000     
  -8.4799999999999986E-002     0.0000000000000000     
  -8.3699999999999997E-002     0.0000000000000000     
  -8.2599999999999993E-002     0.0000000000000000     
  -8.1499999999999989E-002     0.0000000000000000     
  -8.0399999999999999E-002    -1.2725557883980300E-043
  -7.9299999999999995E-002    -5.1236750061877488E-043
  -7.8199999999999992E-002     6.2661394104689668E-040
  -7.7100000000000002E-002     3.2203946423621293E-039
  -7.5999999999999984E-002     6.6871006209121157E-039
  -7.4899999999999994E-002    -7.9122871774447439E-040
  -7.3799999999999991E-002    -1.7139029269255644E-038
  -7.2699999999999987E-002    -7.1232126700576613E-038
  -7.1599999999999997E-002    -2.0161320527534122E-037
  -7.0499999999999993E-002    -2.8992812893273222E-037
  -6.9399999999999989E-002     6.3891721530031242E-038
  -6.8300000000000000E-002     1.5306441961237767E-036
  -6.7199999999999996E-002     4.3004903224562718E-036
  -6.6099999999999992E-002     6.3240177577010241E-036
  -6.5000000000000002E-002     1.0679408171621578E-036
  -6.3899999999999985E-002    -2.1799834588279094E-035
  -6.2799999999999995E-002    -6.6445833517953540E-035
  -6.1699999999999991E-002    -1.0675982769241109E-034
  -6.0599999999999994E-002    -5.7153671359646668E-035
  -5.9499999999999990E-002     2.2215023443666730E-034
  -5.8399999999999994E-002     8.1397937829921319E-034
  -5.7299999999999990E-002     1.4730425518938768E-033
  -5.6199999999999986E-002     1.2826286146595301E-033
  -5.5099999999999996E-002    -1.3727781322608376E-033
  -5.3999999999999992E-002    -7.8172398339208993E-033
  -5.2899999999999989E-002    -1.6491311735940224E-032
  -5.1799999999999985E-002    -1.9375049082903460E-032
  -5.0699999999999995E-002    -6.2912070007372433E-034
  -4.9599999999999991E-002     5.6466875856079503E-032
  -4.8499999999999988E-002     1.4845324677273510E-031
  -4.7399999999999998E-002     2.1916587550101863E-031
  -4.6299999999999994E-002     1.3800094652605716E-031
  -4.5199999999999990E-002    -2.6475749443050419E-031
  -4.4099999999999986E-002    -1.0538348292086863E-030
  -4.2999999999999997E-002    -1.9338116893841637E-030
  -4.1899999999999993E-002    -2.0107246123194839E-030
  -4.0799999999999989E-002     1.2232445764602073E-031
  -3.9699999999999985E-002     5.5747579089929357E-030
  -3.8599999999999995E-002     1.3447985417739052E-029
  -3.7499999999999992E-002     1.8798977547987893E-029
  -3.6399999999999988E-002     1.2035964587088574E-029
  -3.5299999999999984E-002    -1.7564161625869054E-029
  -3.4199999999999994E-002    -7.2186823912494274E-029
  -3.3099999999999991E-002    -1.3130533710166295E-028
  -3.1999999999999987E-002    -1.4147566798567050E-028
  -3.0899999999999997E-002    -2.5636832578352815E-029
  -2.9799999999999993E-002     2.7205337446955517E-028
  -2.8699999999999989E-002     7.0451847535429853E-028
  -2.7599999999999986E-002     1.0359156859962401E-027
  -2.6499999999999996E-002     8.2813588064475494E-028
  -2.5399999999999992E-002    -4.0042264394463032E-028
  -2.4299999999999988E-002    -2.7862221404182003E-027
  -2.3199999999999985E-002    -5.5883101079395322E-027
  -2.2099999999999995E-002    -6.8262561652315012E-027
  -2.0999999999999991E-002    -3.6012050582817743E-027
  -1.9899999999999987E-002     6.4241099430289968E-027
  -1.8799999999999983E-002     2.2402392301079020E-026
  -1.7699999999999994E-002     3.7548678868164665E-026
  -1.6599999999999990E-002     3.8439926454785943E-026
  -1.5499999999999986E-002     9.0806579630760563E-027
  -1.4399999999999996E-002    -5.8741095276196917E-026
  -1.3299999999999992E-002    -1.5090006985970626E-025
  -1.2199999999999989E-002    -2.1971730105892418E-025
  -1.1099999999999985E-002    -1.8823551232475852E-025
  -9.9999999999999950E-003     1.8513539723762081E-026
  -8.8999999999999913E-003     4.1403030455130839E-025
  -7.7999999999999875E-003     8.8207564837243317E-025
  -6.6999999999999837E-003     1.1433791431142230E-024
  -5.5999999999999939E-003     8.1386315189477485E-025
  -4.4999999999999901E-003    -4.0759780441534860E-025
  -3.3999999999999864E-003    -2.4465942366507151E-024
  -2.2999999999999826E-003    -4.5782892386473888E-024
  -1.1999999999999927E-003    -5.3831451076828210E-024
  -9.9999999999988987E-005    -3.1576678419613661E-024
   1.0000000000000148E-003     3.1347358205050147E-024
   2.1000000000000185E-003     1.2598551647779023E-023
   3.2000000000000084E-003     2.1450291108576972E-023
   4.3000000000000121E-003     2.3270485662084208E-023
   5.4000000000000159E-003     1.1230640838750942E-023
   6.5000000000000058E-003    -1.7689802190448167E-023
   7.6000000000000234E-003    -5.7802644007039230E-023
   8.7000000000000133E-003    -9.1849768290660867E-023
   9.8000000000000032E-003    -9.3545212782997422E-023
   1.0900000000000021E-002    -3.7775401561134519E-023
   1.2000000000000011E-002     8.2637759310363455E-023
   1.3100000000000001E-002     2.3966757359927143E-022
   1.4200000000000018E-002     3.6284078644697265E-022
   1.5300000000000008E-002     3.5337875909260889E-022
   1.6400000000000026E-002     1.2532288989440348E-022
   1.7500000000000016E-002    -3.3374521897170758E-022
   1.8600000000000005E-002    -9.0656807494785391E-022
   1.9700000000000023E-002    -1.3314916892295411E-021
   2.0800000000000013E-002    -1.2642221577583400E-021
   2.1900000000000003E-002    -4.2717977134725245E-022
   2.3000000000000020E-002     1.1875301723070881E-021
   2.4100000000000010E-002     3.1475061754562053E-021
   2.5200000000000000E-002     4.5599768322004562E-021
   2.6300000000000018E-002     4.3025748931309220E-021
   2.7400000000000008E-002     1.5192268574086477E-021
   2.8500000000000025E-002    -3.7474066848773878E-021
   2.9600000000000015E-002    -1.0064715494941932E-020
   3.0700000000000005E-002    -1.4612296859326689E-020
   3.1800000000000023E-002    -1.3946948712501730E-020
   3.2900000000000013E-002    -5.5234799399756495E-021
   3.4000000000000002E-002     1.0453655392232277E-020
   3.5100000000000020E-002     2.9674473137065630E-020
   3.6200000000000010E-002     4.3847126691308796E-020
   3.7300000000000028E-002     4.2990175712283514E-020
   3.8400000000000017E-002     1.9772366172124869E-020
   3.9500000000000007E-002    -2.5362974033347478E-020
   4.0600000000000025E-002    -8.0575869580312221E-020
   4.1700000000000015E-002    -1.2310750871874665E-019
   4.2800000000000005E-002    -1.2555692302697891E-019
   4.3900000000000022E-002    -6.7463769118411582E-020
   4.5000000000000012E-002     5.1230627644846565E-020
   4.6100000000000002E-002     2.0076992174309541E-019
   4.7200000000000020E-002     3.2273724173265060E-019
   4.8300000000000010E-002     3.4586209421157713E-019
   4.9400000000000027E-002     2.1503853095958587E-019
   5.0500000000000017E-002    -7.5030457434011280E-020
   5.1600000000000007E-002    -4.5601975140714403E-019
   5.2700000000000025E-002    -7.8762866287572158E-019
   5.3800000000000014E-002    -8.9432428124251167E-019
   5.4900000000000004E-002    -6.3374932168376617E-019
   5.6000000000000022E-002     2.3181201774629072E-020
   5.7100000000000012E-002     9.3383626297818324E-019
   5.8200000000000002E-002     1.7829596035338247E-018
   5.9300000000000019E-002     2.1616286004231569E-018
   6.0400000000000009E-002     1.7192838223452099E-018
   6.1500000000000027E-002     3.4542424875364581E-019
   6.2600000000000017E-002    -1.6919581302684805E-018
   6.3700000000000007E-002    -3.7302457265331638E-018
   6.4800000000000024E-002    -4.8690679091476869E-018
   6.5900000000000014E-002    -4.2893752220666355E-018
   6.7000000000000004E-002    -1.6463430774891435E-018
   6.8100000000000022E-002     2.6156631135599726E-018
   6.9200000000000012E-002     7.1933397037303038E-018
   7.0300000000000029E-002     1.0212131673043017E-017
   7.1400000000000019E-002     9.8601120142481275E-018
   7.2500000000000009E-002     5.1988934400824615E-018
   7.3600000000000027E-002    -3.1498071433043754E-018
   7.4700000000000016E-002    -1.2782715338626020E-017
   7.5800000000000006E-002    -1.9999808010940924E-017
   7.6900000000000024E-002    -2.1000117328022615E-017
   7.8000000000000014E-002    -1.3483546163148320E-017
   7.9100000000000004E-002     1.9144329285275323E-018
   8.0200000000000021E-002     2.1024879580355057E-017
   8.1300000000000011E-002     3.6886945389169559E-017
   8.2400000000000029E-002     4.1898212083276808E-017
   8.3500000000000019E-002     3.0856128828160996E-017
   8.4600000000000009E-002     3.8437096048547673E-018
   8.5700000000000026E-002    -3.2314504158101620E-017
   8.6800000000000016E-002    -6.5043941149526187E-017
   8.7900000000000006E-002    -7.9715432658331915E-017
   8.9000000000000024E-002    -6.5223535099135072E-017
   9.0100000000000013E-002    -1.9607764444059221E-017
   9.1200000000000003E-002     4.6635706076312674E-017
   9.2300000000000021E-002     1.1155973457708620E-016
   9.3400000000000011E-002     1.4781823818807093E-016
   9.4500000000000028E-002     1.3257588831668793E-016
   9.5600000000000018E-002     5.8171024919733259E-017
   9.6700000000000008E-002    -6.0687169202460094E-017
   9.7800000000000026E-002    -1.8705426574148899E-016
   9.8900000000000016E-002    -2.7104851409639598E-016
  0.10000000000000001         -2.6684218439778222E-016
  0.10110000000000002         -1.5236637924811947E-016
  0.10220000000000001          5.5590089949206396E-017
  0.10330000000000003          2.9813929824372054E-016
  0.10440000000000002          4.8714425154470511E-016
  0.10550000000000001          5.3295499920431377E-016
  0.10660000000000003          3.7959122814609256E-016
  0.10770000000000002          3.5217573973592222E-017
  0.10880000000000001         -4.1521491249176109E-016
  0.10990000000000003         -8.2429189423408576E-016
  0.11100000000000002         -1.0240796778713457E-015
  0.11210000000000001         -8.8574214700870756E-016
  0.11320000000000002         -3.7784789686234440E-016
  0.11430000000000001          3.9923672176536121E-016
  0.11540000000000003          1.2211543340169682E-015
  0.11650000000000002          1.7956272377799313E-015
  0.11760000000000001          1.8558458768679512E-015
  0.11870000000000003          1.2639715587746671E-015
  0.11980000000000002          8.8378622774951670E-017
  0.12090000000000001         -1.3790152806202647E-015
  0.12200000000000003         -2.6831792977361050E-015
  0.12310000000000001         -3.3366815997063743E-015
  0.12420000000000003         -2.9861170526243858E-015
  0.12530000000000002         -1.5606129149855581E-015
  0.12640000000000001          6.5387281766009656E-016
  0.12750000000000003          3.0532620130230916E-015
  0.12860000000000002          4.8714810375687203E-015
  0.12970000000000001          5.4170421274870187E-015
  0.13080000000000003          4.3189009949702653E-015
  0.13190000000000002          1.6968150644697134E-015
  0.13300000000000001         -1.8135660084382829E-015
  0.13410000000000000         -5.2085649599512692E-015
  0.13520000000000004         -7.4073994066974020E-015
  0.13630000000000003         -7.6020749543118719E-015
  0.13740000000000002         -5.5514430903096243E-015
  0.13850000000000001         -1.7114385156277340E-015
  0.13960000000000000          2.8600922392708889E-015
  0.14070000000000005          6.8117998629526582E-015
  0.14180000000000004          8.9309838550097613E-015
  0.14290000000000003          8.5569858372807698E-015
  0.14400000000000002          5.8268123176830525E-015
  0.14510000000000001          1.6514614179107926E-015
  0.14620000000000000         -2.5886820718457110E-015
  0.14730000000000004         -5.5375600227113165E-015
  0.14840000000000003         -6.3745079831687248E-015
  0.14950000000000002         -5.1472261593775475E-015
  0.15060000000000001         -2.7791925683662687E-015
  0.15170000000000000         -7.1414934692350538E-016
  0.15280000000000005         -2.9839316783576457E-016
  0.15390000000000004         -2.1189040271100450E-015
  0.15500000000000003         -5.5646444852011260E-015
  0.15610000000000002         -8.8317465149169414E-015
  0.15720000000000001         -9.4549119539313460E-015
  0.15830000000000000         -5.2557778679941152E-015
  0.15940000000000004          4.5824641328016182E-015
  0.16050000000000003          1.8708168054394495E-014
  0.16160000000000002          3.3431887769719502E-014
  0.16270000000000001          4.3402745956717885E-014
  0.16380000000000000          4.3075878278804208E-014
  0.16490000000000005          2.8629041889008977E-014
  0.16600000000000004         -2.3130670955536566E-016
  0.16710000000000003         -3.9199777888580972E-014
  0.16820000000000002         -7.9535030335700181E-014
  0.16930000000000001         -1.0964808558539568E-013
  0.17040000000000000         -1.1790005794013640E-013
  0.17150000000000004         -9.5995730278858689E-014
  0.17260000000000003         -4.2092460224156933E-014
  0.17370000000000002          3.7301591803772611E-014
  0.17480000000000001          1.2735811963226888E-013
  0.17590000000000000          2.0718080195049359E-013
  0.17700000000000005          2.5402718337662306E-013
  0.17810000000000004          2.4871835581088890E-013
  0.17920000000000003          1.8107015449509235E-013
  0.18030000000000002          5.4041653902986411E-014
  0.18140000000000001         -1.1455411992524145E-013
  0.18250000000000000         -2.9351606895666050E-013
  0.18360000000000004         -4.4302839443020940E-013
  0.18470000000000003         -5.2218239925240642E-013
  0.18580000000000002         -4.9804012150359362E-013
  0.18690000000000001         -3.5454437160990338E-013
  0.18800000000000000         -9.9350757692243023E-014
  0.18910000000000005          2.3323978868492835E-013
  0.19020000000000004          5.8459982523902466E-013
  0.19130000000000003          8.7986927002152579E-013
  0.19240000000000002          1.0412411872289083E-012
  0.19350000000000001          1.0046234436350419E-012
  0.19460000000000005          7.3672423528589593E-013
  0.19570000000000004          2.4885891118311220E-013
  0.19680000000000003         -3.9632550789301649E-013
  0.19790000000000002         -1.0882499217418635E-012
  0.19900000000000001         -1.6833173478882954E-012
  0.20010000000000000         -2.0303607777120198E-012
  0.20120000000000005         -2.0029744870136461E-012
  0.20230000000000004         -1.5327024424717783E-012
  0.20340000000000003         -6.3562601124791927E-013
  0.20450000000000002          5.7501692361281523E-013
  0.20560000000000000          1.8957004726116795E-012
  0.20670000000000005          3.0609567993269865E-012
  0.20780000000000004          3.7905840978675107E-012
  0.20890000000000003          3.8483318069117579E-012
  0.21000000000000002          3.1008691767842450E-012
  0.21110000000000001          1.5640297393014625E-012
  0.21220000000000000         -5.7580126351814922E-013
  0.21330000000000005         -2.9735629093523061E-012
  0.21440000000000003         -5.1730093648321889E-012
  0.21550000000000002         -6.6848304294076551E-012
  0.21660000000000001         -7.0832720717726474E-012
  0.21770000000000000         -6.1037099634685582E-012
  0.21880000000000005         -3.7212279098334519E-012
  0.21990000000000004         -1.9166697153118498E-013
  0.22100000000000003          3.9581364705057770E-012
  0.22210000000000002          7.9957334885498532E-012
  0.22320000000000001          1.1098563507475884E-011
  0.22430000000000000          1.2503636165073091E-011
  0.22540000000000004          1.1666846196952447E-011
  0.22650000000000003          8.4023281254600323E-012
  0.22760000000000002          2.9721315226118494E-012
  0.22870000000000001         -3.8981282434680304E-012
  0.22980000000000000         -1.1091303474327387E-011
  0.23090000000000005         -1.7257354948187066E-011
  0.23200000000000004         -2.1040798076526247E-011
  0.23310000000000003         -2.1343251791868702E-011
  0.23420000000000002         -1.7575487586684171E-011
  0.23530000000000001         -9.8483904841273169E-012
  0.23640000000000000          9.4369064589816196E-013
  0.23750000000000004          1.3179822517957446E-011
  0.23860000000000003          2.4719652210958359E-011
  0.23970000000000002          3.3242754260759660E-011
  0.24080000000000001          3.6673066428641963E-011
  0.24190000000000000          3.3617341646987839E-011
  0.24300000000000005          2.3733264309719636E-011
  0.24410000000000004          7.9445665080921786E-012
  0.24520000000000003         -1.1560866955764862E-011
  0.24630000000000002         -3.1579707056140220E-011
  0.24740000000000001         -4.8373655849982945E-011
  0.24850000000000005         -5.8318683161218401E-011
  0.24960000000000004         -5.8618291087159868E-011
  0.25070000000000003         -4.7949885500464205E-011
  0.25180000000000002         -2.6909618274123344E-011
  0.25290000000000001          1.8564840115316458E-012
  0.25400000000000000          3.3900052897684394E-011
  0.25510000000000005          6.3595803345777244E-011
  0.25620000000000004          8.5070571265967063E-011
  0.25730000000000003          9.3293684909465014E-011
  0.25840000000000002          8.5137889757659060E-011
  0.25950000000000001          6.0202628545667373E-011
  0.26060000000000005          2.1212339907935034E-011
  0.26170000000000004         -2.6137765407371503E-011
  0.26280000000000003         -7.3924138137267300E-011
  0.26390000000000002         -1.1325110232374731E-010
  0.26500000000000001         -1.3583736728025105E-010
  0.26610000000000000         -1.3566309483003226E-010
  0.26720000000000005         -1.1036411027559476E-010
  0.26830000000000004         -6.2073202254903343E-011
  0.26940000000000003          2.5167920688608677E-012
  0.27050000000000002          7.2964510807508440E-011
  0.27160000000000001          1.3669947696114661E-010
  0.27270000000000005          1.8121441528946209E-010
  0.27380000000000004          1.9645669363437829E-010
  0.27490000000000003          1.7696770690413482E-010
  0.27600000000000002          1.2332634561019553E-010
  0.27710000000000001          4.2551360567181442E-011
  0.27820000000000000         -5.2703353179772526E-011
  0.27930000000000005         -1.4609827495842576E-010
  0.28040000000000004         -2.2040627963373411E-010
  0.28150000000000003         -2.6067254999513626E-010
  0.28260000000000002         -2.5714664621701960E-010
  0.28370000000000001         -2.0740818417564141E-010
  0.28480000000000005         -1.1723741341716427E-010
  0.28590000000000004         -8.5492221577754628E-015
  0.28700000000000003          1.2533742798149914E-010
  0.28810000000000002          2.3740828296035110E-010
  0.28920000000000001          3.1601887498039392E-010
  0.29030000000000000          3.4573926408087968E-010
  0.29140000000000005          3.1869980879598121E-010
  0.29250000000000004          2.3616055688239174E-010
  0.29360000000000003          1.0858242244320908E-010
  0.29470000000000002         -4.5796324041259663E-011
  0.29580000000000001         -2.0362351165342019E-010
  0.29690000000000005         -3.3989562288043559E-010
  0.29800000000000004         -4.3168249082702741E-010
  0.29910000000000003         -4.6157793109213008E-010
  0.30020000000000002         -4.2041887177755149E-010
  0.30130000000000001         -3.0894431413236753E-010
  0.30240000000000000         -1.3821037624806256E-010
  0.30350000000000005          7.1284493957099862E-011
  0.30460000000000004          2.9169209692379151E-010
  0.30570000000000003          4.9095198987814918E-010
  0.30680000000000002          6.3670881797729813E-010
  0.30790000000000001          7.0065306465842586E-010
  0.30900000000000005          6.6283725829719965E-010
  0.31010000000000004          5.1544480901575335E-010
  0.31120000000000003          2.6545331331936450E-010
  0.31230000000000002         -6.4331399538271148E-011
  0.31340000000000001         -4.3626779425672749E-010
  0.31450000000000006         -8.0107270859396634E-010
  0.31560000000000005         -1.1030913587297486E-009
  0.31670000000000004         -1.2871841904927765E-009
  0.31780000000000003         -1.3064629999258790E-009
  0.31890000000000002         -1.1298899699400956E-009
  0.32000000000000001         -7.4867531119679338E-010
  0.32110000000000005         -1.8049630301905084E-010
  0.32220000000000004          5.2919900076614056E-010
  0.32330000000000003          1.3091844291448800E-009
  0.32440000000000002          2.0677258974291729E-009
  0.32550000000000001          2.7007344545185881E-009
  0.32660000000000006          3.1021156009997345E-009
  0.32770000000000005          3.1754423445459551E-009
  0.32880000000000004          2.8459974291326075E-009
  0.32990000000000003          2.0722211263807026E-009
  0.33100000000000002          8.5560420061837615E-010
  0.33210000000000001         -7.5191742101282135E-010
  0.33320000000000005         -2.6440183251046698E-009
  0.33430000000000004         -4.6604001947646765E-009
  0.33540000000000003         -6.5923725005473454E-009
  0.33650000000000002         -8.1941264542996271E-009
  0.33760000000000001         -9.1998037210228101E-009
  0.33870000000000006         -9.3458668199918523E-009
  0.33980000000000005         -8.3976067174032701E-009
  0.34090000000000004         -6.1779815153871317E-009
  0.34200000000000003         -2.5965034473137745E-009
  0.34310000000000002          2.3243501215208835E-009
  0.34420000000000001          8.4275980293943680E-009
  0.34530000000000005          1.5407042698137324E-008
  0.34640000000000004          2.2800540701461742E-008
  0.34750000000000003          2.9991333059751223E-008
  0.34860000000000002          3.6216241301009356E-008
  0.34970000000000001          4.0578260669684998E-008
  0.35080000000000006          4.2059743369275582E-008
  0.35190000000000005          3.9531449278515014E-008
  0.35300000000000004          3.1751909126617429E-008
  0.35410000000000003          1.7351640626282800E-008
  0.35520000000000002         -5.2031000557240931E-009
  0.35630000000000001         -3.7671320942757547E-008
  0.35740000000000005         -8.2126329249059377E-008
  0.35850000000000004         -1.4107453088691184E-007
  0.35960000000000003         -2.1760436889693833E-007
  0.36070000000000002         -3.1556533629262858E-007
  0.36180000000000001         -4.3977611426407594E-007
  0.36290000000000006         -5.9626254886891424E-007
  0.36400000000000005         -7.9252655081627358E-007
  0.36510000000000004         -1.0378511783852278E-006
  0.36620000000000003         -1.3436493367919590E-006
  0.36730000000000002         -1.7238667115333459E-006
  0.36840000000000006         -2.1954529062235706E-006
  0.36950000000000005         -2.7789167693065776E-006
  0.37060000000000004         -3.4989843316906485E-006
  0.37170000000000003         -4.3853731687470556E-006
  0.37280000000000002         -5.4736997369104212E-006
  0.37390000000000001         -6.8065333239157348E-006
  0.37500000000000006         -8.4346053738092743E-006
  0.37610000000000005         -1.0418182861707959E-005
  0.37720000000000004         -1.2828611231237231E-005
  0.37830000000000003         -1.5750035009608253E-005
  0.37940000000000002         -1.9281305029085961E-005
  0.38050000000000006         -2.3538072418909859E-005
  0.38160000000000005         -2.8655096995591168E-005
  0.38270000000000004         -3.4788760719988148E-005
  0.38380000000000003         -4.2119806557078966E-005
  0.38490000000000002         -5.0856296669324790E-005
  0.38600000000000001         -6.1236811922752929E-005
  0.38710000000000000         -7.3533847838666775E-005
  0.38819999999999999         -8.8057417000738804E-005
  0.38930000000000009         -1.0515878589265400E-004
  0.39040000000000008         -1.2523436748141796E-004
  0.39150000000000007         -1.4872960995597885E-004
  0.39260000000000006         -1.7614291462923854E-004
  0.39370000000000005         -2.0802939614672755E-004
  0.39480000000000004         -2.4500440995998886E-004
  0.39590000000000003         -2.8774683146611787E-004
  0.39700000000000002         -3.3700171422760097E-004
  0.39810000000000001         -3.9358249216841969E-004
  0.39920000000000000         -4.5837224806964845E-004
  0.40029999999999999         -5.3232407718970529E-004
  0.40140000000000009         -6.1646030646750859E-004
  0.40250000000000008         -7.1187025061958376E-004
  0.40360000000000007         -8.1970668575360181E-004
  0.40470000000000006         -9.4118048204598148E-004
  0.40580000000000005         -1.0775531003543871E-003
  0.40690000000000004         -1.2301270728644772E-003
  0.40800000000000003         -1.4002346363167020E-003
  0.40910000000000002         -1.5892229321851246E-003
  0.41020000000000001         -1.7984376308722797E-003
  0.41130000000000000         -2.0292028478821147E-003
  0.41239999999999999         -2.2827991668041780E-003
  0.41350000000000009         -2.5604376285211197E-003
  0.41460000000000008         -2.8632328859873974E-003
  0.41570000000000007         -3.1921716636442751E-003
  0.41680000000000006         -3.5480799583292488E-003
  0.41790000000000005         -3.9315880752379120E-003
  0.41900000000000004         -4.3430940864881565E-003
  0.42010000000000003         -4.7827247507335755E-003
  0.42120000000000002         -5.2502975260694511E-003
  0.42230000000000001         -5.7452819243842494E-003
  0.42340000000000000         -6.2667608069906476E-003
  0.42449999999999999         -6.8133946215284931E-003
  0.42560000000000009         -7.3833864412144491E-003
  0.42670000000000008         -7.9744528287802492E-003
  0.42780000000000007         -8.5837955591502695E-003
  0.42890000000000006         -9.2080817034303764E-003
  0.43000000000000005         -9.8434287980538413E-003
  0.43110000000000004         -1.0485397514940847E-002
  0.43220000000000003         -1.1128992806399247E-002
  0.43330000000000002         -1.1768675339303827E-002
  0.43440000000000001         -1.2398380770867842E-002
  0.43550000000000000         -1.3011550879949475E-002
  0.43659999999999999         -1.3601176067213734E-002
  0.43770000000000009         -1.4159851303057221E-002
  0.43880000000000008         -1.4679837315500606E-002
  0.43990000000000007         -1.5153141427207528E-002
  0.44100000000000006         -1.5571604168250743E-002
  0.44210000000000005         -1.5926996378960882E-002
  0.44320000000000004         -1.6211129153674932E-002
  0.44430000000000003         -1.6415965779511744E-002
  0.44540000000000002         -1.6533742677729432E-002
  0.44650000000000001         -1.6557101399303942E-002
  0.44760000000000000         -1.6479209275146584E-002
  0.44869999999999999         -1.6293897047769297E-002
  0.44980000000000009         -1.5995781998812110E-002
  0.45090000000000008         -1.5580390128401374E-002
  0.45200000000000007         -1.5044278618739006E-002
  0.45310000000000006         -1.4385138700901905E-002
  0.45420000000000005         -1.3601891623473281E-002
  0.45530000000000004         -1.2694769743783297E-002
  0.45640000000000003         -1.1665384225091755E-002
  0.45750000000000002         -1.0516767712464212E-002
  0.45860000000000001         -9.2534007992941137E-003
  0.45970000000000000         -7.8812159057269609E-003
  0.46079999999999999         -6.4075791477842450E-003
  0.46190000000000009         -4.8412461396129432E-003
  0.46300000000000008         -3.1922959471490722E-003
  0.46410000000000007         -1.4720417459119918E-003
  0.46520000000000006          3.0708048278250814E-004
  0.46630000000000005          2.1316451640015113E-003
  0.46740000000000004          3.9873890057349499E-003
  0.46850000000000003          5.8593791857058366E-003
  0.46960000000000002          7.7321964979671729E-003
  0.47070000000000001          9.5901300498314763E-003
  0.47180000000000000          1.1417379082657539E-002
  0.47289999999999999          1.3198260735564092E-002
  0.47400000000000009          1.4917416832762376E-002
  0.47510000000000008          1.6560019776397344E-002
  0.47620000000000007          1.8111974096447495E-002
  0.47730000000000006          1.9560099572330573E-002
  0.47840000000000005          2.0892311070092102E-002