 -0.12000000000000000          0.0000000000000000     
 -0.11889999999999999          0.0000000000000000     
 -0.11780000000000000          0.0000000000000000     
 -0.11670000000000000          0.0000000000000000     
 -0.11559999999999999          0.0000000000000000     
 -0.11449999999999999          0.0000000000000000     
 -0.11340000000000000          0.0000000000000000     
 -0.11230000000000000          0.0000000000000000     
 -0.11119999999999999          0.0000000000000000     
 -0.11009999999999999          0.0000000000000000     
 -0.10900000000000000          0.0000000000000000     
 -0.10790000000000000          0.0000000000000000     
 -0.10679999999999999          0.0000000000000000     
 -0.10569999999999999          0.0000000000000000     
 -0.10460000000000000          0.0000000000000000     
 -0.10349999999999999          0.0000000000000000     
 -0.10239999999999999          0.0000000000000000     
 -0.10130000000000000          0.0000000000000000     
 -0.10020000000000000          0.0000000000000000     
  -9.9099999999999994E-002     0.0000000000000000     
  -9.7999999999999990E-002     0.0000000000000000     
  -9.6899999999999986E-002     0.0000000000000000     
  -9.5799999999999996E-002     0.0000000000000000     
  -9.4699999999999993E-002     0.0000000000000000     
  -9.3599999999999989E-002     0.0000000000000000     
  -9.2499999999999999E-002     0.0000000000000000     
  -9.1399999999999995E-002     0.0000000000000000     
  -9.0299999999999991E-002     0.0000000000000000     
  -8.9200000000000002E-002     0.0000000000000000     
  -8.8099999999999984E-002     0.0000000000000000     
  -8.6999999999999994E-002     0.0000000000000000     
  -8.5899999999999990E-002     0.0000000000000000     
  -8.4799999999999986E-002     0.0000000000000000     
  -8.3699999999999997E-002     0.0000000000000000     
  -8.2599999999999993E-002     0.0000000000000000     
  -8.1499999999999989E-002     0.0000000000000000     
  -8.0399999999999999E-002     0.0000000000000000     
  -7.9299999999999995E-002     0.0000000000000000     
  -7.8199999999999992E-002     0.0000000000000000     
  -7.7100000000000002E-002     0.0000000000000000     
  -7.5999999999999984E-002     0.0000000000000000     
  -7.4899999999999994E-002    -2.6369711444563410E-045
  -7.3799999999999991E-002     0.0000000000000000     
  -7.2699999999999987E-002     6.8794240858974001E-045
  -7.1599999999999997E-002     1.7194398016600650E-039
  -7.0499999999999993E-002     3.4287610463533414E-039
  -6.9399999999999989E-002    -2.5619550520139214E-043
  -6.8300000000000000E-002    -2.8815793157016821E-038
  -6.7199999999999996E-002    -3.4798550070842440E-038
  -6.6099999999999992E-002     3.2091516821389463E-038
  -6.5000000000000002E-002     2.7796374838862698E-037
  -6.3899999999999985E-002     6.1611411021697393E-037
  -6.2799999999999995E-002     5.2149606570677810E-037
  -6.1699999999999991E-002    -1.0292286848675558E-036
  -6.0599999999999994E-002    -4.7258927510778610E-036
  -5.9499999999999990E-002    -8.6783261454526415E-036
  -5.8399999999999994E-002    -5.8901993271610464E-036
  -5.7299999999999990E-002     1.4519381253935631E-035
  -5.6199999999999986E-002     5.6168975742320827E-035
  -5.5099999999999996E-002     9.2825075561182282E-035
  -5.3999999999999992E-002     5.0072366585190790E-035
  -5.2899999999999989E-002    -1.6804840090774682E-034
  -5.1799999999999985E-002    -5.6135395267175817E-034
  -5.0699999999999995E-002    -8.4019411874651534E-034
  -4.9599999999999991E-002    -3.2609495864036405E-034
  -4.8499999999999988E-002     1.7144657509171995E-033
  -4.7399999999999998E-002     5.0208699411629968E-033
  -4.6299999999999994E-002     6.8912108839989279E-033
  -4.5199999999999990E-002     1.8288377117556248E-033
  -4.4099999999999986E-002    -1.5259568646710816E-032
  -4.2999999999999997E-002    -4.0880592267132644E-032
  -4.1899999999999993E-002    -5.3166937247567452E-032
  -4.0799999999999989E-002    -1.1734822548681624E-032
  -3.9699999999999985E-002     1.1686115580898253E-031
  -3.8599999999999995E-002     3.0203376127558727E-031
  -3.7499999999999992E-002     3.8783207174190152E-031
  -3.6399999999999988E-002     1.0236453316706679E-031
  -3.5299999999999984E-002    -7.6717133111048986E-031
  -3.4199999999999994E-002    -2.0128989799598972E-030
  -3.3099999999999991E-002    -2.6439402236923952E-030
  -3.1999999999999987E-002    -9.7430800922489310E-031
  -3.0899999999999997E-002     4.3135541377046486E-030
  -2.9799999999999993E-002     1.2069105855890934E-029
  -2.8699999999999989E-002     1.6637036861225688E-029
  -2.7599999999999986E-002     8.3633960657931797E-030
  -2.6499999999999996E-002    -2.0611676952152688E-029
  -2.5399999999999992E-002    -6.5098268099006323E-029
  -2.4299999999999988E-002    -9.5936506594044630E-029
  -2.3199999999999985E-002    -6.2001976095882169E-029
  -2.2099999999999995E-002     8.1259877275924411E-029
  -2.0999999999999991E-002     3.1587415025276161E-028
  -1.9899999999999987E-002     5.0559192176987983E-028
  -1.8799999999999983E-002     3.9976492541591670E-028
  -1.7699999999999994E-002    -2.3892724606367424E-028
  -1.6599999999999990E-002    -1.3757078565147137E-027
  -1.5499999999999986E-002    -2.4338127495866678E-027
  -1.4399999999999996E-002    -2.2750675749326847E-027
  -1.3299999999999992E-002     2.8011253163517383E-028
  -1.2199999999999989E-002     5.3380969132509576E-027
  -1.1099999999999985E-002     1.0697625338239913E-026
  -9.9999999999999950E-003     1.1573346022699561E-026
  -8.8999999999999913E-003     2.5138797751731025E-027
  -7.7999999999999875E-003    -1.8124883954755092E-026
  -6.6999999999999837E-003    -4.2864178983640126E-026
  -5.5999999999999939E-003    -5.3102786673692883E-026
  -4.4999999999999901E-003    -2.5456445960366688E-026
  -3.3999999999999864E-003     5.1533001161485193E-026
  -2.2999999999999826E-003     1.5590398055479335E-025
  -1.1999999999999927E-003     2.2101781409644097E-025
  -9.9999999999988987E-005     1.5385691142128785E-025
   1.0000000000000148E-003    -1.0703209488899956E-025
   2.1000000000000185E-003    -5.1010636526432137E-025
   3.2000000000000084E-003    -8.3661460858031555E-025
   4.3000000000000121E-003    -7.4379907733238723E-025
   5.4000000000000159E-003     4.9432337627401427E-026
   6.5000000000000058E-003     1.4740043312540163E-024
   7.6000000000000234E-003     2.8788041932137261E-024
   8.7000000000000133E-003     3.0958288633891724E-024
   9.8000000000000032E-003     9.8553277905192039E-025
   1.0900000000000021E-002    -3.6094804898771814E-024
   1.2000000000000011E-002    -8.9668792838753742E-024
   1.3100000000000001E-002    -1.1417251021810313E-023
   1.4200000000000018E-002    -6.7910649067689027E-024
   1.5300000000000008E-002     6.6484125778150259E-024
   1.6400000000000026E-002     2.5027043796835246E-023
   1.7500000000000016E-002     3.7774794162241887E-023
   1.8600000000000005E-002     3.0994231743394737E-023
   1.9700000000000023E-002    -4.1843277498597169E-024
   2.0800000000000013E-002    -6.1248312833245038E-023
   2.1900000000000003E-002    -1.1255086364417719E-022
   2.3000000000000020E-002    -1.1571763870670124E-022
   2.4100000000000010E-002    -3.5543371241081462E-023
   2.5200000000000000E-002     1.2486844676921278E-022
   2.6300000000000018E-002     3.0106487127631491E-022
   2.7400000000000008E-002     3.7479640994244203E-022
   2.8500000000000025E-002     2.2618524966598176E-022
   2.9600000000000015E-002    -1.7976898765238100E-022
   3.0700000000000005E-002    -7.1441934009773483E-022
   3.1800000000000023E-002    -1.0767698948802536E-021
   3.2900000000000013E-002    -9.0392834921279986E-022
   3.4000000000000002E-002     7.2795525204448064E-024
   3.5100000000000020E-002     1.4606259319325183E-021
   3.6200000000000010E-002     2.7634273349740945E-021
   3.7300000000000028E-002     2.9239301506832132E-021
   3.8400000000000017E-002     1.1723332297278536E-021
   3.9500000000000007E-002    -2.3779321834661907E-021
   4.0600000000000025E-002    -6.3132241394656145E-021
   4.1700000000000015E-002    -8.1724599771398559E-021
   4.2800000000000005E-002    -5.5598055664242690E-021
   4.3900000000000022E-002     2.1869756811150408E-021
   4.5000000000000012E-002     1.2622307675953993E-020
   4.6100000000000002E-002     2.0206529218964554E-020
   4.7200000000000020E-002     1.8419059795629959E-020
   4.8300000000000010E-002     3.6170553557499561E-021
   4.9400000000000027E-002    -2.1077157019561892E-020
   5.0500000000000017E-002    -4.4454491414627315E-020
   5.1600000000000007E-002    -5.0615304881323620E-020
   5.2700000000000025E-002    -2.7128378579347734E-020
   5.3800000000000014E-002     2.5154402576189529E-020
   5.4900000000000004E-002     8.6313428934901928E-020
   5.6000000000000022E-002     1.2130532679390318E-019
   5.7100000000000012E-002     9.5580997071704664E-020
   5.8200000000000002E-002    -2.4346458485344750E-021
   5.9300000000000019E-002    -1.4347701346242969E-019
   6.0400000000000009E-002    -2.5781034869432641E-019
   6.1500000000000027E-002    -2.6167275663953740E-019
   6.2600000000000017E-002    -1.0424730462463738E-019
   6.3700000000000007E-002     1.8598362626587250E-019
   6.4800000000000024E-002     4.8527658815211152E-019
   6.5900000000000014E-002     6.1200655967050709E-019
   6.7000000000000004E-002     4.1599725654195997E-019
   6.8100000000000022E-002    -1.1505895482651173E-019
   6.9200000000000012E-002    -7.9190840036067108E-019
   7.0300000000000029E-002    -1.2597494593722305E-018
   7.1400000000000019E-002    -1.1510622436091808E-018
   7.2500000000000009E-002    -3.0614060137504595E-019
   7.3600000000000027E-002     1.0489189915997384E-018
   7.4700000000000016E-002     2.2927593261810943E-018
   7.5800000000000006E-002     2.6372115753382967E-018
   7.6900000000000024E-002     1.5423322884341876E-018
   7.8000000000000014E-002    -8.6673851505494109E-019
   7.9100000000000004E-002    -3.6341035489581025E-018
   8.0200000000000021E-002    -5.2491314078607051E-018
   8.1300000000000011E-002    -4.3534983739564301E-018
   8.2400000000000029E-002    -6.0345028547453731E-019
   8.3500000000000019E-002     4.7775834882303851E-018
   8.4600000000000009E-002     9.1926380446028395E-018
   8.5700000000000026E-002     9.7459961321852935E-018
   8.6800000000000016E-002     4.8504494588122152E-018
   8.7900000000000006E-002    -4.4144031593128297E-018
   8.9000000000000024E-002    -1.4078846357319975E-017
   9.0100000000000013E-002    -1.8688798142850824E-017
   9.1200000000000003E-002    -1.4023787529082168E-017
   9.2300000000000021E-002     6.5503210301708653E-020
   9.3400000000000011E-002     1.8330824226219508E-017
   9.4500000000000028E-002     3.1547057828753711E-017
   9.5600000000000018E-002     3.0671552953103232E-017
   9.6700000000000008E-002     1.2123371533372772E-017
   9.7800000000000026E-002    -1.8567460603098528E-017
   9.8900000000000016E-002    -4.7335367097397705E-017
  0.10000000000000001         -5.7252605677195862E-017
  0.10110000000000002         -3.7452144094409343E-017
  0.10220000000000001          8.9559003623641075E-018
  0.10330000000000003          6.2826649920615265E-017
  0.10440000000000002          9.5571887371409187E-017
  0.10550000000000001          8.2948307693336576E-017
  0.10660000000000003          2.0048394274926289E-017
  0.10770000000000002         -7.0784882990791621E-017
  0.10880000000000001         -1.4550798492646696E-016
  0.10990000000000003         -1.5772067581088946E-016
  0.11100000000000002         -8.4326927010236390E-017
  0.11210000000000001          5.5469836544700374E-017
  0.11320000000000002          2.0028632571727175E-016
  0.11430000000000001          2.7047791011862347E-016
  0.11540000000000003          2.0820806251875673E-016
  0.11650000000000002          1.5046745551504045E-017
  0.11760000000000001         -2.3457711337521010E-016
  0.11870000000000003         -4.1727855937451757E-016
  0.11980000000000002         -4.1732004886895706E-016
  0.12090000000000001         -1.9193442313975011E-016
  0.12200000000000003          1.8884771397169234E-016
  0.12310000000000001          5.5545630677388887E-016
  0.12420000000000003          7.0927479013004422E-016
  0.12530000000000002          5.2377359217004569E-016
  0.12640000000000001          2.7281410951548455E-017
  0.12750000000000003         -5.8146716102716452E-016
  0.12860000000000002         -1.0066725707216020E-015
  0.12970000000000001         -9.9485334846235585E-016
  0.13080000000000003         -4.7694069470539801E-016
  0.13190000000000002          3.6343668729260571E-016
  0.13300000000000001          1.1454359331090249E-015
  0.13410000000000000          1.4612819673875680E-015
  0.13520000000000004          1.0879677100936905E-015
  0.13630000000000003          1.3196531615850346E-016
  0.13740000000000002         -9.8238724680847179E-016
  0.13850000000000001         -1.6982409293592795E-015
  0.13960000000000000         -1.6092048211895217E-015
  0.14070000000000005         -6.9756804181614730E-016
  0.14180000000000004          6.1146693057658831E-016
  0.14290000000000003          1.6363077578513756E-015
  0.14400000000000002          1.7947396480272361E-015
  0.14510000000000001          9.4905623807516911E-016
  0.14620000000000000         -4.6178710448767910E-016
  0.14730000000000004         -1.6136688004219519E-015
  0.14840000000000003         -1.7502527798218952E-015
  0.14950000000000002         -6.6768088179464128E-016
  0.15060000000000001          1.0608165369225453E-015
  0.15170000000000000          2.3111025884868216E-015
  0.15280000000000005          2.0383643737762884E-015
  0.15390000000000004          4.0564162353912478E-018
  0.15500000000000003         -2.8401417491641511E-015
  0.15610000000000002         -4.6462704453803828E-015
  0.15720000000000001         -3.6416630439700840E-015
  0.15830000000000000          6.4320572019932901E-016
  0.15940000000000004          6.5892543872728443E-015
  0.16050000000000003          1.0776424130550798E-014
  0.16160000000000002          9.5115334558923858E-015
  0.16270000000000001          1.0699672002722779E-015
  0.16380000000000000         -1.2459357982683255E-014
  0.16490000000000005         -2.4947584144544375E-014
  0.16600000000000004         -2.8287835273460154E-014
  0.16710000000000003         -1.6329069236038036E-014
  0.16820000000000002          1.0900105594956881E-014
  0.16930000000000001          4.4893769644288792E-014
  0.17040000000000000          7.0139111505968222E-014
  0.17150000000000004          6.9753399924852933E-014
  0.17260000000000003          3.3653313131775696E-014
  0.17370000000000002         -3.4107732015486511E-014
  0.17480000000000001         -1.1268694830897804E-013
  0.17590000000000000         -1.6905883721890639E-013
  0.17700000000000005         -1.6964089065985335E-013
  0.17810000000000004         -9.5363598813248653E-014
  0.17920000000000003          4.5786013289291391E-014
  0.18030000000000002          2.1489024695741153E-013
  0.18140000000000001          3.5050456134766160E-013
  0.18250000000000000          3.8837290711751582E-013
  0.18360000000000004          2.8654785998878856E-013
  0.18470000000000003          4.6774257446434539E-014
  0.18580000000000002         -2.7694106402164048E-013
  0.18690000000000001         -5.8791454925841134E-013
  0.18800000000000000         -7.7358719000155031E-013
  0.18910000000000005         -7.4205087050872518E-013
  0.19020000000000004         -4.5653001602957895E-013
  0.19130000000000003          4.4181143810010717E-014
  0.19240000000000002          6.4726112154900718E-013
  0.19350000000000001          1.1903704303751304E-012
  0.19460000000000005          1.5028054697942436E-012
  0.19570000000000004          1.4519010694527242E-012
  0.19680000000000003          9.8209405647629936E-013
  0.19790000000000002          1.3681710121495465E-013
  0.19900000000000001         -9.4133891550829300E-013
  0.20010000000000000         -2.0311921572269655E-012
  0.20120000000000005         -2.8694090528406592E-012
  0.20230000000000004         -3.1967010817330092E-012
  0.20340000000000003         -2.8084555947590901E-012
  0.20450000000000002         -1.6056687276636634E-012
  0.20560000000000000          3.5824654541809567E-013
  0.20670000000000005          2.8419845137015277E-012
  0.20780000000000004          5.4040905888477949E-012
  0.20890000000000003          7.4299031487710660E-012
  0.21000000000000002          8.2135098162247988E-012
  0.21110000000000001          7.1025869766096157E-012
  0.21220000000000000          3.6966420228185408E-012
  0.21330000000000005         -1.9356689726985616E-012
  0.21440000000000003         -9.0803791388452643E-012
  0.21550000000000002         -1.6320263673078191E-011
  0.21660000000000001         -2.1668405572341712E-011
  0.21770000000000000         -2.2933660601973387E-011
  0.21880000000000005         -1.8295645528075784E-011
  0.21990000000000004         -6.9852496240511779E-012
  0.22100000000000003          1.0110677879860423E-011
  0.22210000000000002          3.0143919039089634E-011
  0.22320000000000001          4.8500231311246569E-011
  0.22430000000000000          5.9596159619790192E-011
  0.22540000000000004          5.8209312101970666E-011
  0.22650000000000003          4.1078012084594467E-011
  0.22760000000000002          8.3458360366659075E-012
  0.22870000000000001         -3.5630192833824804E-011
  0.22980000000000000         -8.2495924481361807E-011
  0.23090000000000005         -1.2128457917576361E-010
  0.23200000000000004         -1.4077248599601386E-010
  0.23310000000000003         -1.3227550718976811E-010
  0.23420000000000002         -9.2148806808743851E-011
  0.23530000000000001         -2.3265783407438848E-011
  0.23640000000000000          6.4991425275545212E-011
  0.23750000000000004          1.5826395448550278E-010
  0.23860000000000003          2.3983963407610662E-010
  0.23970000000000002          2.9361529033377397E-010
  0.24080000000000001          3.0660377654015263E-010
  0.24190000000000000          2.7046640162038963E-010
  0.24300000000000005          1.8204057041357258E-010
  0.24410000000000004          4.3331123336651700E-011
  0.24520000000000003         -1.3830716427671092E-010
  0.24630000000000002         -3.4921963847078609E-010
  0.24740000000000001         -5.6773469486929760E-010
  0.24850000000000005         -7.6249144200394050E-010
  0.24960000000000004         -8.9232102780765448E-010
  0.25070000000000003         -9.0939060006051486E-010
  0.25180000000000002         -7.6675666137225361E-010
  0.25290000000000001         -4.3015733845927497E-010
  0.25400000000000000          1.0787735546443711E-010
  0.25510000000000005          8.1512197951812780E-010
  0.25620000000000004          1.6122894560176515E-009
  0.25730000000000003          2.3750668636915439E-009
  0.25840000000000002          2.9475816116725276E-009
  0.25950000000000001          3.1665153131319651E-009
  0.26060000000000005          2.8920825301928047E-009
  0.26170000000000004          2.0398495334337375E-009
  0.26280000000000003          6.0666910707021798E-010
  0.26390000000000002         -1.3148690212308503E-009
  0.26500000000000001         -3.5364353025568794E-009
  0.26610000000000000         -5.7880925395638353E-009
  0.26720000000000005         -7.7434430969923424E-009
  0.26830000000000004         -9.0512573805963368E-009
  0.26940000000000003         -9.3694071217320928E-009
  0.27050000000000002         -8.3986820266047945E-009
  0.27160000000000001         -5.9162600949510170E-009
  0.27270000000000005         -1.8099952043066587E-009
  0.27380000000000004          3.8856187375698007E-009
  0.27490000000000003          1.0953054808934048E-008
  0.27600000000000002          1.8959333363258085E-008
  0.27710000000000001          2.7234574565190207E-008
  0.27820000000000000          3.4868872595986204E-008
  0.27930000000000005          4.0731867719993124E-008
  0.28040000000000004          4.3513044445021497E-008
  0.28150000000000003          4.1772904144877292E-008
  0.28260000000000002          3.3987864920153632E-008
  0.28370000000000001          1.8568524585785427E-008
  0.28480000000000005         -6.1670955834963825E-009
  0.28590000000000004         -4.2075579004638598E-008
  0.28700000000000003         -9.1324315736334008E-008
  0.28810000000000002         -1.5656924353587731E-007
  0.28920000000000001         -2.4115475896021229E-007
  0.29030000000000000         -3.4931715962458433E-007
  0.29140000000000005         -4.8638227804960235E-007
  0.29250000000000004         -6.5896309018972077E-007
  0.29360000000000003         -8.7517979909012800E-007
  0.29470000000000002         -1.1449358780196994E-006
  0.29580000000000001         -1.4802855781271291E-006
  0.29690000000000005         -1.8959199624591261E-006
  0.29800000000000004         -2.4097805318231000E-006
  0.29910000000000003         -3.0437886916135794E-006
  0.30020000000000002         -3.8246686026881645E-006
  0.30130000000000001         -4.7848366967532127E-006
  0.30240000000000000         -5.9633414977682108E-006
  0.30350000000000005         -7.4068703869624108E-006
  0.30460000000000004         -9.1708549480603894E-006
  0.30570000000000003         -1.1320742789949364E-005
  0.30680000000000002         -1.3933494980267105E-005
  0.30790000000000001         -1.7099369082551122E-005
  0.30900000000000005         -2.0924002184951315E-005
  0.31010000000000004         -2.5530789737065275E-005
  0.31120000000000003         -3.1063514425654849E-005
  0.31230000000000002         -3.7689152921768623E-005
  0.31340000000000001         -4.5600831486269747E-005
  0.31450000000000006         -5.5020906856393607E-005
  0.31560000000000005         -6.6204174851499943E-005
  0.31670000000000004         -7.9441249189756151E-005
  0.31780000000000003         -9.5062196276001900E-005
  0.31890000000000002         -1.1344039399410400E-004
  0.32000000000000001         -1.3499664233375470E-004
  0.32110000000000005         -1.6020338598936900E-004
  0.32220000000000004         -1.8958900179901015E-004
  0.32330000000000003         -2.2374185831436813E-004
  0.32440000000000002         -2.6331400115891813E-004
  0.32550000000000001         -3.0902435556471583E-004
  0.32660000000000006         -3.6166135153618356E-004
  0.32770000000000005         -4.2208477231880210E-004
  0.32880000000000004         -4.9122688343693135E-004
  0.32990000000000003         -5.7009276805527359E-004
  0.33100000000000002         -6.5975963197394702E-004
  0.33210000000000001         -7.6137467867979096E-004
  0.33320000000000005         -8.7615194333897316E-004
  0.33430000000000004         -1.0053668598054256E-003
  0.33540000000000003         -1.1503488135766857E-003
  0.33650000000000002         -1.3124707785320431E-003
  0.33760000000000001         -1.4931373785548885E-003
  0.33870000000000006         -1.6937692756236551E-003
  0.33980000000000005         -1.9157853555845010E-003
  0.34090000000000004         -2.1605824772911288E-003
  0.34200000000000003         -2.4295120114237751E-003
  0.34310000000000002         -2.7238543625020865E-003
  0.34420000000000001         -3.0447904235140037E-003
  0.34530000000000005         -3.3933708710778910E-003
  0.34640000000000004         -3.7704815940321642E-003
  0.34750000000000003         -4.1768085855510553E-003
  0.34860000000000002         -4.6127991197978512E-003
  0.34970000000000001         -5.0786214295530808E-003
  0.35080000000000006         -5.5741257023955793E-003
  0.35190000000000005         -6.0988030697512472E-003
  0.35300000000000004         -6.6517459090529914E-003
  0.35410000000000003         -7.2316107538064490E-003
  0.35520000000000002         -7.8365831560818985E-003
  0.35630000000000001         -8.4643481384414094E-003
  0.35740000000000005         -9.1120619791940655E-003
  0.35850000000000004         -9.7763290664156823E-003
  0.35960000000000003         -1.0453189596295454E-002
  0.36070000000000002         -1.1138110065328097E-002
  0.36180000000000001         -1.1825985017196741E-002
  0.36290000000000006         -1.2511147990202934E-002
  0.36400000000000005         -1.3187391462957896E-002
  0.36510000000000004         -1.3847997432098646E-002
  0.36620000000000003         -1.4485786158499539E-002
  0.36730000000000002         -1.5093164948877044E-002
  0.36840000000000006         -1.5662200165053219E-002
  0.36950000000000005         -1.6184691245661270E-002
  0.37060000000000004         -1.6652267467679248E-002
  0.37170000000000003         -1.7056476428540884E-002
  0.37280000000000002         -1.7388902056458606E-002
  0.37390000000000001         -1.7641275576214074E-002
  0.37500000000000006         -1.7805605165685884E-002
  0.37610000000000005         -1.7874299223728646E-002
  0.37720000000000004         -1.7840307278666701E-002
  0.37830000000000003         -1.7697246342178154E-002
  0.37940000000000002         -1.7439534664607213E-002
  0.38050000000000006         -1.7062516938377202E-002
  0.38160000000000005         -1.6562577993948363E-002
  0.38270000000000004         -1.5937257857115909E-002
  0.38380000000000003         -1.5185342132837298E-002
  0.38490000000000002         -1.4306948523439658E-002
  0.38600000000000001         -1.3303586521928944E-002
  0.38710000000000000         -1.2178207978122345E-002
  0.38819999999999999         -1.0935229578044211E-002
  0.38930000000000009         -9.5805382665921802E-003
  0.39040000000000008         -8.1214701603874000E-003
  0.39150000000000007         -6.5667682402323268E-003
  0.39260000000000006         -4.9265144859648160E-003
  0.39370000000000005         -3.2120365114030242E-003
  0.39480000000000004         -1.4357958979393753E-003
  0.39590000000000003          3.8874813467375420E-004
  0.39700000000000002          2.2472922521229173E-003
  0.39810000000000001          4.1248602512905961E-003
  0.39920000000000000          6.0059873676943541E-003
  0.40029999999999999          7.8749155748893580E-003
  0.40140000000000009          9.7158003589146204E-003
  0.40250000000000008          1.1512915451637695E-002
  0.40360000000000007          1.3250865405299492E-002
  0.40470000000000006          1.4914789136385146E-002
  0.40580000000000005          1.6490561822055622E-002
  0.40690000000000004          1.7964979875698162E-002
  0.40800000000000003          1.9325937471942715E-002
  0.40910000000000002          2.0562583056488858E-002
  0.41020000000000001          2.1665456376829324E-002
  0.41130000000000000          2.2626598080103685E-002
  0.41239999999999999          2.3439646698904321E-002
  0.41350000000000009          2.4099894213025580E-002
  0.41460000000000008          2.4604335091995114E-002
  0.41570000000000007          2.4951673256989208E-002
  0.41680000000000006          2.5142307998790425E-002
  0.41790000000000005          2.5178297741179762E-002
  0.41900000000000004          2.5063298600701334E-002
  0.42010000000000003          2.4802468646128246E-002
  0.42120000000000002          2.4402364223712152E-002
  0.42230000000000001          2.3870816256800754E-002
  0.42340000000000000          2.3216777732700544E-002
  0.42449999999999999          2.2450173932740441E-002
  0.42560000000000009          2.1581738511375192E-002
  0.42670000000000008          2.0622839760823432E-002
  0.42780000000000007          1.9585312202862391E-002
  0.42890000000000006          1.8481284720522628E-002
  0.43000000000000005          1.7323009520508546E-002
  0.43110000000000004          1.6122700251410112E-002
  0.43220000000000003          1.4892385514534813E-002
  0.43330000000000002          1.3643757228280330E-002
  0.43440000000000001          1.2388042847906653E-002
  0.43550000000000000          1.1135889489813621E-002
  0.43659999999999999          9.8972603354739903E-003
  0.43770000000000009          8.6813500226980908E-003
  0.43880000000000008          7.4965196467635734E-003
  0.43990000000000007          6.3502427113044432E-003
  0.44100000000000006          5.2490748059705614E-003
  0.44210000000000005          4.1986360165764316E-003
  0.44320000000000004          3.2036081182285191E-003
  0.44430000000000003          2.2677470092555153E-003
  0.44540000000000002          1.3939056939702940E-003
  0.44650000000000001          5.8407065299484560E-004
  0.44760000000000000         -1.6059346080846284E-004
  0.44869999999999999         -8.3968861667162295E-004
  0.44980000000000009         -1.4535226936789002E-003
  0.45090000000000008         -2.0030437419818487E-003
  0.45200000000000007         -2.4897709059975579E-003
  0.45310000000000006         -2.9157233389018652E-003
  0.45420000000000005         -3.2833490911637025E-003
  0.45530000000000004         -3.5954528961167488E-003
  0.45640000000000003         -3.8551263693186759E-003
  0.45750000000000002         -4.0656795715051540E-003
  0.45860000000000001         -4.2305771041245962E-003
  0.45970000000000000         -4.3533805626002585E-003
  0.46079999999999999         -4.4376933101527728E-003
  0.46190000000000009         -4.4871120914652101E-003
  0.46300000000000008         -4.5051844135980687E-003
  0.46410000000000007         -4.4953682855552908E-003
  0.46520000000000006         -4.4610002907351370E-003
  0.46630000000000005         -4.4052689247851403E-003
  0.46740000000000004         -4.3311926488237163E-003
  0.46850000000000003         -4.2416045766223492E-003
  0.46960000000000002         -4.1391412439942491E-003
  0.47070000000000001         -4.0262352169131311E-003
  0.47180000000000000         -3.9051098952978501E-003
  0.47289999999999999         -3.7777794601465955E-003
  0.47400000000000009         -3.6460496936826597E-003
  0.47510000000000008         -3.5115251501532806E-003
  0.47620000000000007         -3.3756163142796367E-003
  0.47730000000000006         -3.2395509354341415E-003
  0.47840000000000005         -3.1043848954623796E-003