 -0.12000000000000000          0.0000000000000000     
 -0.11889999999999999          0.0000000000000000     
 -0.11780000000000000          0.0000000000000000     
 -0.11670000000000000          0.0000000000000000     
 -0.11559999999999999          0.0000000000000000     
 -0.11449999999999999          0.0000000000000000     
 -0.11340000000000000          0.0000000000000000     
 -0.11230000000000000          0.0000000000000000     
 -0.11119999999999999          0.0000000000000000     
 -0.11009999999999999          0.0000000000000000     
 -0.10900000000000000          0.0000000000000000     
 -0.10790000000000000          0.0000000000000000     
 -0.10679999999999999          0.0000000000000000     
 -0.10569999999999999          0.0000000000000000     
 -0.10460000000000000          0.0000000000000000     
 -0.10349999999999999          0.0000000000000000     
 -0.10239999999999999          0.0000000000000000     
 -0.10130000000000000         -1.3115076307820915E-037
 -0.10020000000000000         -9.2221160400303916E-037
  -9.9099999999999994E-002    -2.3557381393452927E-036
  -9.7999999999999990E-002     1.9163594588227417E-036
  -9.6899999999999986E-002     2.9396364388899181E-035
  -9.5799999999999996E-002     6.0227595268363365E-035
  -9.4699999999999993E-002    -1.6202589392564680E-034
  -9.3599999999999989E-002    -1.3350175667655108E-033
  -9.2499999999999999E-002    -3.6758229975831108E-033
  -9.1399999999999995E-002    -2.6739177546375891E-033
  -9.0299999999999991E-002     1.7451863738151825E-032
  -8.9200000000000002E-002     7.6683244671513335E-032
  -8.8099999999999984E-002     1.4050178512807949E-031
  -8.6999999999999994E-002    -1.0105652934990218E-032
  -8.5899999999999990E-002    -8.4245545425692252E-031
  -8.4799999999999986E-002    -2.6070655380333551E-030
  -8.3699999999999997E-002    -3.7404019594577521E-030
  -8.2599999999999993E-002     1.4318496383128904E-030
  -8.1499999999999989E-002     2.2024293870452813E-029
  -8.0399999999999999E-002     5.9187630902659923E-029
  -7.9299999999999995E-002     7.8280481851088614E-029
  -7.8199999999999992E-002    -2.0630457744615006E-029
  -7.7100000000000002E-002    -3.7575398771605373E-028
  -7.5999999999999984E-002    -9.8581035319393932E-028
  -7.4899999999999994E-002    -1.3461107271844785E-027
  -7.3799999999999991E-002    -1.2567824370969041E-028
  -7.2699999999999987E-002     4.4394152776743409E-027
  -7.1599999999999997E-002     1.2504605527951536E-026
  -7.0499999999999993E-002     1.8751334650668247E-026
  -6.9399999999999989E-002     9.0903978115995085E-027
  -6.8300000000000000E-002    -3.5798973183604080E-026
  -6.7199999999999996E-002    -1.2205745265859765E-025
  -6.6099999999999992E-002    -2.0804443764119083E-025
  -6.5000000000000002E-002    -1.7275560786274395E-025
  -6.3899999999999985E-002     1.6408787540711165E-025
  -6.2799999999999995E-002     9.0808460927068420E-025
  -6.1699999999999991E-002     1.8256791339690340E-024
  -6.0599999999999994E-002     2.0711239355129155E-024
  -5.9499999999999990E-002     2.2729382701994135E-025
  -5.8399999999999994E-002    -4.9068193545446352E-024
  -5.7299999999999990E-002    -1.2588843485047738E-023
  -5.6199999999999986E-002    -1.8075307183126552E-023
  -5.5099999999999996E-002    -1.2066781648859714E-023
  -5.3999999999999992E-002     1.5660561353756153E-023
  -5.2899999999999989E-002     6.6685170176056781E-023
  -5.1799999999999985E-002     1.2066205622626722E-022
  -5.0699999999999995E-002     1.2722335947378867E-022
  -4.9599999999999991E-002     1.7705757403466717E-023
  -4.8499999999999988E-002    -2.5061949400158156E-022
  -4.7399999999999998E-002    -6.2183767029974850E-022
  -4.6299999999999994E-002    -8.7613986992948934E-022
  -4.5199999999999990E-002    -6.4157772169521562E-022
  -4.4099999999999986E-002     4.4188514398143212E-022
  -4.2999999999999997E-002     2.3876265458755539E-021
  -4.1899999999999993E-002     4.4715530028380534E-021
  -4.0799999999999989E-002     5.0679841518185981E-021
  -3.9699999999999985E-002     2.0859782526225432E-021
  -3.8599999999999995E-002    -5.7598573224242005E-021
  -3.7499999999999992E-002    -1.7081866107349625E-020
  -3.6399999999999988E-002    -2.6312893166298840E-020
  -3.5299999999999984E-002    -2.4120756298695346E-020
  -3.4199999999999994E-002    -1.1928688612838208E-021
  -3.3099999999999991E-002     4.4522327617593283E-020
  -3.1999999999999987E-002     9.9650041266305503E-020
  -3.0899999999999997E-002     1.3173328176228891E-019
  -2.9799999999999993E-002     9.6704644975460239E-020
  -2.8699999999999989E-002    -3.8723843222384844E-020
  -2.7599999999999986E-002    -2.6389429344945016E-019
  -2.6499999999999996E-002    -4.9557848403881513E-019
  -2.5399999999999992E-002    -5.7797539242129418E-019
  -2.4299999999999988E-002    -3.3361595141426118E-019
  -2.3199999999999985E-002     3.3143958752384588E-019
  -2.2099999999999995E-002     1.2998861050886796E-018
  -2.0999999999999991E-002     2.1633039493140069E-018
  -1.9899999999999987E-002     2.2784255702951557E-018
  -1.8799999999999983E-002     1.0186901917543406E-018
  -1.7699999999999994E-002    -1.8081857997679478E-018
  -1.6599999999999990E-002    -5.5342829075590024E-018
  -1.5499999999999986E-002    -8.4649776139797853E-018
  -1.4399999999999996E-002    -8.2484506809348420E-018
  -1.3299999999999992E-002    -2.8960360455499642E-018
  -1.2199999999999989E-002     7.7664235866787534E-018
  -1.1099999999999985E-002     2.0838160283507237E-017
  -9.9999999999999950E-003     3.0155944565416943E-017
  -8.8999999999999913E-003     2.7936807579116832E-017
  -7.7999999999999875E-003     8.3552512785440136E-018
  -6.6999999999999837E-003    -2.7926388412121114E-017
  -5.5999999999999939E-003    -7.0366209919411833E-017
  -4.4999999999999901E-003    -9.8876220575803411E-017
  -3.3999999999999864E-003    -8.9732605789311646E-017
  -2.2999999999999826E-003    -2.6733552609789020E-017
  -1.1999999999999927E-003     8.5844274575161178E-017
  -9.9999999999988987E-005     2.1470605705380786E-016
   1.0000000000000148E-003     3.0032429294606035E-016
   2.1000000000000185E-003     2.7519565766744264E-016
   3.2000000000000084E-003     9.5380111938345988E-017
   4.3000000000000121E-003    -2.2499376188913397E-016
   5.4000000000000159E-003    -5.9294069195122497E-016
   6.5000000000000058E-003    -8.4667301119127646E-016
   7.6000000000000234E-003    -8.0531938039866383E-016
   8.7000000000000133E-003    -3.5067685470986187E-016
   9.8000000000000032E-003     4.8616890669714980E-016
   1.0900000000000021E-002     1.4744146870551548E-015
   1.2000000000000011E-002     2.2093346710482312E-015
   1.3100000000000001E-002     2.2330183475281718E-015
   1.4200000000000018E-002     1.2299430849065530E-015
   1.5300000000000008E-002    -7.6662924470869234E-016
   1.6400000000000026E-002    -3.2509505680446311E-015
   1.7500000000000016E-002    -5.2930356190421853E-015
   1.8600000000000005E-002    -5.8002063370895911E-015
   1.9700000000000023E-002    -3.9492657055847577E-015
   2.0800000000000013E-002     3.4643599897097601E-016
   2.1900000000000003E-002     6.1329064792109769E-015
   2.3000000000000020E-002     1.1465080526130468E-014
   2.4100000000000010E-002     1.3905820363203838E-014
   2.5200000000000000E-002     1.1403086184720926E-014
   2.6300000000000018E-002     3.2874189363139546E-015
   2.7400000000000008E-002    -8.9981563595586261E-015
   2.8500000000000025E-002    -2.1824733928183133E-014
   2.9600000000000015E-002    -3.0185662319324666E-014
   3.0700000000000005E-002    -2.9307692340704850E-014
   3.1800000000000023E-002    -1.6634671681022180E-014
   3.2900000000000013E-002     6.5132844118674128E-015
   3.4000000000000002E-002     3.4353091524870136E-014
   3.5100000000000020E-002     5.7635462429126566E-014
   3.6200000000000010E-002     6.6240443035228691E-014
   3.7300000000000028E-002     5.2771091126448469E-014
   3.8400000000000017E-002     1.6023632277268295E-014
   3.9500000000000007E-002    -3.6992951020151099E-014
   4.0600000000000025E-002    -9.1563726273367202E-014
   4.1700000000000015E-002    -1.2867624446435272E-013
   4.2800000000000005E-002    -1.3073284046028616E-013
   4.3900000000000022E-002    -8.8030731521578781E-014
   4.5000000000000012E-002    -3.9118052499759626E-015
   4.6100000000000002E-002     1.0344364796167904E-013
   4.7200000000000020E-002     2.0382960185146015E-013
   4.8300000000000010E-002     2.6236811659884063E-013
   4.9400000000000027E-002     2.4984869858787895E-013
   5.0500000000000017E-002     1.5329225519153389E-013
   5.1600000000000007E-002    -1.6526929090131433E-014
   5.2700000000000025E-002    -2.2344455387519890E-013
   5.3800000000000014E-002    -4.1167611854187047E-013
   5.4900000000000004E-002    -5.1858636742480035E-013
   5.6000000000000022E-002    -4.9199392389981389E-013
   5.7100000000000012E-002    -3.0789281714460603E-013
   5.8200000000000002E-002     1.6317298600081361E-014
   5.9300000000000019E-002     4.1764137178983141E-013
   6.0400000000000009E-002     7.9532636986651140E-013
   6.1500000000000027E-002     1.0311319940253805E-012
   6.2600000000000017E-002     1.0192514150395016E-012
   6.3700000000000007E-002     6.9990774244008125E-013
   6.4800000000000024E-002     8.8212924920401392E-014
   6.5900000000000014E-002    -7.1101094846828805E-013
   6.7000000000000004E-002    -1.5103686530626437E-012
   6.8100000000000022E-002    -2.0729227796084659E-012
   6.9200000000000012E-002    -2.1687139931114707E-012
   7.0300000000000029E-002    -1.6447488987089698E-012
   7.1400000000000019E-002    -4.9142786194555921E-013
   7.2500000000000009E-002     1.1156043536880711E-012
   7.3600000000000027E-002     2.8178945721962778E-012
   7.4700000000000016E-002     4.1326954879072897E-012
   7.5800000000000006E-002     4.5652956241759579E-012
   7.6900000000000024E-002     3.7554035402231900E-012
   7.8000000000000014E-002     1.6216040012520527E-012
   7.9100000000000004E-002    -1.5413520069659792E-012
   8.0200000000000021E-002    -5.0549698975277391E-012
   8.1300000000000011E-002    -7.9646454362314323E-012
   8.2400000000000029E-002    -9.2584334296375026E-012
   8.3500000000000019E-002    -8.1571355572962467E-012
   8.4600000000000009E-002    -4.4039966985709444E-012
   8.5700000000000026E-002     1.5345882117129284E-012
   8.6800000000000016E-002     8.4390237853337879E-012
   8.7900000000000006E-002     1.4524897777590251E-011
   8.9000000000000024E-002     1.7841525132289426E-011
   9.0100000000000013E-002     1.6806979419303758E-011
   9.1200000000000003E-002     1.0749487237837752E-011
   9.2300000000000021E-002     2.9655539634208805E-013
   9.3400000000000011E-002    -1.2533256550650851E-011
   9.4500000000000028E-002    -2.4621811534064619E-011
   9.5600000000000018E-002    -3.2416434120330351E-011
   9.6700000000000008E-002    -3.2848817416164522E-011
   9.7800000000000026E-002    -2.4293275724396324E-011
   9.8900000000000016E-002    -7.3002506817410051E-012
  0.10000000000000001          1.5141736822710250E-011
  0.10110000000000002          3.7972718719414544E-011
  0.10220000000000001          5.5065042803281727E-011
  0.10330000000000003          6.0698251980184637E-011
  0.10440000000000002          5.1182599825061459E-011
  0.10550000000000001          2.6215824650011044E-011
  0.10660000000000003         -1.0436786851419910E-011
  0.10770000000000002         -5.1232747211304996E-011
  0.10880000000000001         -8.6194502924019645E-011
  0.10990000000000003         -1.0511888581810069E-010
  0.11100000000000002         -1.0021230373302714E-010
  0.11210000000000001         -6.8529945607131992E-011
  0.11320000000000002         -1.3552462971300194E-011
  0.11430000000000001          5.4645413194442938E-011
  0.11540000000000003          1.2089962364569828E-010
  0.11650000000000002          1.6800992541643467E-010
  0.11760000000000001          1.8080001384923605E-010
  0.11870000000000003          1.5030258981862943E-010
  0.11980000000000002          7.7022048461383719E-011
  0.12090000000000001         -2.7695967047547398E-011
  0.12200000000000003         -1.4282326710191029E-010
  0.12310000000000001         -2.4142393639792203E-010
  0.12420000000000003         -2.9648303256912811E-010
  0.12530000000000002         -2.8762525694503438E-010
  0.12640000000000001         -2.0716556248245865E-010
  0.12750000000000003         -6.3879276868128443E-011
  0.12860000000000002          1.1677393774167655E-010
  0.12970000000000001          2.9652319488704393E-010
  0.13080000000000003          4.3185555131941555E-010
  0.13190000000000002          4.8390258466923797E-010
  0.13300000000000001          4.2850728521059978E-010
  0.13410000000000000          2.6401666963771220E-010
  0.13520000000000004          1.4602694053955645E-011
  0.13630000000000003         -2.7224836274264419E-010
  0.13740000000000002         -5.3416365775049712E-010
  0.13850000000000001         -7.0687650177703176E-010
  0.13960000000000000         -7.3916900378279138E-010
  0.14070000000000005         -6.0639798737938122E-010
  0.14180000000000004         -3.1923155785484880E-010
  0.14290000000000003          7.4963708851516486E-011
  0.14400000000000002          4.9913817523616899E-010
  0.14510000000000001          8.6113938202458939E-010
  0.14620000000000000          1.0731676658437550E-009
  0.14730000000000004          1.0720525578378215E-009
  0.14840000000000003          8.3577900156228679E-010
  0.14950000000000002          3.9219827385750250E-010
  0.15060000000000001         -1.8266023416035893E-010
  0.15170000000000000         -7.7709633172773351E-010
  0.15280000000000005         -1.2650899217092615E-009
  0.15390000000000004         -1.5324295166152524E-009
  0.15500000000000003         -1.5022453281332560E-009
  0.15610000000000002         -1.1543784816936409E-009
  0.15720000000000001         -5.3402265942636973E-010
  0.15830000000000000          2.5288729443850855E-010
  0.15940000000000004          1.0573910635969241E-009
  0.16050000000000003          1.7154038189914900E-009
  0.16160000000000002          2.0805945855073560E-009
  0.16270000000000001          2.0557189284176047E-009
  0.16380000000000000          1.6158550053546605E-009
  0.16490000000000005          8.1830336950972082E-010
  0.16600000000000004         -2.0364016029006393E-010
  0.16710000000000003         -1.2626897305523244E-009
  0.16820000000000002         -2.1517803094894816E-009
  0.16930000000000001         -2.6842434941443116E-009
  0.17040000000000000         -2.7321698237159353E-009
  0.17150000000000004         -2.2551465139741822E-009
  0.17260000000000003         -1.3131056242343675E-009
  0.17370000000000002         -5.9930067852764779E-011
  0.17480000000000001          1.2818117678392582E-009
  0.17590000000000000          2.4608051152341659E-009
  0.17700000000000005          3.2442917241581881E-009
  0.17810000000000004          3.4636804535637111E-009
  0.17920000000000003          3.0494671232617065E-009
  0.18030000000000002          2.0483501561585626E-009
  0.18140000000000001          6.1878352441979700E-010
  0.18250000000000000         -9.9464403380267186E-010
  0.18360000000000004         -2.5035435946563211E-009
  0.18470000000000003         -3.6271399217469025E-009
  0.18580000000000002         -4.1434788933258915E-009
  0.18690000000000001         -3.9312588739903731E-009
  0.18800000000000000         -2.9949069890733426E-009
  0.18910000000000005         -1.4684859994673616E-009
  0.19020000000000004          4.0241959764486523E-010
  0.19130000000000003          2.2982242775526629E-009
  0.19240000000000002          3.8767402621431302E-009
  0.19350000000000001          4.8308952393938398E-009
  0.19460000000000005          4.9441406524408649E-009
  0.19570000000000004          4.1348178214661857E-009
  0.19680000000000003          2.4816302346408747E-009
  0.19790000000000002          2.2423957135586647E-010
  0.19900000000000001         -2.2640147534502830E-009
  0.20010000000000000         -4.5302344098274716E-009
  0.20120000000000005         -6.1170553067313449E-009
  0.20230000000000004         -6.6479115545803324E-009
  0.20340000000000003         -5.9076761260712374E-009
  0.20450000000000002         -3.9020928710442604E-009
  0.20560000000000000         -8.8092566574715647E-010
  0.20670000000000005          2.6849247269922216E-009
  0.20780000000000004          6.1733973488742322E-009
  0.20890000000000003          8.9189233776210131E-009
  0.21000000000000002          1.0338476741367231E-008
  0.21110000000000001          1.0050309917630784E-008
  0.21220000000000000          7.9588655665929764E-009
  0.21330000000000005          4.2852734694065475E-009
  0.21440000000000003         -4.6546558274407346E-010
  0.21550000000000002         -5.5945550414548961E-009
  0.21660000000000001         -1.0336502320740237E-008
  0.21770000000000000         -1.3993583181104441E-008
  0.21880000000000005         -1.6046394435420552E-008
  0.21990000000000004         -1.6216239018262968E-008
  0.22100000000000003         -1.4469022424634659E-008
  0.22210000000000002         -1.0967172059395125E-008
  0.22320000000000001         -5.9907327987218650E-009
  0.22430000000000000          1.4335659048736460E-010
  0.22540000000000004          7.1363941422930566E-009
  0.22650000000000003          1.4720384911015572E-008
  0.22760000000000002          2.2626606366316082E-008
  0.22870000000000001          3.0524468286330375E-008
  0.22980000000000000          3.7954517750904415E-008
  0.23090000000000005          4.4279190092311183E-008
  0.23200000000000004          4.8664986707080971E-008
  0.23310000000000003          5.0092811676449855E-008
  0.23420000000000002          4.7376190082104586E-008
  0.23530000000000001          3.9156510922566667E-008
  0.23640000000000000          2.3845629470997665E-008
  0.23750000000000004         -5.0048898359023042E-010
  0.23860000000000003         -3.6371183398387075E-008
  0.23970000000000002         -8.7024879746877559E-008
  0.24080000000000001         -1.5670396180667012E-007
  0.24190000000000000         -2.5079984311560111E-007
  0.24300000000000005         -3.7594577406707685E-007
  0.24410000000000004         -5.4004993899070541E-007
  0.24520000000000003         -7.5231798746244749E-007
  0.24630000000000002         -1.0233469538434292E-006
  0.24740000000000001         -1.3653813084602007E-006
  0.24850000000000005         -1.7928042552739498E-006
  0.24960000000000004         -2.3229060843732441E-006
  0.25070000000000003         -2.9769089451292530E-006
  0.25180000000000002         -3.7811867059645010E-006
  0.25290000000000001         -4.7685884965176228E-006
  0.25400000000000000         -5.9797744142997544E-006
  0.25510000000000005         -7.4645072345447261E-006
  0.25620000000000004         -9.2829131972393952E-006
  0.25730000000000003         -1.1506784176162910E-005
  0.25840000000000002         -1.4221045603335369E-005
  0.25950000000000001         -1.7525548173580319E-005
  0.26060000000000005         -2.1537294742302038E-005
  0.26170000000000004         -2.6393177904537879E-005
  0.26280000000000003         -3.2253235985990614E-005
  0.26390000000000002         -3.9304315578192472E-005
  0.26500000000000001         -4.7764067858224735E-005
  0.26610000000000000         -5.7885128626367077E-005
  0.26720000000000005         -6.9959402026142925E-005
  0.26830000000000004         -8.4322477050591260E-005
  0.26940000000000003         -1.0135824413737282E-004
  0.27050000000000002         -1.2150377006037161E-004
  0.27160000000000001         -1.4525459846481681E-004
  0.27270000000000005         -1.7317045421805233E-004
  0.27380000000000004         -2.0588138431776315E-004
  0.27490000000000003         -2.4409402976743877E-004
  0.27600000000000002         -2.8859789017587900E-004
  0.27710000000000001         -3.4027124638669193E-004
  0.27820000000000000         -4.0008642827160656E-004
  0.27930000000000005         -4.6911422396078706E-004
  0.28040000000000004         -5.4852728499099612E-004
  0.28150000000000003         -6.3960230909287930E-004
  0.28260000000000002         -7.4372102972120047E-004
  0.28370000000000001         -8.6236995412036777E-004
  0.28480000000000005         -9.9713879171758890E-004
  0.28590000000000004         -1.1497166706249118E-003
  0.28700000000000003         -1.3218864332884550E-003
  0.28810000000000002         -1.5155156143009663E-003
  0.28920000000000001         -1.7325447406619787E-003
  0.29030000000000000         -1.9749714992940426E-003
  0.29140000000000005         -2.2448310628533363E-003
  0.29250000000000004         -2.5441716425120831E-003
  0.29360000000000003         -2.8750277124345303E-003
  0.29470000000000002         -3.2393871806561947E-003
  0.29580000000000001         -3.6391559988260269E-003
  0.29690000000000005         -4.0761185809969902E-003
  0.29800000000000004         -4.5518944971263409E-003
  0.29910000000000003         -5.0678919069468975E-003
  0.30020000000000002         -5.6252568028867245E-003
  0.30130000000000001         -6.2248199246823788E-003
  0.30240000000000000         -6.8670399487018585E-003
  0.30350000000000005         -7.5519443489611149E-003
  0.30460000000000004         -8.2790693268179893E-003
  0.30570000000000003         -9.0474002063274384E-003
  0.30680000000000002         -9.8553122952580452E-003
  0.30790000000000001         -1.0700517334043980E-002
  0.30900000000000005         -1.1580012738704681E-002
  0.31010000000000004         -1.2490037828683853E-002
  0.31120000000000003         -1.3426036573946476E-002
  0.31230000000000002         -1.4382629655301571E-002
  0.31340000000000001         -1.5353597700595856E-002
  0.31450000000000006         -1.6331871971487999E-002
  0.31560000000000005         -1.7309540882706642E-002
  0.31670000000000004         -1.8277874216437340E-002
  0.31780000000000003         -1.9227355718612671E-002
  0.31890000000000002         -2.0147735252976418E-002
  0.32000000000000001         -2.1028101444244385E-002
  0.32110000000000005         -2.1856971085071564E-002
  0.32220000000000004         -2.2622395306825638E-002
  0.32330000000000003         -2.3312078788876534E-002
  0.32440000000000002         -2.3913526907563210E-002
  0.32550000000000001         -2.4414196610450745E-002
  0.32660000000000006         -2.4801664054393768E-002
  0.32770000000000005         -2.5063805282115936E-002
  0.32880000000000004         -2.5188982486724854E-002
  0.32990000000000003         -2.5166245177388191E-002
  0.33100000000000002         -2.4985520169138908E-002
  0.33210000000000001         -2.4637814611196518E-002
  0.33320000000000005         -2.4115405976772308E-002
  0.33430000000000004         -2.3412032052874565E-002
  0.33540000000000003         -2.2523067891597748E-002
  0.33650000000000002         -2.1445680409669876E-002
  0.33760000000000001         -2.0178973674774170E-002
  0.33870000000000006         -1.8724104389548302E-002
  0.33980000000000005         -1.7084365710616112E-002
  0.34090000000000004         -1.5265249647200108E-002
  0.34200000000000003         -1.3274473138153553E-002
  0.34310000000000002         -1.1121969670057297E-002
  0.34420000000000001         -8.8198482990264893E-003
  0.34530000000000005         -6.3823140226304531E-003
  0.34640000000000004         -3.8255564868450165E-003
  0.34750000000000003         -1.1676024878397584E-003
  0.34860000000000002          1.5718681970611215E-003
  0.34970000000000001          4.3717380613088608E-003
  0.35080000000000006          7.2096968069672585E-003
  0.35190000000000005          1.0062510147690773E-002
  0.35300000000000004          1.2906311079859734E-002
  0.35410000000000003          1.5716904774308205E-002
  0.35520000000000002          1.8470082432031631E-002
  0.35630000000000001          2.1141942590475082E-002
  0.35740000000000005          2.3709213361144066E-002
  0.35850000000000004          2.6149561628699303E-002
  0.35960000000000003          2.8441900387406349E-002
  0.36070000000000002          3.0566668137907982E-002
  0.36180000000000001          3.2506093382835388E-002
  0.36290000000000006          3.4244421869516373E-002
  0.36400000000000005          3.5768121480941772E-002
  0.36510000000000004          3.7066053599119186E-002
  0.36620000000000003          3.8129586726427078E-002
  0.36730000000000002          3.8952693343162537E-002
  0.36840000000000006          3.9532002061605453E-002
  0.36950000000000005          3.9866793900728226E-002
  0.37060000000000004          3.9958965033292770E-002
  0.37170000000000003          3.9812959730625153E-002
  0.37280000000000002          3.9435651153326035E-002
  0.37390000000000001          3.8836196064949036E-002
  0.37500000000000006          3.8025856018066406E-002
  0.37610000000000005          3.7017792463302612E-002
  0.37720000000000004          3.5826832056045532E-002
  0.37830000000000003          3.4469217061996460E-002
  0.37940000000000002          3.2962344586849213E-002
  0.38050000000000006          3.1324498355388641E-002
  0.38160000000000005          2.9574574902653694E-002
  0.38270000000000004          2.7731822803616524E-002
  0.38380000000000003          2.5815572589635849E-002
  0.38490000000000002          2.3844987154006958E-002
  0.38600000000000001          2.1838821470737457E-002
  0.38710000000000000          1.9815206527709961E-002
  0.38819999999999999          1.7791446298360825E-002
  0.38930000000000009          1.5783846378326416E-002
  0.39040000000000008          1.3807572424411774E-002
  0.39150000000000007          1.1876528151333332E-002
  0.39260000000000006          1.0003259405493736E-002
  0.39370000000000005          8.1988880410790443E-003
  0.39480000000000004          6.4730648882687092E-003
  0.39590000000000003          4.8339497298002243E-003
  0.39700000000000002          3.2882178202271461E-003
  0.39810000000000001          1.8410874763503671E-003
  0.39920000000000000          4.9637019401416183E-004
  0.40029999999999999         -7.4346363544464111E-004
  0.40140000000000009         -1.8772034673020244E-003
  0.40250000000000008         -2.9048074502497911E-003
  0.40360000000000007         -3.8273015525192022E-003
  0.40470000000000006         -4.6466710045933723E-003
  0.40580000000000005         -5.3657512180507183E-003
  0.40690000000000004         -5.9881131164729595E-003
  0.40800000000000003         -6.5179523080587387E-003
  0.40910000000000002         -6.9599794223904610E-003
  0.41020000000000001         -7.3193153366446495E-003
  0.41130000000000000         -7.6013896614313126E-003
  0.41239999999999999         -7.8118434175848961E-003
  0.41350000000000009         -7.9564414918422699E-003
  0.41460000000000008         -8.0409888178110123E-003
  0.41570000000000007         -8.0712586641311646E-003
  0.41680000000000006         -8.0529293045401573E-003
  0.41790000000000005         -7.9915290698409081E-003
  0.41900000000000004         -7.8923907130956650E-003
  0.42010000000000003         -7.7606146223843098E-003
  0.42120000000000002         -7.6010385528206825E-003
  0.42230000000000001         -7.4182134121656418E-003
  0.42340000000000000         -7.2163874283432961E-003
  0.42449999999999999         -6.9994959048926830E-003
  0.42560000000000009         -6.7711547017097473E-003
  0.42670000000000008         -6.5346574410796165E-003
  0.42780000000000007         -6.2929773703217506E-003
  0.42890000000000006         -6.0487706214189529E-003
  0.43000000000000005         -5.8043817989528179E-003
  0.43110000000000004         -5.5618528276681900E-003
  0.43220000000000003         -5.3229373879730701E-003
  0.43330000000000002         -5.0891172140836716E-003
  0.43440000000000001         -4.8616221174597740E-003
  0.43550000000000000         -4.6414514072239399E-003
  0.43659999999999999         -4.4293906539678574E-003
  0.43770000000000009         -4.2260298505425453E-003
  0.43880000000000008         -4.0317764505743980E-003
  0.43990000000000007         -3.8468698039650917E-003
  0.44100000000000006         -3.6713944282382727E-003
  0.44210000000000005         -3.5052967723459005E-003
  0.44320000000000004         -3.3484036102890968E-003
  0.44430000000000003         -3.2004425302147865E-003
  0.44540000000000002         -3.0610610265284777E-003
  0.44650000000000001         -2.9298467561602592E-003
  0.44760000000000000         -2.8063436038792133E-003
  0.44869999999999999         -2.6900668162852526E-003
  0.44980000000000009         -2.5805155746638775E-003
  0.45090000000000008         -2.4771834723651409E-003
  0.45200000000000007         -2.3795682936906815E-003
  0.45310000000000006         -2.2871806286275387E-003
  0.45420000000000005         -2.1995527204126120E-003
  0.45530000000000004         -2.1162473130971193E-003
  0.45640000000000003         -2.0368651021271944E-003
  0.45750000000000002         -1.9610507879406214E-003
  0.45860000000000001         -1.8884968012571335E-003
  0.45970000000000000         -1.8189451657235622E-003
  0.46079999999999999         -1.7521865665912628E-003
  0.46190000000000009         -1.6880584880709648E-003
  0.46300000000000008         -1.6264428850263357E-003
  0.46410000000000007         -1.5672638546675444E-003
  0.46520000000000006         -1.5104837948456407E-003
  0.46630000000000005         -1.4560986310243607E-003
  0.46740000000000004         -1.4041303656995296E-003
  0.46850000000000003         -1.3546177651733160E-003
  0.46960000000000002         -1.3076065806671977E-003
  0.47070000000000001         -1.2631395366042852E-003
  0.47180000000000000         -1.2212485307827592E-003
  0.47289999999999999         -1.1819491628557444E-003
  0.47400000000000009         -1.1452377075329423E-003
  0.47510000000000008         -1.1110884370282292E-003
  0.47620000000000007         -1.0794526897370815E-003
  0.47730000000000006         -1.0502567747607827E-003
  0.47840000000000005         -1.0234010405838490E-003