 -0.12000000000000000          0.0000000000000000     
 -0.11889999999999999          0.0000000000000000     
 -0.11780000000000000          0.0000000000000000     
 -0.11670000000000000          0.0000000000000000     
 -0.11559999999999999          0.0000000000000000     
 -0.11449999999999999          0.0000000000000000     
 -0.11340000000000000          0.0000000000000000     
 -0.11230000000000000          0.0000000000000000     
 -0.11119999999999999          0.0000000000000000     
 -0.11009999999999999          0.0000000000000000     
 -0.10900000000000000          0.0000000000000000     
 -0.10790000000000000          0.0000000000000000     
 -0.10679999999999999          0.0000000000000000     
 -0.10569999999999999         -1.2631537133179048E-044
 -0.10460000000000000         -2.4577860810004127E-043
 -0.10349999999999999          1.5530109915400823E-038
 -0.10239999999999999          1.4795761553224546E-037
 -0.10130000000000000          7.1623623531072165E-037
 -0.10020000000000000          3.0152519334461659E-036
  -9.9099999999999994E-002     1.0642097576180225E-035
  -9.7999999999999990E-002     3.1092981956187969E-035
  -9.6899999999999986E-002     7.3856211166928278E-035
  -9.5799999999999996E-002     1.3642096906587302E-034
  -9.4699999999999993E-002     1.7091419699348735E-034
  -9.3599999999999989E-002     5.0909184195158296E-035
  -9.2499999999999999E-002    -3.8451357978220765E-034
  -9.1399999999999995E-002    -1.1196178386710377E-033
  -9.0299999999999991E-002    -1.7072358193712483E-033
  -8.9200000000000002E-002    -1.5740727111487076E-033
  -8.8099999999999984E-002    -1.5343949454149097E-033
  -8.6999999999999994E-002    -5.1577618391187923E-033
  -8.5899999999999990E-002    -1.4248315829364602E-032
  -8.4799999999999986E-002    -1.2001077434190325E-032
  -8.3699999999999997E-002     5.5153477344727102E-032
  -8.2599999999999993E-002     2.4360169971182766E-031
  -8.1499999999999989E-002     4.4752091079372784E-031
  -8.0399999999999999E-002     1.3332482090226295E-031
  -7.9299999999999995E-002    -1.6446414805600324E-030
  -7.8199999999999992E-002    -5.1622434173909242E-030
  -7.7100000000000002E-002    -7.4316203019342603E-030
  -7.5999999999999984E-002     1.5880888800662029E-031
  -7.4899999999999994E-002     2.8359752925565472E-029
  -7.3799999999999991E-002     7.3572521623657301E-029
  -7.2699999999999987E-002     9.0160648930850110E-029
  -7.1599999999999997E-002    -2.1493516928080012E-029
  -7.0499999999999993E-002    -3.5523559731893708E-028
  -6.9399999999999989E-002    -8.2234320412747732E-028
  -6.8300000000000000E-002    -9.2129688945612025E-028
  -6.7199999999999996E-002     2.7097759782132519E-028
  -6.6099999999999992E-002     3.4521272478581731E-027
  -6.5000000000000002E-002     7.5916387665250491E-027
  -6.3899999999999985E-002     8.3181877825632378E-027
  -6.2799999999999995E-002    -1.6197084865042459E-027
  -6.1699999999999991E-002    -2.6995362146361351E-026
  -6.0599999999999994E-002    -5.9341926786111002E-026
  -5.9499999999999990E-002    -6.6897179649561384E-026
  -5.8399999999999994E-002     2.3512688757737342E-028
  -5.7299999999999990E-002     1.7352520363140287E-025
  -5.6199999999999986E-002     3.9865787446822235E-025
  -5.5099999999999996E-002     4.7751960126189552E-025
  -5.3999999999999992E-002     1.0363824920606038E-025
  -5.2899999999999989E-002    -9.2421498080415645E-025
  -5.1799999999999985E-002    -2.3250483907024233E-024
  -5.0699999999999995E-002    -3.0191332082021725E-024
  -4.9599999999999991E-002    -1.3082979106683694E-024
  -4.8499999999999988E-002     4.0316478589959652E-024
  -4.7399999999999998E-002     1.1838166680308809E-023
  -4.6299999999999994E-002     1.6919625231771970E-023
  -4.5199999999999990E-002     1.0742409310749312E-023
  -4.4099999999999986E-002    -1.3619545459554471E-023
  -4.2999999999999997E-002    -5.2618798959631038E-023
  -4.1899999999999993E-002    -8.4170678787348341E-023
  -4.0799999999999989E-002    -6.9314375007004265E-023
  -3.9699999999999985E-002     2.7835349545585621E-023
  -3.8599999999999995E-002     2.0242661667396496E-022
  -3.7499999999999992E-002     3.7175154728573158E-022
  -3.6399999999999988E-002     3.7433635878995030E-022
  -3.5299999999999984E-002     4.1252665016024422E-023
  -3.4199999999999994E-002    -6.5728770913172645E-022
  -3.3099999999999991E-002    -1.4531453317664952E-021
  -3.1999999999999987E-002    -1.7409196418269588E-021
  -3.0899999999999997E-002    -8.0073377023792924E-022
  -2.9799999999999993E-002     1.6804622494570410E-021
  -2.8699999999999989E-002     4.9820426809595292E-021
  -2.7599999999999986E-002     7.0651514462720870E-021
  -2.6499999999999996E-002     5.1591235222170415E-021
  -2.5399999999999992E-002    -2.5552853187170768E-021
  -2.4299999999999988E-002    -1.4674871474960989E-020
  -2.3199999999999985E-002    -2.5112512144600565E-020
  -2.2099999999999995E-002    -2.4266110018516025E-020
  -2.0999999999999991E-002    -3.8996660911334960E-021
  -1.9899999999999987E-002     3.5344824632045248E-020
  -1.8799999999999983E-002     7.7770816054385400E-020
  -1.7699999999999994E-002     9.3579423337641607E-020
  -1.6599999999999990E-002     5.1328128773399426E-020
  -1.5499999999999986E-002    -5.9523803773501094E-020
  -1.4399999999999996E-002    -2.0607819349011130E-019
  -1.3299999999999992E-002    -3.0639327379589636E-019
  -1.2199999999999989E-002    -2.5631685753581410E-019
  -1.1099999999999985E-002     9.6692098817433676E-021
  -9.9999999999999950E-003     4.4602600518049925E-019
  -8.8999999999999913E-003     8.5721089092341991E-019
  -7.7999999999999875E-003     9.4106279082625164E-019
  -6.6999999999999837E-003     4.3422033091128463E-019
  -5.5999999999999939E-003    -6.8138341080656474E-019
  -4.4999999999999901E-003    -2.0190874093051450E-018
  -3.3999999999999864E-003    -2.8130651077911388E-018
  -2.2999999999999826E-003    -2.2171937532497737E-018
  -1.1999999999999927E-003     1.7289146058862740E-019
  -9.9999999999988987E-005     3.8044045625496899E-018
   1.0000000000000148E-003     7.0081332596010828E-018
   2.1000000000000185E-003     7.4910241126983471E-018
   3.2000000000000084E-003     3.4961606213943372E-018
   4.3000000000000121E-003    -4.7876218841247246E-018
   5.4000000000000159E-003    -1.4357916087466442E-017
   6.5000000000000058E-003    -1.9901300456750511E-017
   7.6000000000000234E-003    -1.6009356883720471E-017
   8.7000000000000133E-003    -5.1350753390982831E-019
   9.8000000000000032E-003     2.2646871397258395E-017
   1.0900000000000021E-002     4.3037792716436607E-017
   1.2000000000000011E-002     4.7181917501910039E-017
   1.3100000000000001E-002     2.5400436485764540E-017
   1.4200000000000018E-002    -2.0701701720386712E-017
   1.5300000000000008E-002    -7.4414140099686717E-017
   1.6400000000000026E-002    -1.0760609297946695E-016
   1.7500000000000016E-002    -9.2740663981897294E-017
   1.8600000000000005E-002    -1.9312308548550134E-017
   1.9700000000000023E-002     9.3393430229240660E-017
   2.0800000000000013E-002     1.9620760947434009E-016
   2.1900000000000003E-002     2.2743923873577323E-016
   2.3000000000000020E-002     1.4385072108189860E-016
   2.4100000000000010E-002    -4.8034230669502347E-017
   2.5200000000000000E-002    -2.7844409894694849E-016
   2.6300000000000018E-002    -4.3264319695950306E-016
   2.7400000000000008E-002    -4.0105470725738600E-016
   2.8500000000000025E-002    -1.4274690833763116E-016
   2.9600000000000015E-002     2.6996149675806377E-016
   3.0700000000000005E-002     6.5733269684461868E-016
   3.1800000000000023E-002     8.0071024408799564E-016
   3.2900000000000013E-002     5.5348955837440314E-016
   3.4000000000000002E-002    -5.6186032025211399E-017
   3.5100000000000020E-002    -7.9200410981980080E-016
   3.6200000000000010E-002    -1.2842715841284246E-015
   3.7300000000000028E-002    -1.2008798490943525E-015
   3.8400000000000017E-002    -4.4382088490980566E-016
   3.9500000000000007E-002     7.3373294626500439E-016
   4.0600000000000025E-002     1.7781998529794452E-015
   4.1700000000000015E-002     2.0705713638540192E-015
   4.2800000000000005E-002     1.2608485400658942E-015
   4.3900000000000022E-002    -4.6256710671241416E-016
   4.5000000000000012E-002    -2.3397160645352489E-015
   4.6100000000000002E-002    -3.3237123392070541E-015
   4.7200000000000020E-002    -2.6047759568354301E-015
   4.8300000000000010E-002    -1.3816013570617767E-016
   4.9400000000000027E-002     3.1233928503311054E-015
   5.0500000000000017E-002     5.5024577322445060E-015
   5.1600000000000007E-002     5.3535700507732083E-015
   5.2700000000000025E-002     2.0045153312959132E-015
   5.3800000000000014E-002    -3.5966347147498918E-015
   5.4900000000000004E-002    -8.9646230891216787E-015
   5.6000000000000022E-002    -1.1030723176602471E-014
   5.7100000000000012E-002    -7.6635261410046728E-015
   5.8200000000000002E-002     9.2927419316225647E-016
   5.9300000000000019E-002     1.1701660071813310E-014
   6.0400000000000009E-002     1.9652023608593269E-014
   6.1500000000000027E-002     1.9938835034160851E-014
   6.2600000000000017E-002     1.0397272268941764E-014
   6.3700000000000007E-002    -6.7587946410372766E-015
   6.4800000000000024E-002    -2.5086103007260731E-014
   6.5900000000000014E-002    -3.6195614037614454E-014
   6.7000000000000004E-002    -3.3416807399665951E-014
   6.8100000000000022E-002    -1.5262738889821263E-014
   6.9200000000000012E-002     1.3034486308484116E-014
   7.0300000000000029E-002     4.0939243502603810E-014
   7.1400000000000019E-002     5.6674210789255587E-014
   7.2500000000000009E-002     5.2283597266475107E-014
   7.3600000000000027E-002     2.7392879470549361E-014
   7.4700000000000016E-002    -1.0196653755968460E-014
   7.5800000000000006E-002    -4.7507528042178633E-014
   7.6900000000000024E-002    -7.1648112780407373E-014
   7.8000000000000014E-002    -7.4831581289096753E-014
   7.9100000000000004E-002    -5.6752179061888072E-014
   8.0200000000000021E-002    -2.3351843046416928E-014
   8.1300000000000011E-002     1.6942629970803092E-014
   8.2400000000000029E-002     5.6934950005493509E-014
   8.3500000000000019E-002     9.1798343717967010E-014
   8.4600000000000009E-002     1.1689299498121808E-013
   8.5700000000000026E-002     1.2415788166194638E-013
   8.6800000000000016E-002     1.0084591846278616E-013
   8.7900000000000006E-002     3.3959429305197369E-014
   8.9000000000000024E-002    -7.9385668365259715E-014
   9.0100000000000013E-002    -2.2006430624362957E-013
   9.1200000000000003E-002    -3.4146891468478679E-013
   9.2300000000000021E-002    -3.7816149762683451E-013
   9.3400000000000011E-002    -2.7101411315636491E-013
   9.4500000000000028E-002    -2.1347125021695378E-015
   9.5600000000000018E-002     3.7588290018836021E-013
   9.6700000000000008E-002     7.3510962332088684E-013
   9.7800000000000026E-002     9.0455337157699329E-013
   9.8900000000000016E-002     7.3716025690608287E-013
  0.10000000000000001          1.9006436618442779E-013
  0.10110000000000002         -6.1764645203761754E-013
  0.10220000000000001         -1.4059379430402308E-012
  0.10330000000000003         -1.8123703289268385E-012
  0.10440000000000002         -1.5348541132019797E-012
  0.10550000000000001         -4.9036857616459179E-013
  0.10660000000000003          1.0802289138757216E-012
  0.10770000000000002          2.6256298506596716E-012
  0.10880000000000001          3.4429605728559168E-012
  0.10990000000000003          2.9500760303610937E-012
  0.11100000000000002          9.7952804016763813E-013
  0.11210000000000001         -2.0306520110048452E-012
  0.11320000000000002         -5.0599159870962892E-012
  0.11430000000000001         -6.7863866327201847E-012
  0.11540000000000003         -6.0703552608692361E-012
  0.11650000000000002         -2.4852653113600273E-012
  0.11760000000000001          3.3139146632927680E-012
  0.11870000000000003          9.5748082943484297E-012
  0.11980000000000002          1.3872031566436519E-011
  0.12090000000000001          1.3901633791652326E-011
  0.12200000000000003          8.4143589529972638E-012
  0.12310000000000001         -2.0443082859183899E-012
  0.12420000000000003         -1.4910324213746246E-011
  0.12530000000000002         -2.6082459617328649E-011
  0.12640000000000001         -3.1069334899255359E-011
  0.12750000000000003         -2.6510215255308810E-011
  0.12860000000000002         -1.1591524288176409E-011
  0.12970000000000001          1.1160476542278575E-011
  0.13080000000000003          3.6091418739045474E-011
  0.13190000000000002          5.5720290502955347E-011
  0.13300000000000001          6.2849322273534816E-011
  0.13410000000000000          5.2884544360111686E-011
  0.13520000000000004          2.5622739798412986E-011
  0.13630000000000003         -1.4142732353317700E-011
  0.13740000000000002         -5.7509321769762703E-011
  0.13850000000000001         -9.3676915380239744E-011
  0.13960000000000000         -1.1284747711203829E-010
  0.14070000000000005         -1.0889641088701047E-010
  0.14180000000000004         -8.0934259213683146E-011
  0.14290000000000003         -3.3247700379852083E-011
  0.14400000000000002          2.6291688204030424E-011
  0.14510000000000001          8.8651066589107854E-011
  0.14620000000000000          1.4582314468745683E-010
  0.14730000000000004          1.9177544137822214E-010
  0.14840000000000003          2.2170894492789550E-010
  0.14950000000000002          2.3004053814521011E-010
  0.15060000000000001          2.0837281031001179E-010
  0.15170000000000000          1.4514450055943454E-010
  0.15280000000000005          2.8350883294683891E-011
  0.15390000000000004         -1.4837201559417852E-010
  0.15500000000000003         -3.7761813442453588E-010
  0.15610000000000002         -6.3090974208745989E-010
  0.15720000000000001         -8.5589801556299449E-010
  0.15830000000000000         -9.8123603351002028E-010
  0.15940000000000004         -9.3034739331553547E-010
  0.16050000000000003         -6.4233952098076955E-010
  0.16160000000000002         -9.5238072255202174E-011
  0.16270000000000001          6.7529292223715694E-010
  0.16380000000000000          1.5685697822421456E-009
  0.16490000000000005          2.4272769680302086E-009
  0.16600000000000004          3.0617933885642006E-009
  0.16710000000000003          3.2858077307685751E-009
  0.16820000000000002          2.9548847372394870E-009
  0.16930000000000001          1.9985739034219561E-009
  0.17040000000000000          4.3877433385304481E-010
  0.17150000000000004         -1.6082158341718783E-009
  0.17260000000000003         -3.9430120148258243E-009
  0.17370000000000002         -6.3008113786472894E-009
  0.17480000000000001         -8.3677820133107977E-009
  0.17590000000000000         -9.7920074195135695E-009
  0.17700000000000005         -1.0191292206860956E-008
  0.17810000000000004         -9.1669883146532794E-009
  0.17920000000000003         -6.3368336846806786E-009
  0.18030000000000002         -1.3979234549073279E-009
  0.18140000000000001          5.7774069006295821E-009
  0.18250000000000000          1.5022917150758516E-008
  0.18360000000000004          2.5760318205586493E-008
  0.18470000000000003          3.6912965083915673E-008
  0.18580000000000002          4.6881026508052502E-008
  0.18690000000000001          5.3594748536993130E-008
  0.18800000000000000          5.4640228936127093E-008
  0.18910000000000005          4.7427199281204131E-008
  0.19020000000000004          2.9348372241530418E-008
  0.19130000000000003         -2.1270735706378379E-009
  0.19240000000000002         -4.9473695667643342E-008
  0.19350000000000001         -1.1526666104474033E-007
  0.19460000000000005         -2.0246566605501221E-007
  0.19570000000000004         -3.1478623702146147E-007
  0.19680000000000003         -4.5710233660268929E-007
  0.19790000000000002         -6.3582830009263139E-007
  0.19900000000000001         -8.5925218498732294E-007
  0.20010000000000000         -1.1378306402629691E-006
  0.20120000000000005         -1.4844924005419875E-006
  0.20230000000000004         -1.9150218105570762E-006
  0.20340000000000003         -2.4485953430797082E-006
  0.20450000000000002         -3.1085190639708355E-006
  0.20560000000000000         -3.9231750076602474E-006
  0.20670000000000005         -4.9271421846144042E-006
  0.20780000000000004         -6.1624275509504911E-006
  0.20890000000000003         -7.6797448736935031E-006
  0.21000000000000002         -9.5398127942654806E-006
  0.21110000000000001         -1.1814696688886852E-005
  0.21220000000000000         -1.4589276212753352E-005
  0.21330000000000005         -1.7962973735751266E-005
  0.21440000000000003         -2.2051872638381466E-005
  0.21550000000000002         -2.6991331555939739E-005
  0.21660000000000001         -3.2939136663563195E-005
  0.21770000000000000         -4.0079119764319664E-005
  0.21880000000000005         -4.8625160926607221E-005
  0.21990000000000004         -5.8825408582405871E-005
  0.22100000000000003         -7.0966586034640924E-005
  0.22210000000000002         -8.5378336768535904E-005
  0.22320000000000001         -1.0243759842660022E-004
  0.22430000000000000         -1.2257309059896993E-004
  0.22540000000000004         -1.4627005046839671E-004
  0.22650000000000003         -1.7407519322127298E-004
  0.22760000000000002         -2.0660211775772849E-004
  0.22870000000000001         -2.4453679176251629E-004
  0.22980000000000000         -2.8864306646061901E-004
  0.23090000000000005         -3.3976800071872689E-004
  0.23200000000000004         -3.9884651229378667E-004
  0.23310000000000003         -4.6690524932397584E-004
  0.23420000000000002         -5.4506559167047483E-004
  0.23530000000000001         -6.3454556012722328E-004
  0.23640000000000000         -7.3666052098936155E-004
  0.23750000000000004         -8.5282267361871619E-004
  0.23860000000000003         -9.8453902188715657E-004
  0.23970000000000002         -1.1334075384049841E-003
  0.24080000000000001         -1.3011110410582733E-003
  0.24190000000000000         -1.4894084408179579E-003
  0.24300000000000005         -1.7001227644901779E-003
  0.24410000000000004         -1.9351259821469916E-003
  0.24520000000000003         -2.1963199867596752E-003
  0.24630000000000002         -2.4856136909986292E-003
  0.24740000000000001         -2.8048973083854203E-003
  0.24850000000000005         -3.1560128932748449E-003
  0.24960000000000004         -3.5407214479565539E-003
  0.25070000000000003         -3.9606663043309787E-003
  0.25180000000000002         -4.4173342360069937E-003
  0.25290000000000001         -4.9120115362452973E-003
  0.25400000000000000         -5.4457375230526515E-003
  0.25510000000000005         -6.0192557262277128E-003
  0.25620000000000004         -6.6329611734940687E-003
  0.25730000000000003         -7.2868500934566531E-003
  0.25840000000000002         -7.9804628169869787E-003
  0.25950000000000001         -8.7128344889243082E-003
  0.26060000000000005         -9.4824410819915796E-003
  0.26170000000000004         -1.0287158566249316E-002
  0.26280000000000003         -1.1124213065535474E-002
  0.26390000000000002         -1.1990144874992165E-002
  0.26500000000000001         -1.2880779185572426E-002
  0.26610000000000000         -1.3791198921725787E-002
  0.26720000000000005         -1.4715730867476788E-002
  0.26830000000000004         -1.5647939245757851E-002
  0.26940000000000003         -1.6580638427623907E-002
  0.27050000000000002         -1.7505912126110558E-002
  0.27160000000000001         -1.8415149603224552E-002
  0.27270000000000005         -1.9299098721596998E-002
  0.27380000000000004         -2.0147934247983296E-002
  0.27490000000000003         -2.0951334947310114E-002
  0.27600000000000002         -2.1698585587781885E-002
  0.27710000000000001         -2.2378684844837824E-002
  0.27820000000000000         -2.2980469514129007E-002
  0.27930000000000005         -2.3492745829405214E-002
  0.28040000000000004         -2.3904447088177148E-002
  0.28150000000000003         -2.4204783484980296E-002
  0.28260000000000002         -2.4383419247429587E-002
  0.28370000000000001         -2.4430638832852399E-002
  0.28480000000000005         -2.4337529526977181E-002
  0.28590000000000004         -2.4096152229076413E-002
  0.28700000000000003         -2.3699710310906400E-002
  0.28810000000000002         -2.3142704135681428E-002
  0.28920000000000001         -2.2421087978108160E-002
  0.29030000000000000         -2.1532401974970680E-002
  0.29140000000000005         -2.0475882752457819E-002
  0.29250000000000004         -1.9252562350284365E-002
  0.29360000000000003         -1.7865341393908656E-002
  0.29470000000000002         -1.6319033378816947E-002
  0.29580000000000001         -1.4620387859833883E-002
  0.29690000000000005         -1.2778077940985857E-002
  0.29800000000000004         -1.0802662935659535E-002
  0.29910000000000003         -8.7065132868152321E-003
  0.30020000000000002         -6.5037040802117772E-003
  0.30130000000000001         -4.2098790556003600E-003
  0.30240000000000000         -1.8420857891144476E-003
  0.30350000000000005          5.8141603121873741E-004
  0.30460000000000004          3.0413687381867075E-003
  0.30570000000000003          5.5177489287257511E-003
  0.30680000000000002          7.9900198032489267E-003
  0.30790000000000001          1.0437389956601900E-002
  0.30900000000000005          1.2839085839143782E-002
  0.31010000000000004          1.5174625243925894E-002
  0.31120000000000003          1.7424091635687897E-002
  0.31230000000000002          1.9568400012494158E-002
  0.31340000000000001          2.1589549297233508E-002
  0.31450000000000006          2.3470868095833260E-002
  0.31560000000000005          2.5197235743092863E-002
  0.31670000000000004          2.6755270396972845E-002
  0.31780000000000003          2.8133498248085236E-002
  0.31890000000000002          2.9322492335320298E-002
  0.32000000000000001          3.0314963297758374E-002
  0.32110000000000005          3.1105832259450496E-002
  0.32220000000000004          3.1692268183419275E-002
  0.32330000000000003          3.2073685051974186E-002
  0.32440000000000002          3.2251700408873214E-002
  0.32550000000000001          3.2230071457411601E-002
  0.32660000000000006          3.2014599479937005E-002
  0.32770000000000005          3.1612978580212406E-002
  0.32880000000000004          3.1034653432052764E-002
  0.32990000000000003          3.0290629919565604E-002
  0.33100000000000002          2.9393291342216479E-002
  0.33210000000000001          2.8356178231505581E-002
  0.33320000000000005          2.7193770661536377E-002
  0.33430000000000004          2.5921262619751799E-002
  0.33540000000000003          2.4554332249949462E-002
  0.33650000000000002          2.3108923939036727E-002
  0.33760000000000001          2.1601015203166589E-002
  0.33870000000000006          2.0046414599914728E-002
  0.33980000000000005          1.8460563007201738E-002
  0.34090000000000004          1.6858349575634791E-002
  0.34200000000000003          1.5253952728251200E-002
  0.34310000000000002          1.3660704719641516E-002
  0.34420000000000001          1.2090975010905450E-002
  0.34530000000000005          1.0556075108493594E-002
  0.34640000000000004          9.0661880326629307E-003
  0.34750000000000003          7.6303111349540556E-003
  0.34860000000000002          6.2562286144265929E-003
  0.34970000000000001          4.9504972866045325E-003
  0.35080000000000006          3.7184570174003369E-003
  0.35190000000000005          2.5642587156135604E-003
  0.35300000000000004          1.4909058438320557E-003
  0.35410000000000003          5.0031271540125228E-004
  0.35520000000000002         -4.0662322302719702E-004
  0.35630000000000001         -1.2299405260573816E-003
  0.35740000000000005         -1.9705258195972571E-003
  0.35850000000000004         -2.6300220223268297E-003
  0.35960000000000003         -3.2107363804776325E-003
  0.36070000000000002         -3.7155502911055118E-003
  0.36180000000000001         -4.1478311703155553E-003
  0.36290000000000006         -4.5113470892823651E-003
  0.36400000000000005         -4.8101800776679509E-003
  0.36510000000000004         -5.0486436900117554E-003
  0.36620000000000003         -5.2312046195899624E-003
  0.36730000000000002         -5.3624095492573343E-003
  0.36840000000000006         -5.4468237453585864E-003
  0.36950000000000005         -5.4889726058099724E-003
  0.37060000000000004         -5.4932954297772247E-003
  0.37170000000000003         -5.4641040378151720E-003
  0.37280000000000002         -5.4055489250184087E-003
  0.37390000000000001         -5.3215918382108884E-003
  0.37500000000000006         -5.2159855463656535E-003
  0.37610000000000005         -5.0922575205459113E-003
  0.37720000000000004         -4.9536949698194884E-003
  0.37830000000000003         -4.8033367012129541E-003
  0.37940000000000002         -4.6439656268349432E-003
  0.38050000000000006         -4.4781084953670293E-003
  0.38160000000000005         -4.3080356027584664E-003
  0.38270000000000004         -4.1357684997707176E-003
  0.38380000000000003         -3.9630894653283205E-003
  0.38490000000000002         -3.7915541145377377E-003
  0.38600000000000001         -3.6224988201750165E-003
  0.38710000000000000         -3.4570517485945761E-003
  0.38819999999999999         -3.2961411225159122E-003
  0.38930000000000009         -3.1405065575710483E-003
  0.39040000000000008         -2.9907102022789823E-003
  0.39150000000000007         -2.8471530937748697E-003
  0.39260000000000006         -2.7100924465848844E-003
  0.39370000000000005         -2.5796588449671734E-003
  0.39480000000000004         -2.4558724557337546E-003
  0.39590000000000003         -2.3386598246838129E-003
  0.39700000000000002         -2.2278693680616588E-003
  0.39810000000000001         -2.1232838012114107E-003
  0.39920000000000000         -2.0246336481993675E-003
  0.40029999999999999         -1.9316094393895442E-003
  0.40140000000000009         -1.8438724922239485E-003
  0.40250000000000008         -1.7610656547219642E-003
  0.40360000000000007         -1.6828249236002990E-003
  0.40470000000000006         -1.6087905378533095E-003
  0.40580000000000005         -1.5386175051258105E-003
  0.40690000000000004         -1.4719832997356927E-003
  0.40800000000000003         -1.4085935759184716E-003
  0.40910000000000002         -1.3481857982641497E-003
  0.41020000000000001         -1.2905313425449229E-003
  0.41130000000000000         -1.2354361698938181E-003
  0.41239999999999999         -1.1827408017453171E-003
  0.41350000000000009         -1.1323193560040545E-003
  0.41460000000000008         -1.0840764080233675E-003
  0.41570000000000007         -1.0379422463750803E-003
  0.41680000000000006         -9.9386758651899684E-004
  0.41790000000000005         -9.5181776358944556E-004
  0.41900000000000004         -9.1176838553744147E-004
  0.42010000000000003         -8.7370057077907986E-004
  0.42120000000000002         -8.3759677028878233E-004
  0.42230000000000001         -8.0343615943512746E-004
  0.42340000000000000         -7.7118957761982603E-004
  0.42449999999999999         -7.4081559388093220E-004
  0.42560000000000009         -7.1225772506740997E-004
  0.42670000000000008         -6.8544321916349051E-004
  0.42780000000000007         -6.6028289325651822E-004
  0.42890000000000006         -6.3667124882500412E-004
  0.43000000000000005         -6.1448600142021857E-004
  0.43110000000000004         -5.9358830315404303E-004
  0.43220000000000003         -5.7382276168061461E-004
  0.43330000000000002         -5.5501975782783555E-004
  0.43440000000000001         -5.3699827975903041E-004
  0.43550000000000000         -5.1956969009466262E-004
  0.43659999999999999         -5.0254078929906252E-004
  0.43770000000000009         -4.8571547111844250E-004
  0.43880000000000008         -4.6889528905963776E-004
  0.43990000000000007         -4.5187902019471057E-004
  0.44100000000000006         -4.3446188492212475E-004
  0.44210000000000005         -4.1643409504066059E-004
  0.44320000000000004         -3.9757789496102172E-004
  0.44430000000000003         -3.7766257719057937E-004
  0.44540000000000002         -3.5643703871207600E-004
  0.44650000000000001         -3.3362066595488013E-004
  0.44760000000000000         -3.0889321695990184E-004
  0.44869999999999999         -2.8188468317674791E-004
  0.44980000000000009         -2.5216509765137093E-004
  0.45090000000000008         -2.1923379928110766E-004
  0.45200000000000007         -1.8250769035480619E-004
  0.45310000000000006         -1.4130831770151102E-004
  0.45420000000000005         -9.4848570094281865E-005
  0.45530000000000004         -4.2219641579060573E-005
  0.45640000000000003          1.7621012239772678E-005
  0.45750000000000002          8.5860497069749030E-005
  0.45860000000000001          1.6384023705332573E-004
  0.45970000000000000          2.5306511889103381E-004
  0.46079999999999999          3.5521132989054774E-004
  0.46190000000000009          4.7213291572078219E-004
  0.46300000000000008          6.0586535711579866E-004
  0.46410000000000007          7.5862620364483037E-004
  0.46520000000000006          9.3281159981635714E-004
  0.46630000000000005          1.1309905796385322E-003
  0.46740000000000004          1.3558962883431246E-003
  0.46850000000000003          1.6104143885209297E-003
  0.46960000000000002          1.8975698927424360E-003
  0.47070000000000001          2.2205100887498041E-003
  0.47180000000000000          2.5824841033962745E-003
  0.47289999999999999          2.9868172747909098E-003
  0.47400000000000009          3.4368788254825460E-003
  0.47510000000000008          3.9360454965550774E-003
  0.47620000000000007          4.4876568190137809E-003
  0.47730000000000006          5.0949645362681397E-003
  0.47840000000000005          5.7610786880020332E-003