-0.1200000E+00  0.0000000E+00
-0.1189000E+00  0.0000000E+00
-0.1178000E+00  0.0000000E+00
-0.1167000E+00  0.0000000E+00
-0.1156000E+00  0.0000000E+00
-0.1145000E+00  0.0000000E+00
-0.1134000E+00  0.0000000E+00
-0.1123000E+00  0.0000000E+00
-0.1112000E+00  0.0000000E+00
-0.1101000E+00  0.0000000E+00
-0.1090000E+00  0.0000000E+00
-0.1079000E+00  0.0000000E+00
-0.1068000E+00  0.0000000E+00
-0.1057000E+00  0.0000000E+00
-0.1046000E+00 -0.0000000E+00
-0.1035000E+00  0.0000000E+00
-0.1024000E+00 -0.2337733E-37
-0.1013000E+00  0.2192034E-37
-0.1002000E+00  0.5686423E-36
-0.9910000E-01  0.6554902E-36
-0.9800000E-01 -0.1009112E-34
-0.9690000E-01 -0.5735660E-34
-0.9580000E-01 -0.1187571E-33
-0.9470000E-01  0.1233383E-33
-0.9360000E-01  0.1496625E-32
-0.9250000E-01  0.4078223E-32
-0.9140000E-01  0.1912442E-32
-0.9030000E-01 -0.2420525E-31
-0.8920000E-01 -0.9505257E-31
-0.8810000E-01 -0.1572765E-30
-0.8700000E-01  0.6856207E-31
-0.8590000E-01  0.1122889E-29
-0.8480000E-01  0.3152046E-29
-0.8370000E-01  0.3932015E-29
-0.8260000E-01 -0.3579016E-29
-0.8150000E-01 -0.2930157E-28
-0.8040000E-01 -0.7062363E-28
-0.7930000E-01 -0.7921712E-28
-0.7820000E-01  0.6659994E-28
-0.7710000E-01  0.5095298E-27
-0.7600000E-01  0.1177356E-26
-0.7490000E-01  0.1361747E-26
-0.7380000E-01 -0.5460956E-27
-0.7270000E-01 -0.6319824E-26
-0.7160000E-01 -0.1519582E-25
-0.7050000E-01 -0.1947650E-25
-0.6940000E-01 -0.2012285E-26
-0.6830000E-01  0.5671191E-25
-0.6720000E-01  0.1538840E-24
-0.6610000E-01  0.2250594E-24
-0.6500000E-01  0.1194626E-24
-0.6390000E-01 -0.3501074E-24
-0.6280000E-01 -0.1221622E-23
-0.6170000E-01 -0.2078666E-23
-0.6060000E-01 -0.1820634E-23
-0.5950000E-01  0.1087916E-23
-0.5840000E-01  0.7456677E-23
-0.5730000E-01  0.1531115E-22
-0.5620000E-01  0.1800993E-22
-0.5510000E-01  0.4911430E-23
-0.5400000E-01 -0.3263289E-22
-0.5290000E-01 -0.8927984E-22
-0.5180000E-01 -0.1325219E-21
-0.5070000E-01 -0.1005073E-21
-0.4960000E-01  0.7319700E-22
-0.4850000E-01  0.3997462E-21
-0.4740000E-01  0.7568662E-21
-0.4630000E-01  0.8462794E-21
-0.4520000E-01  0.2674677E-21
-0.4410000E-01 -0.1231135E-20
-0.4300000E-01 -0.3359522E-20
-0.4190000E-01 -0.4953847E-20
-0.4080000E-01 -0.4061090E-20
-0.3970000E-01  0.1206953E-20
-0.3860000E-01  0.1101178E-19
-0.3750000E-01  0.2192796E-19
-0.3640000E-01  0.2623941E-19
-0.3530000E-01  0.1405604E-19
-0.3420000E-01 -0.2085757E-19
-0.3310000E-01 -0.7282418E-19
-0.3200000E-01 -0.1178935E-18
-0.3090000E-01 -0.1159482E-18
-0.2980000E-01 -0.2687672E-19
-0.2870000E-01  0.1596302E-18
-0.2760000E-01  0.3916592E-18
-0.2650000E-01  0.5417256E-18
-0.2540000E-01  0.4371931E-18
-0.2430000E-01 -0.5349147E-19
-0.2320000E-01 -0.8974103E-18
-0.2210000E-01 -0.1795189E-17
-0.2100000E-01 -0.2186417E-17
-0.1990000E-01 -0.1435696E-17
-0.1880000E-01  0.7992039E-18
-0.1770000E-01  0.4136791E-17
-0.1660000E-01  0.7220324E-17
-0.1550000E-01  0.7927929E-17
-0.1440000E-01  0.4209808E-17
-0.1330000E-01 -0.4579769E-17
-0.1220000E-01 -0.1638425E-16
-0.1110000E-01 -0.2600981E-16
-0.1000000E-01 -0.2634296E-16
-0.8900000E-02 -0.1145748E-16
-0.7800000E-02  0.1916492E-16
-0.6700000E-02  0.5718351E-16
-0.5600000E-02  0.8518505E-16
-0.4500000E-02  0.8160858E-16
-0.3400000E-02  0.3072577E-16
-0.2300000E-02 -0.6536565E-16
-0.1200000E-02 -0.1784846E-15
-0.1000000E-03 -0.2563674E-15
 0.1000000E-02 -0.2389163E-15
 0.2100000E-02 -0.8672051E-16
 0.3200000E-02  0.1877850E-15
 0.4300000E-02  0.5020423E-15
 0.5400000E-02  0.7136066E-15
 0.6500000E-02  0.6663039E-15
 0.7600000E-02  0.2640355E-15
 0.8700000E-02 -0.4539542E-15
 0.9800000E-02 -0.1274171E-14
 0.1090000E-01 -0.1840978E-14
 0.1200000E-01 -0.1772292E-14
 0.1310000E-01 -0.8345711E-15
 0.1420000E-01  0.8857664E-15
 0.1530000E-01  0.2898917E-14
 0.1640000E-01  0.4388684E-14
 0.1750000E-01  0.4471059E-14
 0.1860000E-01  0.2576819E-14
 0.1970000E-01 -0.1176993E-14
 0.2080000E-01 -0.5801000E-14
 0.2190000E-01 -0.9577831E-14
 0.2300000E-01 -0.1057713E-13
 0.2410000E-01 -0.7427473E-14
 0.2520000E-01 -0.8388544E-16
 0.2630000E-01  0.9743046E-14
 0.2740000E-01  0.1877724E-13
 0.2850000E-01  0.2307780E-13
 0.2960000E-01  0.1946564E-13
 0.3070000E-01  0.7024923E-14
 0.3180000E-01 -0.1191343E-13
 0.3290000E-01 -0.3182940E-13
 0.3400000E-01 -0.4533894E-13
 0.3510000E-01 -0.4556182E-13
 0.3620000E-01 -0.2885360E-13
 0.3730000E-01  0.3056223E-14
 0.3840000E-01  0.4244390E-13
 0.3950000E-01  0.7702451E-13
 0.4060000E-01  0.9332328E-13
 0.4170000E-01  0.8115449E-13
 0.4280000E-01  0.3784895E-13
 0.4390000E-01 -0.2926135E-13
 0.4500000E-01 -0.1032352E-12
 0.4610000E-01 -0.1611446E-12
 0.4720000E-01 -0.1802924E-12
 0.4830000E-01 -0.1454885E-12
 0.4940000E-01 -0.5531656E-13
 0.5050000E-01  0.7465271E-13
 0.5160000E-01  0.2131385E-12
 0.5270000E-01  0.3192906E-12
 0.5380000E-01  0.3527931E-12
 0.5490000E-01  0.2858358E-12
 0.5600000E-01  0.1140258E-12
 0.5710000E-01 -0.1369435E-12
 0.5820000E-01 -0.4115950E-12
 0.5930000E-01 -0.6334649E-12
 0.6040000E-01 -0.7220582E-12
 0.6150000E-01 -0.6153490E-12
 0.6260000E-01 -0.2929618E-12
 0.6370000E-01  0.2064553E-12
 0.6480000E-01  0.7804363E-12
 0.6590000E-01  0.1275631E-11
 0.6700000E-01  0.1519850E-11
 0.6810000E-01  0.1369150E-11
 0.6920000E-01  0.7598950E-12
 0.7030000E-01 -0.2489759E-12
 0.7140000E-01 -0.1459634E-11
 0.7250000E-01 -0.2557714E-11
 0.7360000E-01 -0.3177341E-11
 0.7470000E-01 -0.3000267E-11
 0.7580000E-01 -0.1867135E-11
 0.7690000E-01  0.1310274E-12
 0.7800000E-01  0.2615203E-11
 0.7910000E-01  0.4960484E-11
 0.8020000E-01  0.6424925E-11
 0.8130000E-01  0.6346531E-11
 0.8240000E-01  0.4363832E-11
 0.8350000E-01  0.5976606E-12
 0.8460000E-01 -0.4270585E-11
 0.8570000E-01 -0.9071549E-11
 0.8680000E-01 -0.1238305E-10
 0.8790000E-01 -0.1289259E-10
 0.8900000E-01 -0.9806648E-11
 0.9010000E-01 -0.3195329E-11
 0.9120000E-01  0.5841635E-11
 0.9230000E-01  0.1527219E-10
 0.9340000E-01  0.2251658E-10
 0.9450000E-01  0.2506536E-10
 0.9560000E-01  0.2119999E-10
 0.9670000E-01  0.1063250E-10
 0.9780000E-01 -0.5129796E-11
 0.9890000E-01 -0.2284663E-10
 0.1000000E+00 -0.3809475E-10
 0.1011000E+00 -0.4624344E-10
 0.1022000E+00 -0.4366692E-10
 0.1033000E+00 -0.2890869E-10
 0.1044000E+00 -0.3477650E-11
 0.1055000E+00  0.2800043E-10
 0.1066000E+00  0.5842812E-10
 0.1077000E+00  0.7964635E-10
 0.1088000E+00  0.8437152E-10
 0.1099000E+00  0.6824569E-10
 0.1110000E+00  0.3148752E-10
 0.1121000E+00 -0.2034957E-10
 0.1132000E+00 -0.7685731E-10
 0.1143000E+00 -0.1245748E-09
 0.1154000E+00 -0.1498734E-09
 0.1165000E+00 -0.1423705E-09
 0.1176000E+00 -0.9809310E-10
 0.1187000E+00 -0.2155337E-10
 0.1198000E+00  0.7396100E-10
 0.1209000E+00  0.1682383E-09
 0.1220000E+00  0.2380096E-09
 0.1231000E+00  0.2621800E-09
 0.1242000E+00  0.2273370E-09
 0.1253000E+00  0.1322153E-09
 0.1264000E+00 -0.1013165E-10
 0.1275000E+00 -0.1733186E-09
 0.1286000E+00 -0.3219805E-09
 0.1297000E+00 -0.4189029E-09
 0.1308000E+00 -0.4335872E-09
 0.1319000E+00 -0.3503853E-09
 0.1330000E+00 -0.1742072E-09
 0.1341000E+00  0.6786095E-10
 0.1352000E+00  0.3299130E-09
 0.1363000E+00  0.5553625E-09
 0.1374000E+00  0.6885300E-09
 0.1385000E+00  0.6873865E-09
 0.1396000E+00  0.5346575E-09
 0.1407000E+00  0.2445794E-09
 0.1418000E+00 -0.1366665E-09
 0.1429000E+00 -0.5375738E-09
 0.1440000E+00 -0.8741937E-09
 0.1451000E+00 -0.1067023E-08
 0.1462000E+00 -0.1058558E-08
 0.1473000E+00 -0.8277729E-09
 0.1484000E+00 -0.3981302E-09
 0.1495000E+00  0.1630985E-09
 0.1506000E+00  0.7547512E-09
 0.1517000E+00  0.1259556E-08
 0.1528000E+00  0.1566663E-08
 0.1539000E+00  0.1594635E-08
 0.1550000E+00  0.1310249E-08
 0.1561000E+00  0.7390535E-09
 0.1572000E+00 -0.3495980E-10
 0.1583000E+00 -0.8811463E-09
 0.1594000E+00 -0.1643855E-08
 0.1605000E+00 -0.2170300E-08
 0.1616000E+00 -0.2339688E-08
 0.1627000E+00 -0.2088181E-08
 0.1638000E+00 -0.1424826E-08
 0.1649000E+00 -0.4350846E-09
 0.1660000E+00  0.7292881E-09
 0.1671000E+00  0.1872867E-08
 0.1682000E+00  0.2788282E-08
 0.1693000E+00  0.3291966E-08
 0.1704000E+00  0.3257993E-08
 0.1715000E+00  0.2644161E-08
 0.1726000E+00  0.1505561E-08
 0.1737000E+00 -0.7340601E-11
 0.1748000E+00 -0.1666714E-08
 0.1759000E+00 -0.3199603E-08
 0.1770000E+00 -0.4330174E-08
 0.1781000E+00 -0.4825930E-08
 0.1792000E+00 -0.4540748E-08
 0.1803000E+00 -0.3447461E-08
 0.1814000E+00 -0.1653694E-08
 0.1825000E+00  0.6033479E-09
 0.1836000E+00  0.2984457E-08
 0.1847000E+00  0.5096133E-08
 0.1858000E+00  0.6552487E-08
 0.1869000E+00  0.7042210E-08
 0.1880000E+00  0.6389461E-08
 0.1891000E+00  0.4597214E-08
 0.1902000E+00  0.1863479E-08
 0.1913000E+00 -0.1435356E-08
 0.1924000E+00 -0.4794273E-08
 0.1935000E+00 -0.7656509E-08
 0.1946000E+00 -0.9505892E-08
 0.1957000E+00 -0.9958948E-08
 0.1968000E+00 -0.8839894E-08
 0.1979000E+00 -0.6223630E-08
 0.1990000E+00 -0.2436997E-08
 0.2001000E+00  0.1984054E-08
 0.2012000E+00  0.6375497E-08
 0.2023000E+00  0.1005123E-07
 0.2034000E+00  0.1241578E-07
 0.2045000E+00  0.1306386E-07
 0.2056000E+00  0.1184930E-07
 0.2067000E+00  0.8911293E-08
 0.2078000E+00  0.4653521E-08
 0.2089000E+00 -0.3197133E-09
 0.2100000E+00 -0.5299278E-08
 0.2111000E+00 -0.9582557E-08
 0.2122000E+00 -0.1258202E-07
 0.2133000E+00 -0.1391370E-07
 0.2144000E+00 -0.1345177E-07
 0.2155000E+00 -0.1134125E-07
 0.2166000E+00 -0.7966896E-08
 0.2177000E+00 -0.3883322E-08
 0.2188000E+00  0.2829855E-09
 0.2199000E+00  0.3944601E-08
 0.2210000E+00  0.6659235E-08
 0.2221000E+00  0.8213086E-08
 0.2232000E+00  0.8666070E-08
 0.2243000E+00  0.8348732E-08
 0.2254000E+00  0.7807980E-08
 0.2265000E+00  0.7707143E-08
 0.2276000E+00  0.8693926E-08
 0.2287000E+00  0.1125580E-07
 0.2298000E+00  0.1558495E-07
 0.2309000E+00  0.2147301E-07
 0.2320000E+00  0.2824986E-07
 0.2331000E+00  0.3477203E-07
 0.2342000E+00  0.3945613E-07
 0.2353000E+00  0.4034365E-07
 0.2364000E+00  0.3517840E-07
 0.2375000E+00  0.2147507E-07
 0.2386000E+00 -0.3438946E-08
 0.2397000E+00 -0.4242133E-07
 0.2408000E+00 -0.9855939E-07
 0.2419000E+00 -0.1752652E-06
 0.2430000E+00 -0.2764232E-06
 0.2441000E+00 -0.4065962E-06
 0.2452000E+00 -0.5712965E-06
 0.2463000E+00 -0.7773323E-06
 0.2474000E+00 -0.1033239E-05
 0.2485000E+00 -0.1349793E-05
 0.2496000E+00 -0.1740607E-05
 0.2507000E+00 -0.2222785E-05
 0.2518000E+00 -0.2817623E-05
 0.2529000E+00 -0.3551340E-05
 0.2540000E+00 -0.4455845E-05
 0.2551000E+00 -0.5569543E-05
 0.2562000E+00 -0.6938239E-05
 0.2573000E+00 -0.8616174E-05
 0.2584000E+00 -0.1066728E-04
 0.2595000E+00 -0.1316669E-04
 0.2606000E+00 -0.1620256E-04
 0.2617000E+00 -0.1987823E-04
 0.2628000E+00 -0.2431470E-04
 0.2639000E+00 -0.2965331E-04
 0.2650000E+00 -0.3605877E-04
 0.2661000E+00 -0.4372230E-04
 0.2672000E+00 -0.5286491E-04
 0.2683000E+00 -0.6374086E-04
 0.2694000E+00 -0.7664133E-04
 0.2705000E+00 -0.9189831E-04
 0.2716000E+00 -0.1098888E-03
 0.2727000E+00 -0.1310393E-03
 0.2738000E+00 -0.1558305E-03
 0.2749000E+00 -0.1848019E-03
 0.2760000E+00 -0.2185572E-03
 0.2771000E+00 -0.2577682E-03
 0.2782000E+00 -0.3031794E-03
 0.2793000E+00 -0.3556113E-03
 0.2804000E+00 -0.4159634E-03
 0.2815000E+00 -0.4852160E-03
 0.2826000E+00 -0.5644320E-03
 0.2837000E+00 -0.6547563E-03
 0.2848000E+00 -0.7574154E-03
 0.2859000E+00 -0.8737145E-03
 0.2870000E+00 -0.1005034E-02
 0.2881000E+00 -0.1152821E-02
 0.2892000E+00 -0.1318587E-02
 0.2903000E+00 -0.1503887E-02
 0.2914000E+00 -0.1710315E-02
 0.2925000E+00 -0.1939482E-02
 0.2936000E+00 -0.2192994E-02
 0.2947000E+00 -0.2472435E-02
 0.2958000E+00 -0.2779333E-02
 0.2969000E+00 -0.3115136E-02
 0.2980000E+00 -0.3481177E-02
 0.2991000E+00 -0.3878637E-02
 0.3002000E+00 -0.4308509E-02
 0.3013000E+00 -0.4771557E-02
 0.3024000E+00 -0.5268272E-02
 0.3035000E+00 -0.5798829E-02
 0.3046000E+00 -0.6363044E-02
 0.3057000E+00 -0.6960325E-02
 0.3068000E+00 -0.7589629E-02
 0.3079000E+00 -0.8249422E-02
 0.3090000E+00 -0.8937635E-02
 0.3101000E+00 -0.9651636E-02
 0.3112000E+00 -0.1038819E-01
 0.3123000E+00 -0.1114345E-01
 0.3134000E+00 -0.1191293E-01
 0.3145000E+00 -0.1269149E-01
 0.3156000E+00 -0.1347337E-01
 0.3167000E+00 -0.1425216E-01
 0.3178000E+00 -0.1502086E-01
 0.3189000E+00 -0.1577187E-01
 0.3200000E+00 -0.1649711E-01
 0.3211000E+00 -0.1718801E-01
 0.3222000E+00 -0.1783563E-01
 0.3233000E+00 -0.1843074E-01
 0.3244000E+00 -0.1896390E-01
 0.3255000E+00 -0.1942561E-01
 0.3266000E+00 -0.1980638E-01
 0.3277000E+00 -0.2009692E-01
 0.3288000E+00 -0.2028823E-01
 0.3299000E+00 -0.2037177E-01
 0.3310000E+00 -0.2033960E-01
 0.3321000E+00 -0.2018454E-01
 0.3332000E+00 -0.1990030E-01
 0.3343000E+00 -0.1948162E-01
 0.3354000E+00 -0.1892441E-01
 0.3365000E+00 -0.1822585E-01
 0.3376000E+00 -0.1738454E-01
 0.3387000E+00 -0.1640057E-01
 0.3398000E+00 -0.1527558E-01
 0.3409000E+00 -0.1401284E-01
 0.3420000E+00 -0.1261725E-01
 0.3431000E+00 -0.1109539E-01
 0.3442000E+00 -0.9455451E-02
 0.3453000E+00 -0.7707220E-02
 0.3464000E+00 -0.5861995E-02
 0.3475000E+00 -0.3932494E-02
 0.3486000E+00 -0.1932722E-02
 0.3497000E+00  0.1221690E-03
 0.3508000E+00  0.2216060E-02
 0.3519000E+00  0.4332050E-02
 0.3530000E+00  0.6452663E-02
 0.3541000E+00  0.8560070E-02
 0.3552000E+00  0.1063631E-01
 0.3563000E+00  0.1266352E-01
 0.3574000E+00  0.1462418E-01
 0.3585000E+00  0.1650136E-01
 0.3596000E+00  0.1827891E-01
 0.3607000E+00  0.1994173E-01
 0.3618000E+00  0.2147593E-01
 0.3629000E+00  0.2286903E-01
 0.3640000E+00  0.2411010E-01
 0.3651000E+00  0.2518995E-01
 0.3662000E+00  0.2610118E-01
 0.3673000E+00  0.2683829E-01
 0.3684000E+00  0.2739774E-01
 0.3695000E+00  0.2777797E-01
 0.3706000E+00  0.2797937E-01
 0.3717000E+00  0.2800426E-01
 0.3728000E+00  0.2785682E-01
 0.3739000E+00  0.2754299E-01
 0.3750000E+00  0.2707035E-01
 0.3761000E+00  0.2644800E-01
 0.3772000E+00  0.2568637E-01
 0.3783000E+00  0.2479702E-01
 0.3794000E+00  0.2379250E-01
 0.3805000E+00  0.2268611E-01
 0.3816000E+00  0.2149172E-01
 0.3827000E+00  0.2022357E-01
 0.3838000E+00  0.1889603E-01
 0.3849000E+00  0.1752344E-01
 0.3860000E+00  0.1611988E-01
 0.3871000E+00  0.1469903E-01
 0.3882000E+00  0.1327400E-01
 0.3893000E+00  0.1185717E-01
 0.3904000E+00  0.1046008E-01
 0.3915000E+00  0.9093336E-02
 0.3926000E+00  0.7766503E-02
 0.3937000E+00  0.6488048E-02
 0.3948000E+00  0.5265294E-02
 0.3959000E+00  0.4104402E-02
 0.3970000E+00  0.3010368E-02
 0.3981000E+00  0.1987048E-02
 0.3992000E+00  0.1037196E-02
 0.4003000E+00  0.1625103E-03
 0.4014000E+00 -0.6363026E-03
 0.4025000E+00 -0.1359458E-02
 0.4036000E+00 -0.2008007E-02
 0.4047000E+00 -0.2583747E-02
 0.4058000E+00 -0.3089122E-02
 0.4069000E+00 -0.3527116E-02
 0.4080000E+00 -0.3901157E-02
 0.4091000E+00 -0.4215022E-02
 0.4102000E+00 -0.4472745E-02
 0.4113000E+00 -0.4678535E-02
 0.4124000E+00 -0.4836693E-02
 0.4135000E+00 -0.4951532E-02
 0.4146000E+00 -0.5027310E-02
 0.4157000E+00 -0.5068162E-02
 0.4168000E+00 -0.5078048E-02
 0.4179000E+00 -0.5060717E-02
 0.4190000E+00 -0.5019679E-02
 0.4201000E+00 -0.4958180E-02
 0.4212000E+00 -0.4879199E-02
 0.4223000E+00 -0.4785430E-02
 0.4234000E+00 -0.4679288E-02
 0.4245000E+00 -0.4562909E-02
 0.4256000E+00 -0.4438165E-02
 0.4267000E+00 -0.4306677E-02
 0.4278000E+00 -0.4169846E-02
 0.4289000E+00 -0.4028872E-02
 0.4300000E+00 -0.3884779E-02
 0.4311000E+00 -0.3738441E-02
 0.4322000E+00 -0.3590603E-02
 0.4333000E+00 -0.3441907E-02
 0.4344000E+00 -0.3292920E-02
 0.4355000E+00 -0.3144152E-02
 0.4366000E+00 -0.2996086E-02
 0.4377000E+00 -0.2849189E-02
 0.4388000E+00 -0.2703930E-02
 0.4399000E+00 -0.2560788E-02
 0.4410000E+00 -0.2420257E-02
 0.4421000E+00 -0.2282848E-02
 0.4432000E+00 -0.2149089E-02
 0.4443000E+00 -0.2019520E-02
 0.4454000E+00 -0.1894686E-02
 0.4465000E+00 -0.1775134E-02
 0.4476000E+00 -0.1661397E-02
 0.4487000E+00 -0.1553986E-02
 0.4498000E+00 -0.1453375E-02
 0.4509000E+00 -0.1359988E-02
 0.4520000E+00 -0.1274184E-02
 0.4531000E+00 -0.1196241E-02
 0.4542000E+00 -0.1126343E-02
 0.4553000E+00 -0.1064575E-02
 0.4564000E+00 -0.1010910E-02
 0.4575000E+00 -0.9652097E-03
 0.4586000E+00 -0.9272204E-03
 0.4597000E+00 -0.8965741E-03
 0.4608000E+00 -0.8727898E-03
 0.4619000E+00 -0.8552806E-03
 0.4630000E+00 -0.8433619E-03
 0.4641000E+00 -0.8362663E-03
 0.4652000E+00 -0.8331614E-03
 0.4663000E+00 -0.8331692E-03
 0.4674000E+00 -0.8353860E-03
 0.4685000E+00 -0.8389007E-03
 0.4696000E+00 -0.8428127E-03
 0.4707000E+00 -0.8462500E-03
 0.4718000E+00 -0.8483892E-03
 0.4729000E+00 -0.8484767E-03
 0.4740000E+00 -0.8458500E-03
 0.4751000E+00 -0.8399562E-03
 0.4762000E+00 -0.8303648E-03
 0.4773000E+00 -0.8167743E-03
 0.4784000E+00 -0.7990149E-03
 0.4795000E+00 -0.7770471E-03
 0.4806000E+00 -0.7509609E-03
 0.4817000E+00 -0.7209727E-03
 0.4828000E+00 -0.6874215E-03
 0.4839000E+00 -0.6507598E-03
 0.4850000E+00 -0.6115387E-03
 0.4861000E+00 -0.5703887E-03
 0.4872000E+00 -0.5279984E-03
 0.4883000E+00 -0.4850938E-03
 0.4894000E+00 -0.4424216E-03
 0.4905000E+00 -0.4007340E-03
 0.4916000E+00 -0.3607738E-03
 0.4927000E+00 -0.3232573E-03
 0.4938000E+00 -0.2888541E-03
 0.4949000E+00 -0.2581654E-03
 0.4960000E+00 -0.2317058E-03
 0.4971000E+00 -0.2098897E-03
 0.4982000E+00 -0.1930254E-03
 0.4993000E+00 -0.1813144E-03
 0.5004000E+00 -0.1748523E-03
 0.5015000E+00 -0.1736277E-03
 0.5026000E+00 -0.1775199E-03
 0.5037000E+00 -0.1862953E-03
 0.5048000E+00 -0.1996076E-03
 0.5059000E+00 -0.2170026E-03
 0.5070000E+00 -0.2379298E-03
 0.5081000E+00 -0.2617564E-03
 0.5092000E+00 -0.2877823E-03
 0.5103000E+00 -0.3152517E-03
 0.5114000E+00 -0.3433628E-03
 0.5125000E+00 -0.3712768E-03
 0.5136000E+00 -0.3981305E-03
 0.5147000E+00 -0.4230521E-03
 0.5158000E+00 -0.4451803E-03
 0.5169000E+00 -0.4636848E-03
 0.5180000E+00 -0.4777816E-03
 0.5191000E+00 -0.4867466E-03
 0.5202000E+00 -0.4899234E-03
 0.5213000E+00 -0.4867320E-03
 0.5224000E+00 -0.4766778E-03
 0.5235000E+00 -0.4593635E-03
 0.5246000E+00 -0.4344995E-03
 0.5257000E+00 -0.4019128E-03
 0.5268000E+00 -0.3615483E-03
 0.5279000E+00 -0.3134646E-03
 0.5290000E+00 -0.2578243E-03
 0.5301000E+00 -0.1948815E-03
 0.5312000E+00 -0.1249684E-03
 0.5323000E+00 -0.4848122E-04
 0.5334000E+00  0.3413796E-04
 0.5345000E+00  0.1224234E-03
 0.5356000E+00  0.2159151E-03
 0.5367000E+00  0.3141920E-03
 0.5378000E+00  0.4169092E-03
 0.5389000E+00  0.5238341E-03
 0.5400000E+00  0.6348814E-03
 0.5411000E+00  0.7501460E-03
 0.5422000E+00  0.8699344E-03
 0.5433000E+00  0.9947957E-03
 0.5444000E+00  0.1125550E-02
 0.5455000E+00  0.1263310E-02
 0.5466000E+00  0.1409504E-02
 0.5477000E+00  0.1565873E-02
 0.5488000E+00  0.1734477E-02
 0.5499000E+00  0.1917677E-02
 0.5510000E+00  0.2118114E-02
 0.5521000E+00  0.2338678E-02
 0.5532000E+00  0.2582467E-02
 0.5543000E+00  0.2852737E-02
 0.5554000E+00  0.3152834E-02
 0.5565000E+00  0.3486128E-02
 0.5576000E+00  0.3855927E-02
 0.5587000E+00  0.4265393E-02
 0.5598000E+00  0.4717448E-02
 0.5609000E+00  0.5214683E-02
 0.5620000E+00  0.5759260E-02
 0.5631000E+00  0.6352815E-02
 0.5642000E+00  0.6996366E-02
 0.5653000E+00  0.7690222E-02
 0.5664000E+00  0.8433904E-02
 0.5675000E+00  0.9226070E-02
 0.5686000E+00  0.1006446E-01
 0.5697000E+00  0.1094586E-01
 0.5708000E+00  0.1186605E-01
 0.5719000E+00  0.1281983E-01
 0.5730000E+00  0.1380098E-01
 0.5741000E+00  0.1480233E-01
 0.5752000E+00  0.1581576E-01
 0.5763000E+00  0.1683230E-01
 0.5774000E+00  0.1784220E-01
 0.5785000E+00  0.1883501E-01
 0.5796000E+00  0.1979972E-01
 0.5807000E+00  0.2072487E-01
 0.5818000E+00  0.2159871E-01
 0.5829000E+00  0.2240933E-01
 0.5840000E+00  0.2314485E-01
 0.5851000E+00  0.2379360E-01
 0.5862000E+00  0.2434424E-01
 0.5873000E+00  0.2478600E-01
 0.5884000E+00  0.2510879E-01
 0.5895000E+00  0.2530337E-01
 0.5906000E+00  0.2536155E-01
 0.5917000E+00  0.2527625E-01
 0.5928000E+00  0.2504170E-01
 0.5939000E+00  0.2465355E-01
 0.5950000E+00  0.2410892E-01
 0.5961000E+00  0.2340650E-01
 0.5972000E+00  0.2254661E-01
 0.5983000E+00  0.2153120E-01
 0.5994000E+00  0.2036388E-01
 0.6005000E+00  0.1904987E-01
 0.6016000E+00  0.1759600E-01
 0.6027000E+00  0.1601066E-01
 0.6038000E+00  0.1430364E-01
 0.6049000E+00  0.1248610E-01
 0.6060000E+00  0.1057040E-01
 0.6071000E+00  0.8569983E-02
 0.6082000E+00  0.6499183E-02
 0.6093000E+00  0.4373098E-02
 0.6104000E+00  0.2207393E-02
 0.6115000E+00  0.1812356E-04
 0.6126000E+00 -0.2178455E-02
 0.6137000E+00 -0.4366080E-02
 0.6148000E+00 -0.6528671E-02
 0.6159000E+00 -0.8650507E-02
 0.6170000E+00 -0.1071640E-01
 0.6181000E+00 -0.1271185E-01
 0.6192000E+00 -0.1462320E-01
 0.6203000E+00 -0.1643778E-01
 0.6214000E+00 -0.1814402E-01
 0.6225000E+00 -0.1973153E-01
 0.6236000E+00 -0.2119126E-01
 0.6247000E+00 -0.2251549E-01
 0.6258000E+00 -0.2369789E-01
 0.6269000E+00 -0.2473360E-01
 0.6280000E+00 -0.2561915E-01
 0.6291000E+00 -0.2635252E-01
 0.6302000E+00 -0.2693305E-01
 0.6313000E+00 -0.2736146E-01
 0.6324000E+00 -0.2763975E-01
 0.6335000E+00 -0.2777112E-01
 0.6346000E+00 -0.2775991E-01
 0.6357000E+00 -0.2761152E-01
 0.6368000E+00 -0.2733226E-01
 0.6379000E+00 -0.2692927E-01
 0.6390000E+00 -0.2641043E-01
 0.6401000E+00 -0.2578421E-01
 0.6412000E+00 -0.2505956E-01
 0.6423000E+00 -0.2424584E-01
 0.6434000E+00 -0.2335267E-01
 0.6445000E+00 -0.2238985E-01
 0.6456000E+00 -0.2136725E-01
 0.6467000E+00 -0.2029471E-01
 0.6478000E+00 -0.1918199E-01
 0.6489000E+00 -0.1803862E-01
 0.6500000E+00 -0.1687392E-01
 0.6511000E+00 -0.1569684E-01
 0.6522000E+00 -0.1451596E-01
 0.6533000E+00 -0.1333942E-01
 0.6544000E+00 -0.1217488E-01
 0.6555000E+00 -0.1102946E-01
 0.6566000E+00 -0.9909730E-02
 0.6577000E+00 -0.8821685E-02
 0.6588000E+00 -0.7770707E-02
 0.6599000E+00 -0.6761565E-02
 0.6610000E+00 -0.5798397E-02
 0.6621000E+00 -0.4884707E-02
 0.6632000E+00 -0.4023354E-02
 0.6643000E+00 -0.3216560E-02
 0.6654000E+00 -0.2465918E-02
 0.6665000E+00 -0.1772410E-02
 0.6676000E+00 -0.1136428E-02
 0.6687000E+00 -0.5577996E-03
 0.6698000E+00 -0.3581335E-04
 0.6709000E+00  0.4307521E-03
 0.6720000E+00  0.8435948E-03
 0.6731000E+00  0.1204851E-02
 0.6742000E+00  0.1517048E-02
 0.6753000E+00  0.1783050E-02
 0.6764000E+00  0.2006005E-02
 0.6775000E+00  0.2189280E-02
 0.6786000E+00  0.2336412E-02
 0.6797000E+00  0.2451046E-02
 0.6808000E+00  0.2536886E-02
 0.6819000E+00  0.2597632E-02
 0.6830000E+00  0.2636928E-02
 0.6841000E+00  0.2658300E-02
 0.6852000E+00  0.2665106E-02
 0.6863000E+00  0.2660483E-02
 0.6874000E+00  0.2647308E-02
 0.6885000E+00  0.2628165E-02
 0.6896000E+00  0.2605313E-02
 0.6907000E+00  0.2580667E-02
 0.6918000E+00  0.2555784E-02
 0.6929000E+00  0.2531847E-02
 0.6940000E+00  0.2509668E-02
 0.6951000E+00  0.2489687E-02
 0.6962000E+00  0.2471998E-02
 0.6973000E+00  0.2456361E-02
 0.6984000E+00  0.2442240E-02
 0.6995000E+00  0.2428832E-02
 0.7006000E+00  0.2415105E-02
 0.7017000E+00  0.2399836E-02
 0.7028000E+00  0.2381655E-02
 0.7039000E+00  0.2359089E-02
 0.7050000E+00  0.2330610E-02
 0.7061000E+00  0.2294687E-02
 0.7072000E+00  0.2249830E-02
 0.7083000E+00  0.2194644E-02
 0.7094000E+00  0.2127859E-02
 0.7105000E+00  0.2048374E-02
 0.7116000E+00  0.1955283E-02
 0.7127000E+00  0.1847902E-02
 0.7138000E+00  0.1725792E-02
 0.7149000E+00  0.1588774E-02
 0.7160000E+00  0.1436948E-02
 0.7171000E+00  0.1270693E-02
 0.7182000E+00  0.1090670E-02
 0.7193000E+00  0.8978181E-03
 0.7204000E+00  0.6933346E-03
 0.7215000E+00  0.4786641E-03
 0.7226000E+00  0.2554736E-03
 0.7237000E+00  0.2562792E-04
 0.7248000E+00 -0.2088395E-03
 0.7259000E+00 -0.4457592E-03
 0.7270000E+00 -0.6828603E-03
 0.7281000E+00 -0.9178077E-03
 0.7292000E+00 -0.1148240E-02
 0.7303000E+00 -0.1371805E-02
 0.7314000E+00 -0.1586199E-02
 0.7325000E+00 -0.1789205E-02
 0.7336000E+00 -0.1978722E-02
 0.7347000E+00 -0.2152807E-02
 0.7358000E+00 -0.2309698E-02
 0.7369000E+00 -0.2447853E-02
 0.7380000E+00 -0.2565965E-02
 0.7391000E+00 -0.2662987E-02
 0.7402000E+00 -0.2738148E-02
 0.7413000E+00 -0.2790959E-02
 0.7424000E+00 -0.2821226E-02
 0.7435000E+00 -0.2829052E-02
 0.7446000E+00 -0.2814834E-02
 0.7457000E+00 -0.2779257E-02
 0.7468000E+00 -0.2723278E-02
 0.7479000E+00 -0.2648111E-02
 0.7490000E+00 -0.2555197E-02
 0.7501000E+00 -0.2446185E-02
 0.7512000E+00 -0.2322894E-02
 0.7523000E+00 -0.2187289E-02
 0.7534000E+00 -0.2041442E-02
 0.7545000E+00 -0.1887496E-02
 0.7556000E+00 -0.1727626E-02
 0.7567000E+00 -0.1563998E-02
 0.7578000E+00 -0.1398728E-02
 0.7589000E+00 -0.1233843E-02
 0.7600000E+00 -0.1071249E-02
 0.7611000E+00 -0.9126965E-03
 0.7622000E+00 -0.7597524E-03
 0.7633000E+00 -0.6137770E-03
 0.7644000E+00 -0.4759012E-03
 0.7655000E+00 -0.3470124E-03
 0.7666000E+00 -0.2277457E-03
 0.7677000E+00 -0.1184837E-03
 0.7688000E+00 -0.1936251E-04
 0.7699000E+00  0.6971598E-04
 0.7710000E+00  0.1490692E-03
 0.7721000E+00  0.2192146E-03
 0.7732000E+00  0.2808469E-03
 0.7743000E+00  0.3348094E-03
 0.7754000E+00  0.3820598E-03
 0.7765000E+00  0.4236309E-03
 0.7776000E+00  0.4605887E-03
 0.7787000E+00  0.4939919E-03
 0.7798000E+00  0.5248553E-03
 0.7809000E+00  0.5541171E-03
 0.7820000E+00  0.5826119E-03
 0.7831000E+00  0.6110449E-03
 0.7842000E+00  0.6399683E-03
 0.7853000E+00  0.6697605E-03
 0.7864000E+00  0.7006103E-03
 0.7875000E+00  0.7325101E-03
 0.7886000E+00  0.7652580E-03
 0.7897000E+00  0.7984703E-03
 0.7908000E+00  0.8315993E-03
 0.7919000E+00  0.8639559E-03
 0.7930000E+00  0.8947338E-03
 0.7941000E+00  0.9230362E-03
 0.7952000E+00  0.9479062E-03
 0.7963000E+00  0.9683631E-03
 0.7974000E+00  0.9834431E-03
 0.7985000E+00  0.9922422E-03
 0.7996000E+00  0.9939575E-03
 0.8007000E+00  0.9879220E-03
 0.8018000E+00  0.9736322E-03
 0.8029000E+00  0.9507696E-03
 0.8040000E+00  0.9192179E-03
 0.8051000E+00  0.8790770E-03
 0.8062000E+00  0.8306761E-03
 0.8073000E+00  0.7745803E-03
 0.8084000E+00  0.7115889E-03
 0.8095000E+00  0.6427225E-03
 0.8106000E+00  0.5691987E-03
 0.8117000E+00  0.4924000E-03
 0.8128000E+00  0.4138373E-03
 0.8139000E+00  0.3351133E-03
 0.8150000E+00  0.2578856E-03
 0.8161000E+00  0.1838293E-03
 0.8172000E+00  0.1145963E-03
 0.8183000E+00  0.5177065E-04
 0.8194000E+00 -0.3178190E-05
 0.8205000E+00 -0.4894019E-04
 0.8216000E+00 -0.8440382E-04
 0.8227000E+00 -0.1086861E-03
 0.8238000E+00 -0.1211535E-03
 0.8249000E+00 -0.1214360E-03
 0.8260000E+00 -0.1094358E-03
 0.8271000E+00 -0.8533274E-04
 0.8282000E+00 -0.4958431E-04
 0.8293000E+00 -0.2918954E-05
 0.8304000E+00  0.5368047E-04
 0.8315000E+00  0.1190029E-03
 0.8326000E+00  0.1916434E-03
 0.8337000E+00  0.2700416E-03
 0.8348000E+00  0.3525222E-03
 0.8359000E+00  0.4373351E-03
 0.8370000E+00  0.5226957E-03
 0.8381000E+00  0.6068277E-03
 0.8392000E+00  0.6880066E-03
 0.8403000E+00  0.7646047E-03
 0.8414000E+00  0.8351324E-03
 0.8425000E+00  0.8982749E-03
 0.8436000E+00  0.9529195E-03
 0.8447000E+00  0.9981751E-03
 0.8458000E+00  0.1033385E-02
 0.8469000E+00  0.1058133E-02
 0.8480000E+00  0.1072252E-02
 0.8491000E+00  0.1075820E-02
 0.8502000E+00  0.1069154E-02
 0.8513000E+00  0.1052796E-02
 0.8524000E+00  0.1027492E-02
 0.8535000E+00  0.9941576E-03
 0.8546000E+00  0.9538494E-03
 0.8557000E+00  0.9077262E-03
 0.8568000E+00  0.8570168E-03
 0.8579000E+00  0.8029864E-03
 0.8590000E+00  0.7469022E-03
 0.8601000E+00  0.6900003E-03
 0.8612000E+00  0.6334520E-03
 0.8623000E+00  0.5783323E-03
 0.8634000E+00  0.5255933E-03
 0.8645000E+00  0.4760421E-03
 0.8656000E+00  0.4303254E-03
 0.8667000E+00  0.3889191E-03
 0.8678000E+00  0.3521233E-03
 0.8689000E+00  0.3200614E-03
 0.8700000E+00  0.2926844E-03
 0.8711000E+00  0.2697811E-03
 0.8722000E+00  0.2509924E-03
 0.8733000E+00  0.2358303E-03
 0.8744000E+00  0.2236992E-03
 0.8755000E+00  0.2139193E-03
 0.8766000E+00  0.2057506E-03
 0.8777000E+00  0.1984188E-03
 0.8788000E+00  0.1911420E-03
 0.8799000E+00  0.1831582E-03
 0.8810000E+00  0.1737521E-03
 0.8821000E+00  0.1622792E-03
 0.8832000E+00  0.1481856E-03
 0.8843000E+00  0.1310245E-03
 0.8854000E+00  0.1104686E-03
 0.8865000E+00  0.8631995E-04
 0.8876000E+00  0.5851813E-04
 0.8887000E+00  0.2714368E-04
 0.8898000E+00 -0.7582940E-05
 0.8909000E+00 -0.4530853E-04
 0.8920000E+00 -0.8555990E-04
 0.8931000E+00 -0.1277597E-03
 0.8942000E+00 -0.1712430E-03
 0.8953000E+00 -0.2152731E-03
 0.8964000E+00 -0.2590572E-03
 0.8975000E+00 -0.3017635E-03
 0.8986000E+00 -0.3425425E-03
 0.8997000E+00 -0.3805524E-03
 0.9008000E+00 -0.4149863E-03
 0.9019000E+00 -0.4450984E-03
 0.9030000E+00 -0.4702242E-03
 0.9041000E+00 -0.4897940E-03
 0.9052000E+00 -0.5033425E-03
 0.9063000E+00 -0.5105149E-03
 0.9074000E+00 -0.5110754E-03
 0.9085000E+00 -0.5049172E-03
 0.9096000E+00 -0.4920716E-03
 0.9107000E+00 -0.4727126E-03
 0.9118000E+00 -0.4471555E-03
 0.9129000E+00 -0.4158471E-03
 0.9140000E+00 -0.3793516E-03
 0.9151000E+00 -0.3383356E-03
 0.9162000E+00 -0.2935541E-03
 0.9173000E+00 -0.2458384E-03
 0.9184000E+00 -0.1960819E-03
 0.9195000E+00 -0.1452239E-03
 0.9206000E+00 -0.9422782E-04
 0.9217000E+00 -0.4405736E-04
 0.9228000E+00  0.4346502E-05
 0.9239000E+00  0.5008531E-04
 0.9250000E+00  0.9231867E-04
 0.9261000E+00  0.1302777E-03
 0.9272000E+00  0.1632789E-03
 0.9283000E+00  0.1907399E-03
 0.9294000E+00  0.2121955E-03
 0.9305000E+00  0.2273123E-03
 0.9316000E+00  0.2358959E-03
 0.9327000E+00  0.2378924E-03
 0.9338000E+00  0.2333827E-03
 0.9349000E+00  0.2225761E-03
 0.9360000E+00  0.2058042E-03
 0.9371000E+00  0.1835161E-03
 0.9382000E+00  0.1562731E-03
 0.9393000E+00  0.1247386E-03
 0.9404000E+00  0.8966179E-04
 0.9415000E+00  0.5185500E-04
 0.9426000E+00  0.1216916E-04
 0.9437000E+00 -0.2852968E-04
 0.9448000E+00 -0.6938002E-04
 0.9459000E+00 -0.1095419E-03
 0.9470000E+00 -0.1482142E-03
 0.9481000E+00 -0.1846549E-03
 0.9492000E+00 -0.2182039E-03
 0.9503000E+00 -0.2483065E-03
 0.9514000E+00 -0.2745313E-03
 0.9525000E+00 -0.2965816E-03
 0.9536000E+00 -0.3142994E-03
 0.9547000E+00 -0.3276647E-03
 0.9558000E+00 -0.3367956E-03
 0.9569000E+00 -0.3419495E-03
 0.9580000E+00 -0.3435243E-03
 0.9591000E+00 -0.3420560E-03
 0.9602000E+00 -0.3382066E-03
 0.9613000E+00 -0.3327437E-03
 0.9624000E+00 -0.3265131E-03
 0.9635000E+00 -0.3204099E-03
 0.9646000E+00 -0.3153543E-03
 0.9657000E+00 -0.3122700E-03
 0.9668000E+00 -0.3120652E-03
 0.9679000E+00 -0.3156107E-03
 0.9690000E+00 -0.3237124E-03
 0.9701000E+00 -0.3370805E-03
 0.9712000E+00 -0.3562989E-03
 0.9723000E+00 -0.3818001E-03
 0.9734000E+00 -0.4138500E-03
 0.9745000E+00 -0.4525399E-03
 0.9756000E+00 -0.4977832E-03
 0.9767000E+00 -0.5493118E-03
 0.9778000E+00 -0.6066723E-03
 0.9789000E+00 -0.6692235E-03