 -0.12000000000000000          0.0000000000000000     
 -0.11889999999999999          0.0000000000000000     
 -0.11780000000000000          0.0000000000000000     
 -0.11670000000000000          0.0000000000000000     
 -0.11559999999999999          0.0000000000000000     
 -0.11449999999999999          0.0000000000000000     
 -0.11340000000000000          0.0000000000000000     
 -0.11230000000000000          0.0000000000000000     
 -0.11119999999999999          0.0000000000000000     
 -0.11009999999999999          0.0000000000000000     
 -0.10900000000000000          0.0000000000000000     
 -0.10790000000000000          0.0000000000000000     
 -0.10679999999999999          0.0000000000000000     
 -0.10569999999999999          0.0000000000000000     
 -0.10460000000000000          0.0000000000000000     
 -0.10349999999999999          0.0000000000000000     
 -0.10239999999999999          0.0000000000000000     
 -0.10130000000000000          0.0000000000000000     
 -0.10020000000000000          0.0000000000000000     
  -9.9099999999999994E-002     0.0000000000000000     
  -9.7999999999999990E-002     0.0000000000000000     
  -9.6899999999999986E-002     0.0000000000000000     
  -9.5799999999999996E-002     0.0000000000000000     
  -9.4699999999999993E-002     0.0000000000000000     
  -9.3599999999999989E-002     0.0000000000000000     
  -9.2499999999999999E-002     0.0000000000000000     
  -9.1399999999999995E-002     0.0000000000000000     
  -9.0299999999999991E-002     0.0000000000000000     
  -8.9200000000000002E-002     0.0000000000000000     
  -8.8099999999999984E-002     0.0000000000000000     
  -8.6999999999999994E-002     0.0000000000000000     
  -8.5899999999999990E-002     0.0000000000000000     
  -8.4799999999999986E-002     0.0000000000000000     
  -8.3699999999999997E-002     0.0000000000000000     
  -8.2599999999999993E-002     0.0000000000000000     
  -8.1499999999999989E-002     0.0000000000000000     
  -8.0399999999999999E-002     0.0000000000000000     
  -7.9299999999999995E-002     0.0000000000000000     
  -7.8199999999999992E-002     0.0000000000000000     
  -7.7100000000000002E-002     0.0000000000000000     
  -7.5999999999999984E-002     0.0000000000000000     
  -7.4899999999999994E-002     0.0000000000000000     
  -7.3799999999999991E-002     0.0000000000000000     
  -7.2699999999999987E-002     0.0000000000000000     
  -7.1599999999999997E-002     0.0000000000000000     
  -7.0499999999999993E-002     0.0000000000000000     
  -6.9399999999999989E-002     0.0000000000000000     
  -6.8300000000000000E-002     0.0000000000000000     
  -6.7199999999999996E-002     0.0000000000000000     
  -6.6099999999999992E-002     0.0000000000000000     
  -6.5000000000000002E-002     0.0000000000000000     
  -6.3899999999999985E-002     0.0000000000000000     
  -6.2799999999999995E-002     0.0000000000000000     
  -6.1699999999999991E-002     0.0000000000000000     
  -6.0599999999999994E-002     0.0000000000000000     
  -5.9499999999999990E-002     0.0000000000000000     
  -5.8399999999999994E-002     0.0000000000000000     
  -5.7299999999999990E-002     0.0000000000000000     
  -5.6199999999999986E-002     0.0000000000000000     
  -5.5099999999999996E-002     0.0000000000000000     
  -5.3999999999999992E-002     0.0000000000000000     
  -5.2899999999999989E-002     0.0000000000000000     
  -5.1799999999999985E-002     0.0000000000000000     
  -5.0699999999999995E-002     0.0000000000000000     
  -4.9599999999999991E-002     0.0000000000000000     
  -4.8499999999999988E-002     0.0000000000000000     
  -4.7399999999999998E-002     0.0000000000000000     
  -4.6299999999999994E-002     0.0000000000000000     
  -4.5199999999999990E-002     0.0000000000000000     
  -4.4099999999999986E-002     0.0000000000000000     
  -4.2999999999999997E-002     0.0000000000000000     
  -4.1899999999999993E-002     0.0000000000000000     
  -4.0799999999999989E-002     0.0000000000000000     
  -3.9699999999999985E-002     0.0000000000000000     
  -3.8599999999999995E-002     0.0000000000000000     
  -3.7499999999999992E-002     0.0000000000000000     
  -3.6399999999999988E-002     0.0000000000000000     
  -3.5299999999999984E-002     0.0000000000000000     
  -3.4199999999999994E-002     0.0000000000000000     
  -3.3099999999999991E-002     0.0000000000000000     
  -3.1999999999999987E-002     0.0000000000000000     
  -3.0899999999999997E-002     0.0000000000000000     
  -2.9799999999999993E-002     0.0000000000000000     
  -2.8699999999999989E-002     0.0000000000000000     
  -2.7599999999999986E-002     0.0000000000000000     
  -2.6499999999999996E-002     0.0000000000000000     
  -2.5399999999999992E-002     0.0000000000000000     
  -2.4299999999999988E-002    -8.5448602596970841E-048
  -2.3199999999999985E-002    -2.5819091971029411E-047
  -2.2099999999999995E-002    -2.8534591078873492E-047
  -2.0999999999999991E-002     9.1672327289522283E-047
  -1.9899999999999987E-002    -3.6603053451916776E-038
  -1.8799999999999983E-002    -1.0604763316233430E-037
  -1.7699999999999994E-002    -1.4581052047578898E-037
  -1.6599999999999990E-002     2.7815733179064878E-038
  -1.5499999999999986E-002     5.0931356044494115E-037
  -1.4399999999999996E-002     1.0563049694975892E-036
  -1.3299999999999992E-002     1.0230436650703666E-036
  -1.2199999999999989E-002    -3.9944811884248682E-037
  -1.1099999999999985E-002    -3.5249691843539902E-036
  -9.9999999999999950E-003    -7.0553796478185603E-036
  -8.8999999999999913E-003    -7.3851623797767293E-036
  -7.7999999999999875E-003     4.6961473132600005E-037
  -6.6999999999999837E-003     1.9078303344361909E-035
  -5.5999999999999939E-003     4.2265501985320152E-035
  -4.4999999999999901E-003     5.0142267082886108E-035
  -3.3999999999999864E-003     1.2949062155271712E-035
  -2.2999999999999826E-003    -8.8893321626185865E-035
  -1.1999999999999927E-003    -2.2961082637833349E-034
  -9.9999999999988987E-005    -3.0719967611889624E-034
   1.0000000000000148E-003    -1.5618949721876847E-034
   2.1000000000000185E-003     3.5466450473913276E-034
   3.2000000000000084E-003     1.1391746950689025E-033
   4.3000000000000121E-003     1.7155541086571795E-033
   5.4000000000000159E-003     1.2281993001467170E-033
   6.5000000000000058E-003    -1.1134535815723561E-033
   7.6000000000000234E-003    -5.1417386410320981E-033
   8.7000000000000133E-003    -8.7737972622883945E-033
   9.8000000000000032E-003    -7.8969123019641987E-033
   1.0900000000000021E-002     1.8261204918171562E-033
   1.2000000000000011E-002     2.0885228458649830E-032
   1.3100000000000001E-002     4.1128293293874631E-032
   1.4200000000000018E-002     4.4198567115756199E-032
   1.5300000000000008E-002     8.2515224529956768E-033
   1.6400000000000026E-002    -7.4712716104042265E-032
   1.7500000000000016E-002    -1.7641582920050327E-031
   1.8600000000000005E-002    -2.2096206974193277E-031
   1.9700000000000023E-002    -1.0688242437356391E-031
   2.0800000000000013E-002     2.2414187413209976E-031
   2.1900000000000003E-002     6.8921349548945455E-031
   2.3000000000000020E-002     9.9889353432223977E-031
   2.4100000000000010E-002     7.1737068074367130E-031
   2.5200000000000000E-002    -4.8472971232117599E-031
   2.6300000000000018E-002    -2.4297778498902956E-030
   2.7400000000000008E-002    -4.1068639213674537E-030
   2.8500000000000025E-002    -3.7833238769802377E-030
   2.9600000000000015E-002     1.3799737101463449E-031
   3.0700000000000005E-002     7.5903697453216337E-030
   3.1800000000000023E-002     1.5380858701387427E-029
   3.2900000000000013E-002     1.7134584969522769E-029
   3.4000000000000002E-002     5.9447838363270726E-030
   3.5100000000000020E-002    -2.0185021640011553E-029
   3.6200000000000010E-002    -5.2358295288436407E-029
   3.7300000000000028E-002    -6.8909183650723085E-029
   3.8400000000000017E-002    -4.2715769226461530E-029
   3.9500000000000007E-002     4.0749027009383270E-029
   4.0600000000000025E-002     1.6085594364376265E-028
   4.1700000000000015E-002     2.4986678065225518E-028
   4.2800000000000005E-002     2.1013029650053535E-028
   4.3900000000000022E-002    -3.0332221791966904E-029
   4.5000000000000012E-002    -4.3894249609035038E-028
   4.6100000000000002E-002    -8.2244036016233174E-028
   4.7200000000000020E-002    -8.5678325593365344E-028
   4.8300000000000010E-002    -2.4511818731158491E-028
   4.9400000000000027E-002     1.0255997725674572E-027
   5.0500000000000017E-002     2.4601752049903612E-027
   5.1600000000000007E-002     3.0654121769595376E-027
   5.2700000000000025E-002     1.7599205710380104E-027
   5.3800000000000014E-002    -1.8478413673573885E-027
   5.4900000000000004E-002    -6.6574236583607673E-027
   5.6000000000000022E-002    -9.8588407822065677E-027
   5.7100000000000012E-002    -7.8818536857954055E-027
   5.8200000000000002E-002     1.4055863872204120E-027
   5.9300000000000019E-002     1.6077143907294470E-026
   6.0400000000000009E-002     2.8825393475162421E-026
   6.1500000000000027E-002     2.8826468975055897E-026
   6.2600000000000017E-002     7.5158800935637288E-027
   6.3700000000000007E-002    -3.3495163334010299E-026
   6.4800000000000024E-002    -7.6920760626670843E-026
   6.5900000000000014E-002    -9.2422986911785185E-026
   6.7000000000000004E-002    -5.0637481002635337E-026
   6.8100000000000022E-002     5.4556701548918242E-026
   6.9200000000000012E-002     1.8682942852770191E-025
   7.0300000000000029E-002     2.6737264504311550E-025
   7.1400000000000019E-002     2.0598387202532427E-025
   7.2500000000000009E-002    -4.0415894612548369E-026
   7.3600000000000027E-002    -4.0790010382784158E-025
   7.4700000000000016E-002    -7.0708995046371700E-025
   7.5800000000000006E-002    -6.8430059847913751E-025
   7.6900000000000024E-002    -1.6518178162204103E-025
   7.8000000000000014E-002     7.7429182498299341E-025
   7.9100000000000004E-002     1.7164126287899127E-024
   8.0200000000000021E-002     2.0011738669205364E-024
   8.1300000000000011E-002     1.0544720546590884E-024
   8.2400000000000029E-002    -1.1589853626679770E-024
   8.3500000000000019E-002    -3.8092002592752293E-024
   8.4600000000000009E-002    -5.3015858661010983E-024
   8.5700000000000026E-002    -3.9688002487275478E-024
   8.6800000000000016E-002     8.0976846117193618E-025
   8.7900000000000006E-002     7.6130851675255501E-024
   8.9000000000000024E-002     1.2868407115592845E-023
   9.0100000000000013E-002     1.2171414608858079E-023
   9.1200000000000003E-002     2.8727545718294900E-024
   9.2300000000000021E-002    -1.3196648937917973E-023
   9.3400000000000011E-002    -2.8666347006804374E-023
   9.4500000000000028E-002    -3.2810981237790504E-023
   9.5600000000000018E-002    -1.7124952350029568E-023
   9.6700000000000008E-002     1.7816906217940446E-023
   9.7800000000000026E-002     5.8240767543616448E-023
   9.8900000000000016E-002     7.9939857298360523E-023
  0.10000000000000001          5.9410863087959648E-023
  0.10110000000000002         -1.0105856981706027E-023
  0.10220000000000001         -1.0612150678578693E-022
  0.10330000000000003         -1.7799120359957191E-022
  0.10440000000000002         -1.6726108001166304E-022
  0.10550000000000001         -4.2663258097034198E-023
  0.10660000000000003          1.6676239283017174E-022
  0.10770000000000002          3.6325052963892616E-022
  0.10880000000000001          4.1335670309995630E-022
  0.10990000000000003          2.1926577045186580E-022
  0.11100000000000002         -2.0156935860099506E-022
  0.11210000000000001         -6.7709605092281916E-022
  0.11320000000000002         -9.2502188294488591E-022
  0.11430000000000001         -6.8811511530986734E-022
  0.11540000000000003          8.8749297594895488E-023
  0.11650000000000002          1.1372247064525802E-021
  0.11760000000000001          1.9020779895481010E-021
  0.11870000000000003          1.7780877387198542E-021
  0.11980000000000002          4.7723116734901444E-022
  0.12090000000000001         -1.6570007865549373E-021
  0.12200000000000003         -3.6118667768620254E-021
  0.12310000000000001         -4.0801624858900904E-021
  0.12420000000000003         -2.1727865885726232E-021
  0.12530000000000002          1.8519642812081044E-021
  0.12640000000000001          6.3005579806965479E-021
  0.12750000000000003          8.5530588513042252E-021
  0.12860000000000002          6.3539248887468560E-021
  0.12970000000000001         -6.3238177378155779E-022
  0.13080000000000003         -9.8824972062629113E-021
  0.13190000000000002         -1.6515376641463025E-020
  0.13300000000000001         -1.5455640366149868E-020
  0.13410000000000000         -4.5168908707456990E-021
  0.13520000000000004          1.3186712143476723E-020
  0.13630000000000003          2.9248699327628446E-020
  0.13740000000000002          3.3261740272096117E-020
  0.13850000000000001          1.8514736886864322E-020
  0.13960000000000000         -1.2588630625447480E-020
  0.14070000000000005         -4.6838148955316321E-020
  0.14180000000000004         -6.4581919588323027E-020
  0.14290000000000003         -4.9528415136390088E-020
  0.14400000000000002          2.0132460442804829E-022
  0.14510000000000001          6.6135119052107673E-020
  0.14620000000000000          1.1395892821510731E-019
  0.14730000000000004          1.0914900237279783E-019
  0.14840000000000003          3.7800487025053220E-020
  0.14950000000000002         -7.8373333626433679E-020
  0.15060000000000001         -1.8386973908463878E-019
  0.15170000000000000         -2.1227439786802819E-019
  0.15280000000000005         -1.2290663189577238E-019
  0.15390000000000004          6.6710448588301258E-020
  0.15500000000000003          2.7352650135460802E-019
  0.15610000000000002          3.7894477737336452E-019
  0.15720000000000001          2.8935780884486718E-019
  0.15830000000000000         -6.4131225796384628E-023
  0.15940000000000004         -3.7582041171773279E-019
  0.16050000000000003         -6.3879126244554945E-019
  0.16160000000000002         -5.9802894035126412E-019
  0.16270000000000001         -1.8734768670252885E-019
  0.16380000000000000          4.5844903298775878E-019
  0.16490000000000005          1.0249973403437597E-018
  0.16600000000000004          1.1528340735313970E-018
  0.16710000000000003          6.3722086301726918E-019
  0.16820000000000002         -4.0670854782551202E-019
  0.16930000000000001         -1.5209187925747861E-018
  0.17040000000000000         -2.0766026011192008E-018
  0.17150000000000004         -1.5937856557507330E-018
  0.17260000000000003         -6.0951429351678414E-020
  0.17370000000000002          1.9322049849531553E-018
  0.17480000000000001          3.3756022772955569E-018
  0.17590000000000000          3.3095636971888004E-018
  0.17700000000000005          1.3867373879897574E-018
  0.17810000000000004         -1.7770862844267205E-018
  0.17920000000000003         -4.7182551700759985E-018
  0.18030000000000002         -5.7538629691678055E-018
  0.18140000000000001         -3.8847172706618590E-018
  0.18250000000000000          4.8250416382870138E-019
  0.18360000000000004          5.4520330312184839E-018
  0.18470000000000003          8.3897455478275484E-018
  0.18580000000000002          7.2644945435178837E-018
  0.18690000000000001          1.9379578365034984E-018
  0.18800000000000000         -5.3558550879503709E-018
  0.18910000000000005         -1.0801375746594963E-017
  0.19020000000000004         -1.0886477759145352E-017
  0.19130000000000003         -4.5266946569228979E-018
  0.19240000000000002          5.7612798618781593E-018
  0.19350000000000001          1.4542889021170165E-017
  0.19460000000000005          1.6033284895963802E-017
  0.19570000000000004          7.4796964119577440E-018
  0.19680000000000003         -8.4369509975603782E-018
  0.19790000000000002         -2.3824851368193649E-017
  0.19900000000000001         -2.8930896753488539E-017
  0.20010000000000000         -1.7424255340225175E-017
  0.20120000000000005          8.9750724204137658E-018
  0.20230000000000004          3.9340557576281327E-017
  0.20340000000000003          5.7346175255610466E-017
  0.20450000000000002          4.9056971998130876E-017
  0.20560000000000000          1.1266792394826285E-017
  0.20670000000000005         -4.4111040411431349E-017
  0.20780000000000004         -9.2868817813681969E-017
  0.20890000000000003         -1.0852837921258233E-016
  0.21000000000000002         -7.5620732440857373E-017
  0.21110000000000001          2.3571660298711107E-019
  0.21220000000000000          9.1366783593004779E-017
  0.21330000000000005          1.5823000263469752E-016
  0.21440000000000003          1.6717571603737136E-016
  0.21550000000000002          1.0760223444795503E-016
  0.21660000000000001         -5.3735845074337550E-019
  0.21770000000000000         -1.1397498017612192E-016
  0.21880000000000005         -1.8589689149394618E-016
  0.21990000000000004         -1.8890193886439757E-016
  0.22100000000000003         -1.2890994301986606E-016
  0.22210000000000002         -4.1403359194750501E-017
  0.22320000000000001          2.9519146265907777E-017
  0.22430000000000000          5.8595219133803058E-017
  0.22540000000000004          5.7126125148705357E-017
  0.22650000000000003          6.7941628942261257E-017
  0.22760000000000002          1.3625960558015110E-016
  0.22870000000000001          2.7004360147386718E-016
  0.22980000000000000          4.1347497321396466E-016
  0.23090000000000005          4.5525416089428811E-016
  0.23200000000000004          2.7807014503370785E-016
  0.23310000000000003         -1.6742581035194436E-016
  0.23420000000000002         -8.0003266808475460E-016
  0.23530000000000001         -1.3964402117541423E-015
  0.23640000000000000         -1.6530658914944568E-015
  0.23750000000000004         -1.3101700187551025E-015
  0.23860000000000003         -2.9190740972356832E-016
  0.23970000000000002          1.2028456422096057E-015
  0.24080000000000001          2.7137347262373583E-015
  0.24190000000000000          3.6518101600462679E-015
  0.24300000000000005          3.5144023602830039E-015
  0.24410000000000004          2.1013733239773241E-015
  0.24520000000000003         -3.5854904300183939E-016
  0.24630000000000002         -3.2324773948714702E-015
  0.24740000000000001         -5.6602688356465806E-015
  0.24850000000000005         -6.8215285501074142E-015
  0.24960000000000004         -6.1940211320966726E-015
  0.25070000000000003         -3.7126758197787271E-015
  0.25180000000000002          2.1358799048732871E-016
  0.25290000000000001          4.8073007301468612E-015
  0.25400000000000000          9.0868592712652742E-015
  0.25510000000000005          1.2025894162756679E-014
  0.25620000000000004          1.2683813445537899E-014
  0.25730000000000003          1.0336552189593949E-014
  0.25840000000000002          4.6610007851144342E-015
  0.25950000000000001         -4.0060918167622577E-015
  0.26060000000000005         -1.4399310927824217E-014
  0.26170000000000004         -2.4205013183877094E-014
  0.26280000000000003         -3.0288685004352354E-014
  0.26390000000000002         -2.9396444259404820E-014
  0.26500000000000001         -1.9273145351694138E-014
  0.26610000000000000          1.0024710701038451E-016
  0.26720000000000005          2.5633962790963822E-014
  0.26830000000000004          5.1125580124341499E-014
  0.26940000000000003          6.8423761447521131E-014
  0.27050000000000002          6.9662022032916899E-014
  0.27160000000000001          5.0009770264029255E-014
  0.27270000000000005          1.0058114835642309E-014
  0.27380000000000004         -4.3086637735291572E-014
  0.27490000000000003         -9.6626536295009233E-014
  0.27600000000000002         -1.3486465266199457E-013
  0.27710000000000001         -1.4336611232085163E-013
  0.27820000000000000         -1.1338652663953070E-013
  0.27930000000000005         -4.5299084763862396E-014
  0.28040000000000004          5.0031596221691724E-014
  0.28150000000000003          1.5246596984127347E-013
  0.28260000000000002          2.3629988299367017E-013
  0.28370000000000001          2.7580617715621946E-013
  0.28480000000000005          2.5156114014348944E-013
  0.28590000000000004          1.5632148830635548E-013
  0.28700000000000003         -8.1658653238848895E-016
  0.28810000000000002         -1.9316657980584771E-013
  0.28920000000000001         -3.7906374758558313E-013
  0.29030000000000000         -5.0879390376978328E-013
  0.29140000000000005         -5.3542142161204004E-013
  0.29250000000000004         -4.2788380055162937E-013
  0.29360000000000003         -1.8342652993662881E-013
  0.29470000000000002          1.6443718652640142E-013
  0.29580000000000001          5.4617822310775900E-013
  0.29690000000000005          8.6701625002557811E-013
  0.29800000000000004          1.0277675993370133E-012
  0.29910000000000003          9.5193373076864318E-013
  0.30020000000000002          6.1218141951946400E-013
  0.30130000000000001          4.7976220350628951E-014
  0.30240000000000000         -6.3278071231385060E-013
  0.30350000000000005         -1.2715801605045645E-012
  0.30460000000000004         -1.6946196924148329E-012
  0.30570000000000003         -1.7579806860940520E-012
  0.30680000000000002         -1.3910413562611119E-012
  0.30790000000000001         -6.2557186157281343E-013
  0.30900000000000005          3.9930465722393170E-013
  0.31010000000000004          1.4603139493018423E-012
  0.31120000000000003          2.2980842283155760E-012
  0.31230000000000002          2.6798478603293013E-012
  0.31340000000000001          2.4619670315625914E-012
  0.31450000000000006          1.6363140196649658E-012
  0.31560000000000005          3.4716357854449604E-013
  0.31670000000000004         -1.1288271525655240E-012
  0.31780000000000003         -2.4389071184261886E-012
  0.31890000000000002         -3.2373365818685609E-012
  0.32000000000000001         -3.2779885323337254E-012
  0.32110000000000005         -2.4939371207034766E-012
  0.32220000000000004         -1.0406853418428410E-012
  0.32330000000000003          7.1544270451660413E-013
  0.32440000000000002          2.2713191567315061E-012
  0.32550000000000001          3.1152178873411871E-012
  0.32660000000000006          2.8834354201274307E-012
  0.32770000000000005          1.5049704989354154E-012
  0.32880000000000004         -7.1232190140163102E-013
  0.32990000000000003         -3.0943086209431928E-012
  0.33100000000000002         -4.7317414058857049E-012
  0.33210000000000001         -4.7184286934968144E-012
  0.33320000000000005         -2.4494997357983351E-012
  0.33430000000000004          2.0962771799800167E-012
  0.33540000000000003          8.1789557596335159E-012
  0.33650000000000002          1.4302727328409233E-011
  0.33760000000000001          1.8446610428817816E-011
  0.33870000000000006          1.8508402984307791E-011
  0.33980000000000005          1.2888083678033615E-011
  0.34090000000000004          1.0836766691375020E-012
  0.34200000000000003         -1.5856455042816510E-011
  0.34310000000000002         -3.5175112705732201E-011
  0.34420000000000001         -5.2647025386108564E-011
  0.34530000000000005         -6.3246060826380304E-011
  0.34640000000000004         -6.2167846879432579E-011
  0.34750000000000003         -4.6038849477918422E-011
  0.34860000000000002         -1.4067227212569016E-011
  0.34970000000000001          3.1141183372502164E-011
  0.35080000000000006          8.3353448866718801E-011
  0.35190000000000005          1.3323249393329132E-010
  0.35300000000000004          1.6964096717142152E-010
  0.35410000000000003          1.8158902071709088E-010
  0.35520000000000002          1.6052739609140830E-010
  0.35630000000000001          1.0256640613253545E-010
  0.35740000000000005          1.0154441280600860E-011
  0.35850000000000004         -1.0720454359073031E-010
  0.35960000000000003         -2.3347462769621040E-010
  0.36070000000000002         -3.4791883128347999E-010
  0.36180000000000001         -4.2805520064899582E-010
  0.36290000000000006         -4.5332185035046853E-010
  0.36400000000000005         -4.0886616131389794E-010
  0.36510000000000004         -2.8880356295501595E-010
  0.36620000000000003         -9.8340654296430819E-011
  0.36730000000000002          1.4568046756087690E-010
  0.36840000000000006          4.1601449947690916E-010
  0.36950000000000005          6.7793237472600551E-010
  0.37060000000000004          8.9345902589972914E-010
  0.37170000000000003          1.0263378998010777E-009
  0.37280000000000002          1.0470045900474359E-009
  0.37390000000000001          9.3684626320618474E-010
  0.37500000000000006          6.9114458247334364E-010
  0.37610000000000005          3.2033045398204582E-010
  0.37720000000000004         -1.5051765522114840E-010
  0.37830000000000003         -6.8368921604832721E-010
  0.37940000000000002         -1.2318759324027770E-009
  0.38050000000000006         -1.7416007482570904E-009
  0.38160000000000005         -2.1564623356707769E-009
  0.38270000000000004         -2.4198238884341130E-009
  0.38380000000000003         -2.4769075578184304E-009
  0.38490000000000002         -2.2766213245751716E-009
  0.38600000000000001         -1.7737308172202012E-009
  0.38710000000000000         -9.3209061613603846E-010
  0.38819999999999999          2.7048752951721384E-010
  0.38930000000000009          1.8355168533520900E-009
  0.39040000000000008          3.7355571938384712E-009
  0.39150000000000007          5.9051798883866920E-009
  0.39260000000000006          8.2323392311055805E-009
  0.39370000000000005          1.0551403269886509E-008
  0.39480000000000004          1.2638883666666731E-008
  0.39590000000000003          1.4212393864180950E-008
  0.39700000000000002          1.4932641714257936E-008
  0.39810000000000001          1.4407468025082766E-008
  0.39920000000000000          1.2196243932523002E-008
  0.40029999999999999          7.8123391479203526E-009
  0.40140000000000009          7.2102674516981668E-010
  0.40250000000000008         -9.6698995561103254E-009
  0.40360000000000007         -2.4029407744032272E-008
  0.40470000000000006         -4.3134622845120215E-008
  0.40580000000000005         -6.7915983691351761E-008
  0.40690000000000004         -9.9517059071928879E-008
  0.40800000000000003         -1.3936909165951115E-007
  0.40910000000000002         -1.8927988690601058E-007
  0.41020000000000001         -2.5153593579674922E-007
  0.41130000000000000         -3.2901638590465330E-007
  0.41239999999999999         -4.2531789085365756E-007
  0.41350000000000009         -5.4489100610149313E-007
  0.41460000000000008         -6.9319002819096318E-007
  0.41570000000000007         -8.7684019966558720E-007
  0.41680000000000006         -1.1038289303296019E-006
  0.41790000000000005         -1.3837271739414981E-006
  0.41900000000000004         -1.7279512489998832E-006
  0.42010000000000003         -2.1500711574457115E-006
  0.42120000000000002         -2.6661737004199999E-006
  0.42230000000000001         -3.2952834606216165E-006
  0.42340000000000000         -4.0598451755570814E-006
  0.42449999999999999         -4.9862669332481911E-006
  0.42560000000000009         -6.1055233945896029E-006
  0.42670000000000008         -7.4538138127618759E-006
  0.42780000000000007         -9.0732846267679717E-006
  0.42890000000000006         -1.1012798439199197E-005
  0.43000000000000005         -1.3328752106714688E-005
  0.43110000000000004         -1.6085948945455339E-005
  0.43220000000000003         -1.9358516411192308E-005
  0.43330000000000002         -2.3230886534609778E-005
  0.43440000000000001         -2.7798812736375250E-005
  0.43550000000000000         -3.3170421203008245E-005
  0.43659999999999999         -3.9467278633653334E-005
  0.43770000000000009         -4.6825479995736483E-005
  0.43880000000000008         -5.5396714452748200E-005
  0.43990000000000007         -6.5349260351440616E-005
  0.44100000000000006         -7.6868963838119475E-005
  0.44210000000000005         -9.0159984644293362E-005
  0.44320000000000004         -1.0544543273295963E-004
  0.44430000000000003         -1.2296778666616253E-004
  0.44540000000000002         -1.4298895181265162E-004
  0.44650000000000001         -1.6579008572489755E-004
  0.44760000000000000         -1.9167098695865327E-004
  0.44869999999999999         -2.2094888726399361E-004
  0.44980000000000009         -2.5395696728996759E-004
  0.45090000000000008         -2.9104220290115344E-004
  0.45200000000000007         -3.3256265852143915E-004
  0.45310000000000006         -3.7888405288204397E-004
  0.45420000000000005         -4.3037571358910625E-004
  0.45530000000000004         -4.8740577499168123E-004
  0.45640000000000003         -5.5033538651951160E-004
  0.45750000000000002         -6.1951268819015570E-004
  0.45860000000000001         -6.9526524361310823E-004
  0.45970000000000000         -7.7789218195562458E-004
  0.46079999999999999         -8.6765537948214194E-004
  0.46190000000000009         -9.6476968066730017E-004
  0.46300000000000008         -1.0693930028936498E-003
  0.46410000000000007         -1.1816158590727537E-003
  0.46520000000000006         -1.3014494832824257E-003
  0.46630000000000005         -1.4288143638576086E-003
  0.46740000000000004         -1.5635295913884930E-003
  0.46850000000000003         -1.7053014500190619E-003
  0.46960000000000002         -1.8537129400681949E-003
  0.47070000000000001         -2.0082129514048083E-003
  0.47180000000000000         -2.1681082307907179E-003
  0.47289999999999999         -2.3325555820541345E-003
  0.47400000000000009         -2.5005556960776662E-003
  0.47510000000000008         -2.6709493090927307E-003
  0.47620000000000007         -2.8424155728650996E-003
  0.47730000000000006         -3.0134715890336138E-003
  0.47840000000000005         -3.1824766000617859E-003