-0.1200000E+00  0.0000000E+00
-0.1189000E+00  0.0000000E+00
-0.1178000E+00  0.0000000E+00
-0.1167000E+00  0.0000000E+00
-0.1156000E+00  0.0000000E+00
-0.1145000E+00  0.0000000E+00
-0.1134000E+00  0.0000000E+00
-0.1123000E+00  0.0000000E+00
-0.1112000E+00  0.0000000E+00
-0.1101000E+00  0.0000000E+00
-0.1090000E+00  0.0000000E+00
-0.1079000E+00  0.0000000E+00
-0.1068000E+00  0.0000000E+00
-0.1057000E+00  0.0000000E+00
-0.1046000E+00 -0.0000000E+00
-0.1035000E+00 -0.0000000E+00
-0.1024000E+00  0.0000000E+00
-0.1013000E+00  0.1311508E-36
-0.1002000E+00  0.9222116E-36
-0.9910000E-01  0.2355738E-35
-0.9800000E-01 -0.1916359E-35
-0.9690000E-01 -0.2939636E-34
-0.9580000E-01 -0.6022760E-34
-0.9470000E-01  0.1620259E-33
-0.9360000E-01  0.1335018E-32
-0.9250000E-01  0.3675823E-32
-0.9140000E-01  0.2673918E-32
-0.9030000E-01 -0.1745186E-31
-0.8920000E-01 -0.7668324E-31
-0.8810000E-01 -0.1405018E-30
-0.8700000E-01  0.1010565E-31
-0.8590000E-01  0.8424555E-30
-0.8480000E-01  0.2607066E-29
-0.8370000E-01  0.3740402E-29
-0.8260000E-01 -0.1431850E-29
-0.8150000E-01 -0.2202429E-28
-0.8040000E-01 -0.5918763E-28
-0.7930000E-01 -0.7828048E-28
-0.7820000E-01  0.2063046E-28
-0.7710000E-01  0.3757540E-27
-0.7600000E-01  0.9858104E-27
-0.7490000E-01  0.1346111E-26
-0.7380000E-01  0.1256782E-27
-0.7270000E-01 -0.4439415E-26
-0.7160000E-01 -0.1250461E-25
-0.7050000E-01 -0.1875133E-25
-0.6940000E-01 -0.9090398E-26
-0.6830000E-01  0.3579897E-25
-0.6720000E-01  0.1220575E-24
-0.6610000E-01  0.2080444E-24
-0.6500000E-01  0.1727556E-24
-0.6390000E-01 -0.1640879E-24
-0.6280000E-01 -0.9080846E-24
-0.6170000E-01 -0.1825679E-23
-0.6060000E-01 -0.2071124E-23
-0.5950000E-01 -0.2272938E-24
-0.5840000E-01  0.4906819E-23
-0.5730000E-01  0.1258884E-22
-0.5620000E-01  0.1807531E-22
-0.5510000E-01  0.1206678E-22
-0.5400000E-01 -0.1566056E-22
-0.5290000E-01 -0.6668517E-22
-0.5180000E-01 -0.1206621E-21
-0.5070000E-01 -0.1272234E-21
-0.4960000E-01 -0.1770576E-22
-0.4850000E-01  0.2506195E-21
-0.4740000E-01  0.6218377E-21
-0.4630000E-01  0.8761399E-21
-0.4520000E-01  0.6415777E-21
-0.4410000E-01 -0.4418851E-21
-0.4300000E-01 -0.2387627E-20
-0.4190000E-01 -0.4471553E-20
-0.4080000E-01 -0.5067984E-20
-0.3970000E-01 -0.2085978E-20
-0.3860000E-01  0.5759857E-20
-0.3750000E-01  0.1708187E-19
-0.3640000E-01  0.2631289E-19
-0.3530000E-01  0.2412076E-19
-0.3420000E-01  0.1192869E-20
-0.3310000E-01 -0.4452233E-19
-0.3200000E-01 -0.9965004E-19
-0.3090000E-01 -0.1317333E-18
-0.2980000E-01 -0.9670464E-19
-0.2870000E-01  0.3872384E-19
-0.2760000E-01  0.2638943E-18
-0.2650000E-01  0.4955785E-18
-0.2540000E-01  0.5779754E-18
-0.2430000E-01  0.3336160E-18
-0.2320000E-01 -0.3314396E-18
-0.2210000E-01 -0.1299886E-17
-0.2100000E-01 -0.2163304E-17
-0.1990000E-01 -0.2278426E-17
-0.1880000E-01 -0.1018690E-17
-0.1770000E-01  0.1808186E-17
-0.1660000E-01  0.5534283E-17
-0.1550000E-01  0.8464978E-17
-0.1440000E-01  0.8248451E-17
-0.1330000E-01  0.2896036E-17
-0.1220000E-01 -0.7766424E-17
-0.1110000E-01 -0.2083816E-16
-0.1000000E-01 -0.3015594E-16
-0.8900000E-02 -0.2793681E-16
-0.7800000E-02 -0.8355251E-17
-0.6700000E-02  0.2792639E-16
-0.5600000E-02  0.7036621E-16
-0.4500000E-02  0.9887622E-16
-0.3400000E-02  0.8973261E-16
-0.2300000E-02  0.2673355E-16
-0.1200000E-02 -0.8584427E-16
-0.1000000E-03 -0.2147061E-15
 0.1000000E-02 -0.3003243E-15
 0.2100000E-02 -0.2751957E-15
 0.3200000E-02 -0.9538011E-16
 0.4300000E-02  0.2249938E-15
 0.5400000E-02  0.5929407E-15
 0.6500000E-02  0.8466730E-15
 0.7600000E-02  0.8053194E-15
 0.8700000E-02  0.3506769E-15
 0.9800000E-02 -0.4861689E-15
 0.1090000E-01 -0.1474415E-14
 0.1200000E-01 -0.2209335E-14
 0.1310000E-01 -0.2233018E-14
 0.1420000E-01 -0.1229943E-14
 0.1530000E-01  0.7666292E-15
 0.1640000E-01  0.3250951E-14
 0.1750000E-01  0.5293036E-14
 0.1860000E-01  0.5800206E-14
 0.1970000E-01  0.3949266E-14
 0.2080000E-01 -0.3464360E-15
 0.2190000E-01 -0.6132906E-14
 0.2300000E-01 -0.1146508E-13
 0.2410000E-01 -0.1390582E-13
 0.2520000E-01 -0.1140309E-13
 0.2630000E-01 -0.3287419E-14
 0.2740000E-01  0.8998156E-14
 0.2850000E-01  0.2182473E-13
 0.2960000E-01  0.3018566E-13
 0.3070000E-01  0.2930769E-13
 0.3180000E-01  0.1663467E-13
 0.3290000E-01 -0.6513284E-14
 0.3400000E-01 -0.3435309E-13
 0.3510000E-01 -0.5763546E-13
 0.3620000E-01 -0.6624044E-13
 0.3730000E-01 -0.5277109E-13
 0.3840000E-01 -0.1602363E-13
 0.3950000E-01  0.3699295E-13
 0.4060000E-01  0.9156373E-13
 0.4170000E-01  0.1286762E-12
 0.4280000E-01  0.1307328E-12
 0.4390000E-01  0.8803073E-13
 0.4500000E-01  0.3911805E-14
 0.4610000E-01 -0.1034436E-12
 0.4720000E-01 -0.2038296E-12
 0.4830000E-01 -0.2623681E-12
 0.4940000E-01 -0.2498487E-12
 0.5050000E-01 -0.1532923E-12
 0.5160000E-01  0.1652693E-13
 0.5270000E-01  0.2234446E-12
 0.5380000E-01  0.4116761E-12
 0.5490000E-01  0.5185864E-12
 0.5600000E-01  0.4919939E-12
 0.5710000E-01  0.3078928E-12
 0.5820000E-01 -0.1631730E-13
 0.5930000E-01 -0.4176414E-12
 0.6040000E-01 -0.7953264E-12
 0.6150000E-01 -0.1031132E-11
 0.6260000E-01 -0.1019251E-11
 0.6370000E-01 -0.6999077E-12
 0.6480000E-01 -0.8821292E-13
 0.6590000E-01  0.7110109E-12
 0.6700000E-01  0.1510369E-11
 0.6810000E-01  0.2072923E-11
 0.6920000E-01  0.2168714E-11
 0.7030000E-01  0.1644749E-11
 0.7140000E-01  0.4914279E-12
 0.7250000E-01 -0.1115604E-11
 0.7360000E-01 -0.2817895E-11
 0.7470000E-01 -0.4132695E-11
 0.7580000E-01 -0.4565296E-11
 0.7690000E-01 -0.3755404E-11
 0.7800000E-01 -0.1621604E-11
 0.7910000E-01  0.1541352E-11
 0.8020000E-01  0.5054970E-11
 0.8130000E-01  0.7964645E-11
 0.8240000E-01  0.9258433E-11
 0.8350000E-01  0.8157136E-11
 0.8460000E-01  0.4403997E-11
 0.8570000E-01 -0.1534588E-11
 0.8680000E-01 -0.8439024E-11
 0.8790000E-01 -0.1452490E-10
 0.8900000E-01 -0.1784153E-10
 0.9010000E-01 -0.1680698E-10
 0.9120000E-01 -0.1074949E-10
 0.9230000E-01 -0.2965554E-12
 0.9340000E-01  0.1253326E-10
 0.9450000E-01  0.2462181E-10
 0.9560000E-01  0.3241643E-10
 0.9670000E-01  0.3284882E-10
 0.9780000E-01  0.2429328E-10
 0.9890000E-01  0.7300251E-11
 0.1000000E+00 -0.1514174E-10
 0.1011000E+00 -0.3797272E-10
 0.1022000E+00 -0.5506504E-10
 0.1033000E+00 -0.6069825E-10
 0.1044000E+00 -0.5118260E-10
 0.1055000E+00 -0.2621582E-10
 0.1066000E+00  0.1043679E-10
 0.1077000E+00  0.5123275E-10
 0.1088000E+00  0.8619450E-10
 0.1099000E+00  0.1051189E-09
 0.1110000E+00  0.1002123E-09
 0.1121000E+00  0.6852995E-10
 0.1132000E+00  0.1355246E-10
 0.1143000E+00 -0.5464541E-10
 0.1154000E+00 -0.1208996E-09
 0.1165000E+00 -0.1680099E-09
 0.1176000E+00 -0.1808000E-09
 0.1187000E+00 -0.1503026E-09
 0.1198000E+00 -0.7702205E-10
 0.1209000E+00  0.2769597E-10
 0.1220000E+00  0.1428233E-09
 0.1231000E+00  0.2414239E-09
 0.1242000E+00  0.2964830E-09
 0.1253000E+00  0.2876253E-09
 0.1264000E+00  0.2071656E-09
 0.1275000E+00  0.6387928E-10
 0.1286000E+00 -0.1167739E-09
 0.1297000E+00 -0.2965232E-09
 0.1308000E+00 -0.4318556E-09
 0.1319000E+00 -0.4839026E-09
 0.1330000E+00 -0.4285073E-09
 0.1341000E+00 -0.2640167E-09
 0.1352000E+00 -0.1460269E-10
 0.1363000E+00  0.2722484E-09
 0.1374000E+00  0.5341637E-09
 0.1385000E+00  0.7068765E-09
 0.1396000E+00  0.7391690E-09
 0.1407000E+00  0.6063980E-09
 0.1418000E+00  0.3192316E-09
 0.1429000E+00 -0.7496371E-10
 0.1440000E+00 -0.4991382E-09
 0.1451000E+00 -0.8611394E-09
 0.1462000E+00 -0.1073168E-08
 0.1473000E+00 -0.1072053E-08
 0.1484000E+00 -0.8357790E-09
 0.1495000E+00 -0.3921983E-09
 0.1506000E+00  0.1826602E-09
 0.1517000E+00  0.7770963E-09
 0.1528000E+00  0.1265090E-08
 0.1539000E+00  0.1532430E-08
 0.1550000E+00  0.1502245E-08
 0.1561000E+00  0.1154378E-08
 0.1572000E+00  0.5340227E-09
 0.1583000E+00 -0.2528873E-09
 0.1594000E+00 -0.1057391E-08
 0.1605000E+00 -0.1715404E-08
 0.1616000E+00 -0.2080595E-08
 0.1627000E+00 -0.2055719E-08
 0.1638000E+00 -0.1615855E-08
 0.1649000E+00 -0.8183034E-09
 0.1660000E+00  0.2036402E-09
 0.1671000E+00  0.1262690E-08
 0.1682000E+00  0.2151780E-08
 0.1693000E+00  0.2684243E-08
 0.1704000E+00  0.2732170E-08
 0.1715000E+00  0.2255147E-08
 0.1726000E+00  0.1313106E-08
 0.1737000E+00  0.5993007E-10
 0.1748000E+00 -0.1281812E-08
 0.1759000E+00 -0.2460805E-08
 0.1770000E+00 -0.3244292E-08
 0.1781000E+00 -0.3463680E-08
 0.1792000E+00 -0.3049467E-08
 0.1803000E+00 -0.2048350E-08
 0.1814000E+00 -0.6187835E-09
 0.1825000E+00  0.9946440E-09
 0.1836000E+00  0.2503544E-08
 0.1847000E+00  0.3627140E-08
 0.1858000E+00  0.4143479E-08
 0.1869000E+00  0.3931259E-08
 0.1880000E+00  0.2994907E-08
 0.1891000E+00  0.1468486E-08
 0.1902000E+00 -0.4024196E-09
 0.1913000E+00 -0.2298224E-08
 0.1924000E+00 -0.3876740E-08
 0.1935000E+00 -0.4830895E-08
 0.1946000E+00 -0.4944141E-08
 0.1957000E+00 -0.4134818E-08
 0.1968000E+00 -0.2481630E-08
 0.1979000E+00 -0.2242396E-09
 0.1990000E+00  0.2264015E-08
 0.2001000E+00  0.4530234E-08
 0.2012000E+00  0.6117055E-08
 0.2023000E+00  0.6647912E-08
 0.2034000E+00  0.5907676E-08
 0.2045000E+00  0.3902093E-08
 0.2056000E+00  0.8809257E-09
 0.2067000E+00 -0.2684925E-08
 0.2078000E+00 -0.6173397E-08
 0.2089000E+00 -0.8918923E-08
 0.2100000E+00 -0.1033848E-07
 0.2111000E+00 -0.1005031E-07
 0.2122000E+00 -0.7958866E-08
 0.2133000E+00 -0.4285273E-08
 0.2144000E+00  0.4654656E-09
 0.2155000E+00  0.5594555E-08
 0.2166000E+00  0.1033650E-07
 0.2177000E+00  0.1399358E-07
 0.2188000E+00  0.1604640E-07
 0.2199000E+00  0.1621625E-07
 0.2210000E+00  0.1446902E-07
 0.2221000E+00  0.1096716E-07
 0.2232000E+00  0.5990698E-08
 0.2243000E+00 -0.1433989E-09
 0.2254000E+00 -0.7136421E-08
 0.2265000E+00 -0.1472038E-07
 0.2276000E+00 -0.2262655E-07
 0.2287000E+00 -0.3052439E-07
 0.2298000E+00 -0.3795442E-07
 0.2309000E+00 -0.4427906E-07
 0.2320000E+00 -0.4866477E-07
 0.2331000E+00 -0.5009251E-07
 0.2342000E+00 -0.4737593E-07
 0.2353000E+00 -0.3915660E-07
 0.2364000E+00 -0.2384638E-07
 0.2375000E+00  0.4989918E-09
 0.2386000E+00  0.3636924E-07
 0.2397000E+00  0.8702318E-07
 0.2408000E+00  0.1567035E-06
 0.2419000E+00  0.2508016E-06
 0.2430000E+00  0.3759501E-06
 0.2441000E+00  0.5400560E-06
 0.2452000E+00  0.7523241E-06
 0.2463000E+00  0.1023351E-05
 0.2474000E+00  0.1365382E-05
 0.2485000E+00  0.1792800E-05
 0.2496000E+00  0.2322896E-05
 0.2507000E+00  0.2976894E-05
 0.2518000E+00  0.3781169E-05
 0.2529000E+00  0.4768572E-05
 0.2540000E+00  0.5979765E-05
 0.2551000E+00  0.7464510E-05
 0.2562000E+00  0.9282933E-05
 0.2573000E+00  0.1150682E-04
 0.2584000E+00  0.1422110E-04
 0.2595000E+00  0.1752560E-04
 0.2606000E+00  0.2153733E-04
 0.2617000E+00  0.2639318E-04
 0.2628000E+00  0.3225319E-04
 0.2639000E+00  0.3930423E-04
 0.2650000E+00  0.4776396E-04
 0.2661000E+00  0.5788504E-04
 0.2672000E+00  0.6995936E-04
 0.2683000E+00  0.8432250E-04
 0.2694000E+00  0.1013583E-03
 0.2705000E+00  0.1215039E-03
 0.2716000E+00  0.1452548E-03
 0.2727000E+00  0.1731706E-03
 0.2738000E+00  0.2058815E-03
 0.2749000E+00  0.2440940E-03
 0.2760000E+00  0.2885978E-03
 0.2771000E+00  0.3402710E-03
 0.2782000E+00  0.4000862E-03
 0.2793000E+00  0.4691140E-03
 0.2804000E+00  0.5485272E-03
 0.2815000E+00  0.6396024E-03
 0.2826000E+00  0.7437213E-03
 0.2837000E+00  0.8623703E-03
 0.2848000E+00  0.9971391E-03
 0.2859000E+00  0.1149717E-02
 0.2870000E+00  0.1321886E-02
 0.2881000E+00  0.1515515E-02
 0.2892000E+00  0.1732544E-02
 0.2903000E+00  0.1974971E-02
 0.2914000E+00  0.2244830E-02
 0.2925000E+00  0.2544171E-02
 0.2936000E+00  0.2875027E-02
 0.2947000E+00  0.3239388E-02
 0.2958000E+00  0.3639157E-02
 0.2969000E+00  0.4076120E-02
 0.2980000E+00  0.4551895E-02
 0.2991000E+00  0.5067892E-02
 0.3002000E+00  0.5625256E-02
 0.3013000E+00  0.6224819E-02
 0.3024000E+00  0.6867040E-02
 0.3035000E+00  0.7551945E-02
 0.3046000E+00  0.8279070E-02
 0.3057000E+00  0.9047400E-02
 0.3068000E+00  0.9855312E-02
 0.3079000E+00  0.1070052E-01
 0.3090000E+00  0.1158001E-01
 0.3101000E+00  0.1249004E-01
 0.3112000E+00  0.1342604E-01
 0.3123000E+00  0.1438263E-01
 0.3134000E+00  0.1535359E-01
 0.3145000E+00  0.1633187E-01
 0.3156000E+00  0.1730954E-01
 0.3167000E+00  0.1827787E-01
 0.3178000E+00  0.1922736E-01
 0.3189000E+00  0.2014774E-01
 0.3200000E+00  0.2102810E-01
 0.3211000E+00  0.2185697E-01
 0.3222000E+00  0.2262240E-01
 0.3233000E+00  0.2331208E-01
 0.3244000E+00  0.2391353E-01
 0.3255000E+00  0.2441420E-01
 0.3266000E+00  0.2480166E-01
 0.3277000E+00  0.2506380E-01
 0.3288000E+00  0.2518898E-01
 0.3299000E+00  0.2516625E-01
 0.3310000E+00  0.2498552E-01
 0.3321000E+00  0.2463782E-01
 0.3332000E+00  0.2411541E-01
 0.3343000E+00  0.2341204E-01
 0.3354000E+00  0.2252307E-01
 0.3365000E+00  0.2144568E-01
 0.3376000E+00  0.2017898E-01
 0.3387000E+00  0.1872411E-01
 0.3398000E+00  0.1708437E-01
 0.3409000E+00  0.1526525E-01
 0.3420000E+00  0.1327447E-01
 0.3431000E+00  0.1112197E-01
 0.3442000E+00  0.8819842E-02
 0.3453000E+00  0.6382307E-02
 0.3464000E+00  0.3825551E-02
 0.3475000E+00  0.1167600E-02
 0.3486000E+00 -0.1571867E-02
 0.3497000E+00 -0.4371735E-02
 0.3508000E+00 -0.7209695E-02
 0.3519000E+00 -0.1006251E-01
 0.3530000E+00 -0.1290631E-01
 0.3541000E+00 -0.1571691E-01
 0.3552000E+00 -0.1847008E-01
 0.3563000E+00 -0.2114194E-01
 0.3574000E+00 -0.2370920E-01
 0.3585000E+00 -0.2614955E-01
 0.3596000E+00 -0.2844189E-01
 0.3607000E+00 -0.3056666E-01
 0.3618000E+00 -0.3250609E-01
 0.3629000E+00 -0.3424442E-01
 0.3640000E+00 -0.3576813E-01
 0.3651000E+00 -0.3706606E-01
 0.3662000E+00 -0.3812959E-01
 0.3673000E+00 -0.3895270E-01
 0.3684000E+00 -0.3953201E-01
 0.3695000E+00 -0.3986679E-01
 0.3706000E+00 -0.3995896E-01
 0.3717000E+00 -0.3981295E-01
 0.3728000E+00 -0.3943564E-01
 0.3739000E+00 -0.3883618E-01
 0.3750000E+00 -0.3802585E-01
 0.3761000E+00 -0.3701779E-01
 0.3772000E+00 -0.3582683E-01
 0.3783000E+00 -0.3446921E-01
 0.3794000E+00 -0.3296233E-01
 0.3805000E+00 -0.3132448E-01
 0.3816000E+00 -0.2957455E-01
 0.3827000E+00 -0.2773181E-01
 0.3838000E+00 -0.2581557E-01
 0.3849000E+00 -0.2384500E-01
 0.3860000E+00 -0.2183884E-01
 0.3871000E+00 -0.1981522E-01
 0.3882000E+00 -0.1779145E-01
 0.3893000E+00 -0.1578384E-01
 0.3904000E+00 -0.1380757E-01
 0.3915000E+00 -0.1187653E-01
 0.3926000E+00 -0.1000327E-01
 0.3937000E+00 -0.8198902E-02
 0.3948000E+00 -0.6473078E-02
 0.3959000E+00 -0.4833956E-02
 0.3970000E+00 -0.3288215E-02
 0.3981000E+00 -0.1841078E-02
 0.3992000E+00 -0.4963601E-03
 0.4003000E+00  0.7434670E-03
 0.4014000E+00  0.1877196E-02
 0.4025000E+00  0.2904788E-02
 0.4036000E+00  0.3827274E-02
 0.4047000E+00  0.4646642E-02
 0.4058000E+00  0.5365726E-02
 0.4069000E+00  0.5988096E-02
 0.4080000E+00  0.6517945E-02
 0.4091000E+00  0.6959983E-02
 0.4102000E+00  0.7319327E-02
 0.4113000E+00  0.7601405E-02
 0.4124000E+00  0.7811856E-02
 0.4135000E+00  0.7956448E-02
 0.4146000E+00  0.8040988E-02
 0.4157000E+00  0.8071252E-02
 0.4168000E+00  0.8052922E-02
 0.4179000E+00  0.7991526E-02
 0.4190000E+00  0.7892395E-02
 0.4201000E+00  0.7760627E-02
 0.4212000E+00  0.7601054E-02
 0.4223000E+00  0.7418228E-02
 0.4234000E+00  0.7216399E-02
 0.4245000E+00  0.6999505E-02
 0.4256000E+00  0.6771164E-02
 0.4267000E+00  0.6534671E-02
 0.4278000E+00  0.6292996E-02
 0.4289000E+00  0.6048792E-02
 0.4300000E+00  0.5804399E-02
 0.4311000E+00  0.5561859E-02
 0.4322000E+00  0.5322929E-02
 0.4333000E+00  0.5089096E-02
 0.4344000E+00  0.4861596E-02
 0.4355000E+00  0.4641430E-02
 0.4366000E+00  0.4429380E-02
 0.4377000E+00  0.4226032E-02
 0.4388000E+00  0.4031787E-02
 0.4399000E+00  0.3846880E-02
 0.4410000E+00  0.3671398E-02
 0.4421000E+00  0.3505291E-02
 0.4432000E+00  0.3348391E-02
 0.4443000E+00  0.3200429E-02
 0.4454000E+00  0.3061053E-02
 0.4465000E+00  0.2929847E-02
 0.4476000E+00  0.2806350E-02
 0.4487000E+00  0.2690076E-02
 0.4498000E+00  0.2580521E-02
 0.4509000E+00  0.2477180E-02
 0.4520000E+00  0.2379554E-02
 0.4531000E+00  0.2287158E-02
 0.4542000E+00  0.2199528E-02
 0.4553000E+00  0.2116228E-02
 0.4564000E+00  0.2036859E-02
 0.4575000E+00  0.1961059E-02
 0.4586000E+00  0.1888518E-02
 0.4597000E+00  0.1818970E-02
 0.4608000E+00  0.1752206E-02
 0.4619000E+00  0.1688064E-02
 0.4630000E+00  0.1626432E-02
 0.4641000E+00  0.1567242E-02
 0.4652000E+00  0.1510460E-02
 0.4663000E+00  0.1456084E-02
 0.4674000E+00  0.1404130E-02
 0.4685000E+00  0.1354631E-02
 0.4696000E+00  0.1307626E-02
 0.4707000E+00  0.1263157E-02
 0.4718000E+00  0.1221258E-02
 0.4729000E+00  0.1181949E-02
 0.4740000E+00  0.1145232E-02
 0.4751000E+00  0.1111084E-02
 0.4762000E+00  0.1079454E-02
 0.4773000E+00  0.1050264E-02
 0.4784000E+00  0.1023410E-02
 0.4795000E+00  0.9987643E-03
 0.4806000E+00  0.9761759E-03
 0.4817000E+00  0.9554753E-03
 0.4828000E+00  0.9364748E-03
 0.4839000E+00  0.9189721E-03
 0.4850000E+00  0.9027552E-03
 0.4861000E+00  0.8876094E-03
 0.4872000E+00  0.8733256E-03
 0.4883000E+00  0.8597082E-03
 0.4894000E+00  0.8465824E-03
 0.4905000E+00  0.8337989E-03
 0.4916000E+00  0.8212378E-03
 0.4927000E+00  0.8088108E-03
 0.4938000E+00  0.7964624E-03
 0.4949000E+00  0.7841695E-03
 0.4960000E+00  0.7719408E-03
 0.4971000E+00  0.7598120E-03
 0.4982000E+00  0.7478404E-03
 0.4993000E+00  0.7360970E-03
 0.5004000E+00  0.7246577E-03
 0.5015000E+00  0.7135941E-03
 0.5026000E+00  0.7029659E-03
 0.5037000E+00  0.6928140E-03
 0.5048000E+00  0.6831544E-03
 0.5059000E+00  0.6739738E-03
 0.5070000E+00  0.6652261E-03
 0.5081000E+00  0.6568305E-03
 0.5092000E+00  0.6486726E-03
 0.5103000E+00  0.6406076E-03
 0.5114000E+00  0.6324659E-03
 0.5125000E+00  0.6240607E-03
 0.5136000E+00  0.6151968E-03
 0.5147000E+00  0.6056807E-03
 0.5158000E+00  0.5953321E-03
 0.5169000E+00  0.5839970E-03
 0.5180000E+00  0.5715622E-03
 0.5191000E+00  0.5579710E-03
 0.5202000E+00  0.5432376E-03
 0.5213000E+00  0.5274596E-03
 0.5224000E+00  0.5108265E-03
 0.5235000E+00  0.4936246E-03
 0.5246000E+00  0.4762375E-03
 0.5257000E+00  0.4591433E-03
 0.5268000E+00  0.4429081E-03
 0.5279000E+00  0.4281769E-03
 0.5290000E+00  0.4156595E-03
 0.5301000E+00  0.4061146E-03
 0.5312000E+00  0.4003291E-03
 0.5323000E+00  0.3990969E-03
 0.5334000E+00  0.4031966E-03
 0.5345000E+00  0.4133708E-03
 0.5356000E+00  0.4303075E-03
 0.5367000E+00  0.4546238E-03
 0.5378000E+00  0.4868527E-03
 0.5389000E+00  0.5274333E-03
 0.5400000E+00  0.5767064E-03
 0.5411000E+00  0.6349169E-03
 0.5422000E+00  0.7022234E-03
 0.5433000E+00  0.7787182E-03
 0.5444000E+00  0.8644550E-03
 0.5455000E+00  0.9594849E-03
 0.5466000E+00  0.1063897E-02
 0.5477000E+00  0.1177866E-02
 0.5488000E+00  0.1301696E-02
 0.5499000E+00  0.1435879E-02
 0.5510000E+00  0.1581136E-02
 0.5521000E+00  0.1738480E-02
 0.5532000E+00  0.1909252E-02
 0.5543000E+00  0.2095171E-02
 0.5554000E+00  0.2298360E-02
 0.5565000E+00  0.2521370E-02
 0.5576000E+00  0.2767186E-02
 0.5587000E+00  0.3039219E-02
 0.5598000E+00  0.3341276E-02
 0.5609000E+00  0.3677516E-02
 0.5620000E+00  0.4052388E-02
 0.5631000E+00  0.4470543E-02
 0.5642000E+00  0.4936737E-02
 0.5653000E+00  0.5455713E-02
 0.5664000E+00  0.6032065E-02
 0.5675000E+00  0.6670099E-02
 0.5686000E+00  0.7373669E-02
 0.5697000E+00  0.8146022E-02
 0.5708000E+00  0.8989621E-02
 0.5719000E+00  0.9905982E-02
 0.5730000E+00  0.1089551E-01
 0.5741000E+00  0.1195734E-01
 0.5752000E+00  0.1308920E-01
 0.5763000E+00  0.1428733E-01
 0.5774000E+00  0.1554632E-01
 0.5785000E+00  0.1685910E-01
 0.5796000E+00  0.1821691E-01
 0.5807000E+00  0.1960924E-01
 0.5818000E+00  0.2102392E-01
 0.5829000E+00  0.2244713E-01
 0.5840000E+00  0.2386358E-01
 0.5851000E+00  0.2525659E-01
 0.5862000E+00  0.2660830E-01
 0.5873000E+00  0.2789990E-01
 0.5884000E+00  0.2911184E-01
 0.5895000E+00  0.3022414E-01
 0.5906000E+00  0.3121665E-01
 0.5917000E+00  0.3206941E-01
 0.5928000E+00  0.3276292E-01
 0.5939000E+00  0.3327853E-01
 0.5950000E+00  0.3359874E-01
 0.5961000E+00  0.3370754E-01
 0.5972000E+00  0.3359072E-01
 0.5983000E+00  0.3323616E-01
 0.5994000E+00  0.3263408E-01
 0.6005000E+00  0.3177731E-01
 0.6016000E+00  0.3066144E-01
 0.6027000E+00  0.2928502E-01
 0.6038000E+00  0.2764964E-01
 0.6049000E+00  0.2576000E-01
 0.6060000E+00  0.2362393E-01
 0.6071000E+00  0.2125237E-01
 0.6082000E+00  0.1865926E-01
 0.6093000E+00  0.1586142E-01
 0.6104000E+00  0.1287834E-01
 0.6115000E+00  0.9732011E-02
 0.6126000E+00  0.6446579E-02
 0.6137000E+00  0.3048100E-02
 0.6148000E+00 -0.4358168E-03
 0.6159000E+00 -0.3976359E-02
 0.6170000E+00 -0.7543883E-02
 0.6181000E+00 -0.1110830E-01
 0.6192000E+00 -0.1463947E-01
 0.6203000E+00 -0.1810758E-01
 0.6214000E+00 -0.2148355E-01
 0.6225000E+00 -0.2473935E-01
 0.6236000E+00 -0.2784839E-01
 0.6247000E+00 -0.3078581E-01
 0.6258000E+00 -0.3352880E-01
 0.6269000E+00 -0.3605679E-01
 0.6280000E+00 -0.3835176E-01
 0.6291000E+00 -0.4039830E-01
 0.6302000E+00 -0.4218386E-01
 0.6313000E+00 -0.4369875E-01
 0.6324000E+00 -0.4493623E-01
 0.6335000E+00 -0.4589250E-01
 0.6346000E+00 -0.4656667E-01
 0.6357000E+00 -0.4696064E-01
 0.6368000E+00 -0.4707908E-01
 0.6379000E+00 -0.4692920E-01
 0.6390000E+00 -0.4652059E-01
 0.6401000E+00 -0.4586509E-01
 0.6412000E+00 -0.4497646E-01
 0.6423000E+00 -0.4387023E-01
 0.6434000E+00 -0.4256337E-01
 0.6445000E+00 -0.4107411E-01
 0.6456000E+00 -0.3942160E-01
 0.6467000E+00 -0.3762569E-01
 0.6478000E+00 -0.3570668E-01
 0.6489000E+00 -0.3368504E-01
 0.6500000E+00 -0.3158123E-01
 0.6511000E+00 -0.2941541E-01
 0.6522000E+00 -0.2720730E-01
 0.6533000E+00 -0.2497593E-01
 0.6544000E+00 -0.2273950E-01
 0.6555000E+00 -0.2051520E-01
 0.6566000E+00 -0.1831913E-01
 0.6577000E+00 -0.1616612E-01
 0.6588000E+00 -0.1406972E-01
 0.6599000E+00 -0.1204210E-01
 0.6610000E+00 -0.1009402E-01
 0.6621000E+00 -0.8234827E-02
 0.6632000E+00 -0.6472425E-02
 0.6643000E+00 -0.4813313E-02
 0.6654000E+00 -0.3262602E-02
 0.6665000E+00 -0.1824060E-02
 0.6676000E+00 -0.5001727E-03
 0.6687000E+00  0.7077907E-03
 0.6698000E+00  0.1799695E-02
 0.6709000E+00  0.2776457E-02
 0.6720000E+00  0.3639953E-02
 0.6731000E+00  0.4392933E-02
 0.6742000E+00  0.5038920E-02
 0.6753000E+00  0.5582117E-02
 0.6764000E+00  0.6027305E-02
 0.6775000E+00  0.6379751E-02
 0.6786000E+00  0.6645105E-02
 0.6797000E+00  0.6829311E-02
 0.6808000E+00  0.6938522E-02
 0.6819000E+00  0.6979025E-02
 0.6830000E+00  0.6957162E-02
 0.6841000E+00  0.6879275E-02
 0.6852000E+00  0.6751647E-02
 0.6863000E+00  0.6580451E-02
 0.6874000E+00  0.6371703E-02
 0.6885000E+00  0.6131228E-02
 0.6896000E+00  0.5864616E-02
 0.6907000E+00  0.5577203E-02
 0.6918000E+00  0.5274048E-02
 0.6929000E+00  0.4959918E-02
 0.6940000E+00  0.4639285E-02
 0.6951000E+00  0.4316326E-02
 0.6962000E+00  0.3994922E-02
 0.6973000E+00  0.3678669E-02
 0.6984000E+00  0.3370876E-02
 0.6995000E+00  0.3074581E-02
 0.7006000E+00  0.2792549E-02
 0.7017000E+00  0.2527287E-02
 0.7028000E+00  0.2281053E-02
 0.7039000E+00  0.2055867E-02
 0.7050000E+00  0.1853517E-02
 0.7061000E+00  0.1675573E-02
 0.7072000E+00  0.1523385E-02
 0.7083000E+00  0.1398086E-02
 0.7094000E+00  0.1300586E-02
 0.7105000E+00  0.1231570E-02
 0.7116000E+00  0.1191492E-02
 0.7127000E+00  0.1180572E-02
 0.7138000E+00  0.1198789E-02
 0.7149000E+00  0.1245881E-02
 0.7160000E+00  0.1321338E-02
 0.7171000E+00  0.1424396E-02
 0.7182000E+00  0.1554033E-02
 0.7193000E+00  0.1708967E-02
 0.7204000E+00  0.1887655E-02
 0.7215000E+00  0.2088298E-02
 0.7226000E+00  0.2308846E-02
 0.7237000E+00  0.2547015E-02
 0.7248000E+00  0.2800301E-02
 0.7259000E+00  0.3066000E-02
 0.7270000E+00  0.3341229E-02
 0.7281000E+00  0.3622954E-02
 0.7292000E+00  0.3908020E-02
 0.7303000E+00  0.4193195E-02
 0.7314000E+00  0.4475202E-02
 0.7325000E+00  0.4750777E-02
 0.7336000E+00  0.5016706E-02
 0.7347000E+00  0.5269876E-02
 0.7358000E+00  0.5507318E-02
 0.7369000E+00  0.5726245E-02
 0.7380000E+00  0.5924087E-02
 0.7391000E+00  0.6098528E-02
 0.7402000E+00  0.6247532E-02
 0.7413000E+00  0.6369375E-02
 0.7424000E+00  0.6462669E-02
 0.7435000E+00  0.6526383E-02
 0.7446000E+00  0.6559853E-02
 0.7457000E+00  0.6562790E-02
 0.7468000E+00  0.6535278E-02
 0.7479000E+00  0.6477757E-02
 0.7490000E+00  0.6391013E-02
 0.7501000E+00  0.6276153E-02
 0.7512000E+00  0.6134577E-02
 0.7523000E+00  0.5967953E-02
 0.7534000E+00  0.5778186E-02
 0.7545000E+00  0.5567378E-02
 0.7556000E+00  0.5337799E-02
 0.7567000E+00  0.5091836E-02
 0.7578000E+00  0.4831961E-02
 0.7589000E+00  0.4560682E-02
 0.7600000E+00  0.4280511E-02
 0.7611000E+00  0.3993921E-02
 0.7622000E+00  0.3703327E-02
 0.7633000E+00  0.3411051E-02
 0.7644000E+00  0.3119308E-02
 0.7655000E+00  0.2830187E-02
 0.7666000E+00  0.2545632E-02
 0.7677000E+00  0.2267432E-02
 0.7688000E+00  0.1997207E-02
 0.7699000E+00  0.1736401E-02
 0.7710000E+00  0.1486276E-02
 0.7721000E+00  0.1247919E-02
 0.7732000E+00  0.1022240E-02
 0.7743000E+00  0.8099813E-03
 0.7754000E+00  0.6117281E-03
 0.7765000E+00  0.4279125E-03
 0.7776000E+00  0.2588229E-03
 0.7787000E+00  0.1046115E-03
 0.7798000E+00 -0.3469628E-04
 0.7809000E+00 -0.1591922E-03
 0.7820000E+00 -0.2690744E-03
 0.7831000E+00 -0.3646386E-03
 0.7842000E+00 -0.4462703E-03
 0.7853000E+00 -0.5144409E-03
 0.7864000E+00 -0.5697051E-03
 0.7875000E+00 -0.6126990E-03
 0.7886000E+00 -0.6441364E-03
 0.7897000E+00 -0.6648024E-03
 0.7908000E+00 -0.6755445E-03
 0.7919000E+00 -0.6772611E-03
 0.7930000E+00 -0.6708906E-03
 0.7941000E+00 -0.6574009E-03
 0.7952000E+00 -0.6377809E-03
 0.7963000E+00 -0.6130330E-03
 0.7974000E+00 -0.5841650E-03
 0.7985000E+00 -0.5521818E-03
 0.7996000E+00 -0.5180737E-03
 0.8007000E+00 -0.4828030E-03
 0.8018000E+00 -0.4472898E-03
 0.8029000E+00 -0.4123965E-03
 0.8040000E+00 -0.3789155E-03
 0.8051000E+00 -0.3475572E-03
 0.8062000E+00 -0.3189418E-03
 0.8073000E+00 -0.2935931E-03
 0.8084000E+00 -0.2719346E-03
 0.8095000E+00 -0.2542869E-03
 0.8106000E+00 -0.2408668E-03
 0.8117000E+00 -0.2317876E-03
 0.8128000E+00 -0.2270613E-03
 0.8139000E+00 -0.2266033E-03
 0.8150000E+00 -0.2302404E-03
 0.8161000E+00 -0.2377223E-03
 0.8172000E+00 -0.2487361E-03
 0.8183000E+00 -0.2629227E-03
 0.8194000E+00 -0.2798933E-03
 0.8205000E+00 -0.2992456E-03
 0.8216000E+00 -0.3205773E-03
 0.8227000E+00 -0.3434984E-03
 0.8238000E+00 -0.3676428E-03
 0.8249000E+00 -0.3926790E-03
 0.8260000E+00 -0.4183215E-03
 0.8271000E+00 -0.4443403E-03
 0.8282000E+00 -0.4705683E-03
 0.8293000E+00 -0.4969054E-03
 0.8304000E+00 -0.5233169E-03
 0.8315000E+00 -0.5498279E-03
 0.8326000E+00 -0.5765149E-03
 0.8337000E+00 -0.6034956E-03
 0.8348000E+00 -0.6309191E-03
 0.8359000E+00 -0.6589564E-03
 0.8370000E+00 -0.6877893E-03
 0.8381000E+00 -0.7175984E-03
 0.8392000E+00 -0.7485467E-03
 0.8403000E+00 -0.7807629E-03
 0.8414000E+00 -0.8143228E-03
 0.8425000E+00 -0.8492335E-03
 0.8436000E+00 -0.8854207E-03
 0.8447000E+00 -0.9227217E-03
 0.8458000E+00 -0.9608831E-03
 0.8469000E+00 -0.9995619E-03
 0.8480000E+00 -0.1038329E-02
 0.8491000E+00 -0.1076675E-02
 0.8502000E+00 -0.1114016E-02
 0.8513000E+00 -0.1149701E-02
 0.8524000E+00 -0.1183026E-02
 0.8535000E+00 -0.1213244E-02
 0.8546000E+00 -0.1239583E-02
 0.8557000E+00 -0.1261268E-02
 0.8568000E+00 -0.1277537E-02
 0.8579000E+00 -0.1287668E-02
 0.8590000E+00 -0.1290997E-02
 0.8601000E+00 -0.1286942E-02
 0.8612000E+00 -0.1275016E-02
 0.8623000E+00 -0.1254848E-02
 0.8634000E+00 -0.1226190E-02
 0.8645000E+00 -0.1188928E-02
 0.8656000E+00 -0.1143087E-02
 0.8667000E+00 -0.1088840E-02
 0.8678000E+00 -0.1026505E-02
 0.8689000E+00 -0.9565414E-03
 0.8700000E+00 -0.8795500E-03
 0.8711000E+00 -0.7962555E-03
 0.8722000E+00 -0.7074936E-03
 0.8733000E+00 -0.6141932E-03
 0.8744000E+00 -0.5173571E-03
 0.8755000E+00 -0.4180431E-03
 0.8766000E+00 -0.3173449E-03
 0.8777000E+00 -0.2163717E-03
 0.8788000E+00 -0.1162271E-03
 0.8799000E+00 -0.1798633E-04
 0.8810000E+00  0.7732681E-04
 0.8821000E+00  0.1687603E-03
 0.8832000E+00  0.2554511E-03
 0.8843000E+00  0.3366368E-03
 0.8854000E+00  0.4116639E-03
 0.8865000E+00  0.4799924E-03
 0.8876000E+00  0.5412002E-03
 0.8887000E+00  0.5949868E-03
 0.8898000E+00  0.6411766E-03
 0.8909000E+00  0.6797204E-03
 0.8920000E+00  0.7106928E-03
 0.8931000E+00  0.7342851E-03
 0.8942000E+00  0.7507936E-03
 0.8953000E+00  0.7606045E-03
 0.8964000E+00  0.7641781E-03
 0.8975000E+00  0.7620320E-03
 0.8986000E+00  0.7547265E-03
 0.8997000E+00  0.7428509E-03
 0.9008000E+00  0.7270114E-03
 0.9019000E+00  0.7078193E-03
 0.9030000E+00  0.6858807E-03
 0.9041000E+00  0.6617858E-03
 0.9052000E+00  0.6360991E-03
 0.9063000E+00  0.6093496E-03
 0.9074000E+00  0.5820222E-03
 0.9085000E+00  0.5545503E-03
 0.9096000E+00  0.5273112E-03
 0.9107000E+00  0.5006241E-03
 0.9118000E+00  0.4747509E-03
 0.9129000E+00  0.4498986E-03
 0.9140000E+00  0.4262220E-03
 0.9151000E+00  0.4038261E-03
 0.9162000E+00  0.3827678E-03
 0.9173000E+00  0.3630576E-03
 0.9184000E+00  0.3446636E-03
 0.9195000E+00  0.3275182E-03
 0.9206000E+00  0.3115274E-03
 0.9217000E+00  0.2965801E-03
 0.9228000E+00  0.2825568E-03
 0.9239000E+00  0.2693356E-03
 0.9250000E+00  0.2567941E-03
 0.9261000E+00  0.2448111E-03
 0.9272000E+00  0.2332683E-03
 0.9283000E+00  0.2220546E-03
 0.9294000E+00  0.2110719E-03
 0.9305000E+00  0.2002428E-03
 0.9316000E+00  0.1895155E-03
 0.9327000E+00  0.1788671E-03
 0.9338000E+00  0.1683029E-03
 0.9349000E+00  0.1578541E-03
 0.9360000E+00  0.1475755E-03
 0.9371000E+00  0.1375448E-03
 0.9382000E+00  0.1278627E-03
 0.9393000E+00  0.1186539E-03
 0.9404000E+00  0.1100667E-03
 0.9415000E+00  0.1022706E-03
 0.9426000E+00  0.9545306E-04
 0.9437000E+00  0.8981430E-04
 0.9448000E+00  0.8556377E-04
 0.9459000E+00  0.8291642E-04
 0.9470000E+00  0.8208970E-04
 0.9481000E+00  0.8330008E-04
 0.9492000E+00  0.8675893E-04
 0.9503000E+00  0.9266775E-04
 0.9514000E+00  0.1012137E-03
 0.9525000E+00  0.1125658E-03
 0.9536000E+00  0.1268726E-03
 0.9547000E+00  0.1442595E-03
 0.9558000E+00  0.1648262E-03
 0.9569000E+00  0.1886438E-03
 0.9580000E+00  0.2157513E-03
 0.9591000E+00  0.2461529E-03
 0.9602000E+00  0.2798177E-03
 0.9613000E+00  0.3166803E-03
 0.9624000E+00  0.3566426E-03
 0.9635000E+00  0.3995756E-03
 0.9646000E+00  0.4453184E-03
 0.9657000E+00  0.4936777E-03
 0.9668000E+00  0.5444263E-03
 0.9679000E+00  0.5973042E-03
 0.9690000E+00  0.6520218E-03
 0.9701000E+00  0.7082649E-03
 0.9712000E+00  0.7656999E-03
 0.9723000E+00  0.8239772E-03
 0.9734000E+00  0.8827317E-03
 0.9745000E+00  0.9415825E-03
 0.9756000E+00  0.1000132E-02
 0.9767000E+00  0.1057967E-02
 0.9778000E+00  0.1114666E-02
 0.9789000E+00  0.1169799E-02