 -0.12000000000000000          0.0000000000000000     
 -0.11889999999999999          0.0000000000000000     
 -0.11780000000000000          0.0000000000000000     
 -0.11670000000000000          0.0000000000000000     
 -0.11559999999999999          0.0000000000000000     
 -0.11449999999999999          0.0000000000000000     
 -0.11340000000000000          0.0000000000000000     
 -0.11230000000000000          0.0000000000000000     
 -0.11119999999999999          0.0000000000000000     
 -0.11009999999999999          0.0000000000000000     
 -0.10900000000000000          0.0000000000000000     
 -0.10790000000000000          0.0000000000000000     
 -0.10679999999999999          0.0000000000000000     
 -0.10569999999999999         -1.3692270504237807E-044
 -0.10460000000000000         -2.1623947628270810E-043
 -0.10349999999999999          1.2552144280597644E-038
 -0.10239999999999999          1.2408956518416967E-037
 -0.10130000000000000          6.3382238413812366E-037
 -0.10020000000000000          2.7009855265796908E-036
  -9.9099999999999994E-002     9.6468257183687213E-036
  -9.7999999999999990E-002     2.8627031872544652E-035
  -9.6899999999999986E-002     7.0972310841557831E-035
  -9.5799999999999996E-002     1.4733534927959222E-034
  -9.4699999999999993E-002     2.5059696842206735E-034
  -9.3599999999999989E-002     3.1310982390889817E-034
  -9.2499999999999999E-002     1.2334789025733158E-034
  -9.1399999999999995E-002    -7.5243617872977230E-034
  -9.0299999999999991E-002    -2.7630102339247923E-033
  -8.9200000000000002E-002    -5.2492562740501739E-033
  -8.8099999999999984E-002    -4.1192650814457789E-033
  -8.6999999999999994E-002     9.1685264223937013E-033
  -8.5899999999999990E-002     3.9102234002448546E-032
  -8.4799999999999986E-002     5.8215385106553286E-032
  -8.3699999999999997E-002    -2.9055562152071704E-032
  -8.2599999999999993E-002    -3.6025227660769610E-031
  -8.1499999999999989E-002    -8.9574202439232395E-031
  -8.0399999999999999E-002    -9.6138177987723489E-031
  -7.9299999999999995E-002     1.0586202221858244E-030
  -7.8199999999999992E-002     6.7676857064651154E-030
  -7.7100000000000002E-002     1.4250826020806469E-029
  -7.5999999999999984E-002     1.2778987192458697E-029
  -7.4899999999999994E-002    -1.8121552869898262E-029
  -7.3799999999999991E-002    -9.3225105418690485E-029
  -7.2699999999999987E-002    -1.8129177578281897E-028
  -7.1599999999999997E-002    -1.5741422460364799E-028
  -7.0499999999999993E-002     1.8580916313802660E-028
  -6.9399999999999989E-002     9.6849323052678659E-028
  -6.8300000000000000E-002     1.8591007292696723E-027
  -6.7199999999999996E-002     1.7161246508144943E-027
  -6.6099999999999992E-002    -1.2137987477487441E-027
  -6.5000000000000002E-002    -7.8562825100887638E-027
  -6.3899999999999985E-002    -1.5571164691378251E-026
  -6.2799999999999995E-002    -1.5778755667340588E-026
  -6.1699999999999991E-002     4.2548712930721204E-027
  -6.0599999999999994E-002     5.1382177176924631E-026
  -5.9499999999999990E-002     1.0881390770422168E-025
  -5.8399999999999994E-002     1.2175278870136702E-025
  -5.7299999999999990E-002     9.0536399561373255E-027
  -5.6199999999999986E-002    -2.7700907739229329E-025
  -5.5099999999999996E-002    -6.4868986633455121E-025
  -5.3999999999999992E-002    -8.0163157652982521E-025
  -5.2899999999999989E-002    -2.7477211778284608E-025
  -5.1799999999999985E-002     1.2380008760964754E-024
  -5.0699999999999995E-002     3.3589787566209860E-024
  -4.9599999999999991E-002     4.5950309400402496E-024
  -4.8499999999999988E-002     2.5819140829772869E-024
  -4.7399999999999998E-002    -4.4709391428511173E-024
  -4.6299999999999994E-002    -1.5278554562118463E-023
  -4.5199999999999990E-002    -2.3315922514952071E-023
  -4.4099999999999986E-002    -1.7551786125559636E-023
  -4.2999999999999997E-002     1.1551170608652082E-023
  -4.1899999999999993E-002     6.1155702426729845E-023
  -4.0799999999999989E-002     1.0584721128601037E-022
  -3.9699999999999985E-002     9.8597967217035571E-023
  -3.8599999999999995E-002    -6.9128089661460516E-024
  -3.7499999999999992E-002    -2.1267692832603499E-022
  -3.6399999999999988E-002    -4.3136953586249594E-022
  -3.5299999999999984E-002    -4.7986480871174935E-022
  -3.4199999999999994E-002    -1.5284598596300837E-022
  -3.3099999999999991E-002     6.1619857902522393E-022
  -3.1999999999999987E-002     1.5704267321128054E-021
  -3.0899999999999997E-002     2.0619858685966350E-021
  -2.9799999999999993E-002     1.2612180800404485E-021
  -2.8699999999999989E-002    -1.2994769770537747E-021
  -2.7599999999999986E-002    -5.0254570812135919E-021
  -2.6499999999999996E-002    -7.8594986947068104E-021
  -2.5399999999999992E-002    -6.7566684856790574E-021
  -2.4299999999999988E-002     6.5291695165514109E-022
  -2.3199999999999985E-002     1.3623516127116843E-020
  -2.2099999999999995E-002     2.6428381556496974E-020
  -2.0999999999999991E-002     2.8989631889351035E-020
  -1.9899999999999987E-002     1.1385674191747708E-020
  -1.8799999999999983E-002    -2.8398127493525313E-020
  -1.7699999999999994E-002    -7.7080236564093337E-020
  -1.6599999999999990E-002    -1.0494872174761378E-019
  -1.5499999999999986E-002    -7.6256657622443851E-020
  -1.4399999999999996E-002     2.8611191737340077E-020
  -1.3299999999999992E-002     1.8756379591486665E-019
  -1.2199999999999989E-002     3.2428960521838950E-019
  -1.1099999999999985E-002     3.2655540183254308E-019
  -9.9999999999999950E-003     1.0224609136996737E-019
  -8.8999999999999913E-003    -3.4260361104218121E-019
  -7.7999999999999875E-003    -8.4504693139619514E-019
  -6.6999999999999837E-003    -1.0988793948582154E-018
  -5.5999999999999939E-003    -7.7552508847322588E-019
  -4.4999999999999901E-003     2.6648393910162157E-019
  -3.3999999999999864E-003     1.7738465979489218E-018
  -2.2999999999999826E-003     3.0340993911978023E-018
  -1.1999999999999927E-003     3.0797095135424559E-018
  -9.9999999999988987E-005     1.1762835772011684E-018
   1.0000000000000148E-003    -2.5693705733460430E-018
   2.1000000000000185E-003    -6.8132938822351297E-018
   3.2000000000000084E-003    -9.1606477631145689E-018
   4.3000000000000121E-003    -7.1209092636830783E-018
   5.4000000000000159E-003     3.7900986900551653E-019
   6.5000000000000058E-003     1.1596691509470139E-017
   7.6000000000000234E-003     2.1625385921760257E-017
   8.7000000000000133E-003     2.3826070270253767E-017
   9.8000000000000032E-003     1.3014281660457056E-017
   1.0900000000000021E-002    -1.0720311414836034E-017
   1.2000000000000011E-002    -3.9589663359284902E-017
   1.3100000000000001E-002    -5.9176705864966615E-017
   1.4200000000000018E-002    -5.3920309859514217E-017
   1.5300000000000008E-002    -1.5692370864291249E-017
   1.6400000000000026E-002     4.8264394859312091E-017
   1.7500000000000016E-002     1.1295869462415388E-016
   1.8600000000000005E-002     1.4251515662374167E-016
   1.9700000000000023E-002     1.0605836541182251E-016
   2.0800000000000013E-002    -2.9222380233763719E-018
   2.1900000000000003E-002    -1.5341594698709193E-016
   2.3000000000000020E-002    -2.7975904804738990E-016
   2.4100000000000010E-002    -3.0487608662335677E-016
   2.5200000000000000E-002    -1.7830461678368577E-016
   2.6300000000000018E-002     8.6888976800104367E-017
   2.7400000000000008E-002     3.9911212093521906E-016
   2.8500000000000025E-002     6.1086758945402271E-016
   2.9600000000000015E-002     5.7909910815454959E-016
   3.0700000000000005E-002     2.4261508412373812E-016
   3.1800000000000023E-002    -3.1999240322899544E-016
   3.2900000000000013E-002    -8.8922346350535239E-016
   3.4000000000000002E-002    -1.1780336383737649E-015
   3.5100000000000020E-002    -9.6221472409330285E-016
   3.6200000000000010E-002    -2.1441804148291848E-016
   3.7300000000000028E-002     8.2861116129105159E-016
   3.8400000000000017E-002     1.7195153550189142E-015
   3.9500000000000007E-002     1.9781102107095615E-015
   4.0600000000000025E-002     1.3312459983109609E-015
   4.1700000000000015E-002    -9.6914219031578044E-017
   4.2800000000000005E-002    -1.7575160039455968E-015
   4.3900000000000022E-002    -2.8665167756996349E-015
   4.5000000000000012E-002    -2.7615546368127906E-015
   4.6100000000000002E-002    -1.2745522397718892E-015
   4.7200000000000020E-002     1.0761728955949705E-015
   4.8300000000000010E-002     3.2189545112090997E-015
   4.9400000000000027E-002     3.9888616090963137E-015
   5.0500000000000017E-002     2.7388944568898344E-015
   5.1600000000000007E-002    -1.9724009937943883E-016
   5.2700000000000025E-002    -3.4787781380304080E-015
   5.3800000000000014E-002    -5.2835667471055279E-015
   5.4900000000000004E-002    -4.2243952558855656E-015
   5.6000000000000022E-002    -2.4075520906656502E-016
   5.7100000000000012E-002     5.0350987734417153E-015
   5.8200000000000002E-002     8.7700142844151731E-015
   5.9300000000000019E-002     8.2204233155570421E-015
   6.0400000000000009E-002     2.3097170113234188E-015
   6.1500000000000027E-002    -7.3006320337996757E-015
   6.2600000000000017E-002    -1.6357239066057484E-014
   6.3700000000000007E-002    -1.9604768447563592E-014
   6.4800000000000024E-002    -1.3328016320306692E-014
   6.5900000000000014E-002     2.2653935233465141E-015
   6.7000000000000004E-002     2.2104222836823164E-014
   6.8100000000000022E-002     3.7573094393469055E-014
   6.9200000000000012E-002     3.9923313727420220E-014
   7.0300000000000029E-002     2.4505358456474392E-014
   7.1400000000000019E-002    -6.1106190893085059E-015
   7.2500000000000009E-002    -4.1864057019636615E-014
   7.3600000000000027E-002    -6.8411691570119710E-014
   7.4700000000000016E-002    -7.2835541034936273E-014
   7.5800000000000006E-002    -4.9510912784062468E-014
   7.6900000000000024E-002    -3.4103633846734193E-015
   7.8000000000000014E-002     5.0951576354664890E-014
   7.9100000000000004E-002     9.4793519649593479E-014
   8.0200000000000021E-002     1.1236384925959382E-013
   8.1300000000000011E-002     9.6944293746497981E-014
   8.2400000000000029E-002     5.2769441895046927E-014
   8.3500000000000019E-002    -7.8771126575769595E-015
   8.4600000000000009E-002    -7.0535866096323812E-014
   8.5700000000000026E-002    -1.2385995449023246E-013
   8.6800000000000016E-002    -1.6109425048653619E-013
   8.7900000000000006E-002    -1.7698702257967401E-013
   8.9000000000000024E-002    -1.6280030757792048E-013
   9.0100000000000013E-002    -1.0442628668782558E-013
   9.1200000000000003E-002     1.1985389729492267E-014
   9.2300000000000021E-002     1.8653612305579993E-013
   9.3400000000000011E-002     3.8985503807528567E-013
   9.4500000000000028E-002     5.5550272298505948E-013
   9.5600000000000018E-002     5.9086905918350814E-013
   9.6700000000000008E-002     4.1044733840939326E-013
   9.7800000000000026E-002    -1.6183468949862084E-014
   9.8900000000000016E-002    -6.2116517252097455E-013
  0.10000000000000001         -1.2250661293361833E-012
  0.10110000000000002         -1.5728185231972004E-012
  0.10220000000000001         -1.4203307240586994E-012
  0.10330000000000003         -6.4854682124541173E-013
  0.10440000000000002          6.3939951238454207E-013
  0.10550000000000001          2.0884336040386858E-012
  0.10660000000000003          3.1637071142345162E-012
  0.10770000000000002          3.3226751668755740E-012
  0.10880000000000001          2.2397228470620315E-012
  0.10990000000000003          3.7561582865226855E-016
  0.11100000000000002         -2.8254207611876367E-012
  0.11210000000000001         -5.2912856941404764E-012
  0.11320000000000002         -6.3611676960799280E-012
  0.11430000000000001         -5.2973596208599454E-012
  0.11540000000000003         -2.0144975152070525E-012
  0.11650000000000002          2.7486420662542067E-012
  0.11760000000000001          7.5425742505581420E-012
  0.11870000000000003          1.0614242001100408E-011
  0.11980000000000002          1.0502810418484279E-011
  0.12090000000000001          6.6291591893070232E-012
  0.12200000000000003         -3.4326994432824103E-013
  0.12310000000000001         -8.5442052076206127E-012
  0.12420000000000003         -1.5371323514518538E-011
  0.12530000000000002         -1.8289578418344088E-011
  0.12640000000000001         -1.5708301620103509E-011
  0.12750000000000003         -7.6341789795461135E-012
  0.12860000000000002          4.1514302500820395E-012
  0.12970000000000001          1.6495397880046805E-011
  0.13080000000000003          2.5762996123945985E-011
  0.13190000000000002          2.8943145415277676E-011
  0.13300000000000001          2.4603406564590175E-011
  0.13410000000000000          1.3363534346193269E-011
  0.13520000000000004         -2.2854221734420576E-012
  0.13630000000000003         -1.8757341865856759E-011
  0.13740000000000002         -3.2460364886303580E-011
  0.13850000000000001         -4.0790246141988010E-011
  0.13960000000000000         -4.2647078242427518E-011
  0.14070000000000005         -3.8283149517190960E-011
  0.14180000000000004         -2.8579109386763265E-011
  0.14290000000000003         -1.4127758310915415E-011
  0.14400000000000002          5.3434909380954218E-012
  0.14510000000000001          3.0749417584697498E-011
  0.14620000000000000          6.2466544769984008E-011
  0.14730000000000004          9.8499281288629554E-011
  0.14840000000000003          1.3274697503858965E-010
  0.14950000000000002          1.5436672926417421E-010
  0.15060000000000001          1.4909646832285145E-010
  0.15170000000000000          1.0285731806724274E-010
  0.15280000000000005          7.1064551626221485E-012
  0.15390000000000004         -1.3547105675285149E-010
  0.15500000000000003         -3.0691979276654020E-010
  0.15610000000000002         -4.7358007715090860E-010
  0.15720000000000001         -5.9046079205835112E-010
  0.15830000000000000         -6.1025939858194053E-010
  0.15940000000000004         -4.9530359608853507E-010
  0.16050000000000003         -2.2945541285821526E-010
  0.16160000000000002          1.7338300899406260E-010
  0.16270000000000001          6.6684129577137386E-010
  0.16380000000000000          1.1767772730510474E-009
  0.16490000000000005          1.6120835472300943E-009
  0.16600000000000004          1.8788470322840771E-009
  0.16710000000000003          1.8943877268458844E-009
  0.16820000000000002          1.5983382486950973E-009
  0.16930000000000001          9.5972060765729412E-010
  0.17040000000000000         -1.8838090378712526E-011
  0.17150000000000004         -1.2970594604947042E-009
  0.17260000000000003         -2.7904570651029116E-009
  0.17370000000000002         -4.3604967916387064E-009
  0.17480000000000001         -5.8040392269918045E-009
  0.17590000000000000         -6.8481346558239308E-009
  0.17700000000000005         -7.1583206408862125E-009
  0.17810000000000004         -6.3678129464117636E-009
  0.17920000000000003         -4.1310086680691312E-009
  0.18030000000000002         -1.9822174647445439E-010
  0.18140000000000001          5.4984245990322884E-009
  0.18250000000000000          1.2763014007004343E-008
  0.18360000000000004          2.1073660176694916E-008
  0.18470000000000003          2.9551727065013168E-008
  0.18580000000000002          3.6965486420309001E-008
  0.18690000000000001          4.1760903565518885E-008
  0.18800000000000000          4.2103617200383535E-008
  0.18910000000000005          3.5912180744501914E-008
  0.19020000000000004          2.0864702107056246E-008
  0.19130000000000003         -5.6313500402603114E-009
  0.19240000000000002         -4.6506534768759980E-008
  0.19350000000000001         -1.0512628079222221E-007
  0.19460000000000005         -1.8540664850956007E-007
  0.19570000000000004         -2.9194372382508909E-007
  0.19680000000000003         -4.3016131680158115E-007
  0.19790000000000002         -6.0649669216154073E-007
  0.19900000000000001         -8.2865265361405938E-007
  0.20010000000000000         -1.1059489086062569E-006
  0.20120000000000005         -1.4497973643502873E-006
  0.20230000000000004         -1.8743117619468001E-006
  0.20340000000000003         -2.3970401601070337E-006
  0.20450000000000002         -3.0397974422816545E-006
  0.20560000000000000         -3.8295668399549689E-006
  0.20670000000000005         -4.7994463387694933E-006
  0.20780000000000004         -5.9896421656004394E-006
  0.20890000000000003         -7.4485294060749379E-006
  0.21000000000000002         -9.2338353188038165E-006
  0.21110000000000001         -1.1414002084581195E-005
  0.21220000000000000         -1.4069798359895158E-005
  0.21330000000000005         -1.7296213537527174E-005
  0.21440000000000003         -2.1204661755459033E-005
  0.21550000000000002         -2.5925476439401664E-005
  0.21660000000000001         -3.1610695845238313E-005
  0.21770000000000000         -3.8437067659385071E-005
  0.21880000000000005         -4.6609298479622936E-005
  0.21990000000000004         -5.6363543893783915E-005
  0.22100000000000003         -6.7971160526473140E-005
  0.22210000000000002         -8.1742773738705327E-005
  0.22320000000000001         -9.8032670887017746E-005
  0.22430000000000000         -1.1724346495498147E-004
  0.22540000000000004         -1.3983107595204569E-004
  0.22650000000000003         -1.6630975849583191E-004
  0.22760000000000002         -1.9725716285155697E-004
  0.22870000000000001         -2.3331923824085939E-004
  0.22980000000000000         -2.7521484316906243E-004
  0.23090000000000005         -3.2373982618503740E-004
  0.23200000000000004         -3.7977078567495796E-004
  0.23310000000000003         -4.4426800767703880E-004
  0.23420000000000002         -5.1827795286732534E-004
  0.23530000000000001         -6.0293477899509603E-004
  0.23640000000000000         -6.9946071289325729E-004
  0.23750000000000004         -8.0916504651586021E-004
  0.23860000000000003         -9.3344138916034319E-004
  0.23970000000000002         -1.0737629872841668E-003
  0.24080000000000001         -1.2316759463999669E-003
  0.24190000000000000         -1.4087889999654408E-003
  0.24300000000000005         -1.6067616265827175E-003
  0.24410000000000004         -1.8272875584993522E-003
  0.24520000000000003         -2.0720774289335400E-003
  0.24630000000000002         -2.3428366651121225E-003
  0.24740000000000001         -2.6412408642135414E-003
  0.24850000000000005         -2.9689061808729203E-003
  0.24960000000000004         -3.3273581667815719E-003
  0.25070000000000003         -3.7179947051136980E-003
  0.25180000000000002         -4.1420476276620068E-003
  0.25290000000000001         -4.6005391450822065E-003
  0.25400000000000000         -5.0942377276954800E-003
  0.25510000000000005         -5.6236085298882778E-003
  0.25620000000000004         -6.1887664988369059E-003
  0.25730000000000003         -6.7894264061646517E-003
  0.25840000000000002         -7.4248550441555206E-003
  0.25950000000000001         -8.0938218189245837E-003
  0.26060000000000005         -8.7945525357922133E-003
  0.26170000000000004         -9.5246854563364857E-003
  0.26280000000000003         -1.0281235949625687E-002
  0.26390000000000002         -1.1060557835201745E-002
  0.26500000000000001         -1.1858319716161041E-002
  0.26610000000000000         -1.2669483784837282E-002
  0.26720000000000005         -1.3488299989659083E-002
  0.26830000000000004         -1.4308302623966603E-002
  0.26940000000000003         -1.5122331082605758E-002
  0.27050000000000002         -1.5922552674024135E-002
  0.27160000000000001         -1.6700504264297433E-002
  0.27270000000000005         -1.7447153677047772E-002
  0.27380000000000004         -1.8152959902013373E-002
  0.27490000000000003         -1.8807964533486498E-002
  0.27600000000000002         -1.9401892499771693E-002
  0.27710000000000001         -1.9924258956414025E-002
  0.27820000000000000         -2.0364499609890153E-002
  0.27930000000000005         -2.0712106088047869E-002
  0.28040000000000004         -2.0956782208151913E-002
  0.28150000000000003         -2.1088589507787997E-002
  0.28260000000000002         -2.1098126987481411E-002
  0.28370000000000001         -2.0976691008463753E-002
  0.28480000000000005         -2.0716446212239639E-002
  0.28590000000000004         -2.0310582200808731E-002
  0.28700000000000003         -1.9753481107072049E-002
  0.28810000000000002         -1.9040860724470345E-002
  0.28920000000000001         -1.8169913055230046E-002
  0.29030000000000000         -1.7139427661174513E-002
  0.29140000000000005         -1.5949896222495812E-002
  0.29250000000000004         -1.4603592071649667E-002
  0.29360000000000003         -1.3104635790010437E-002
  0.29470000000000002         -1.1459018676357322E-002
  0.29580000000000001         -9.6746091395163835E-003
  0.29690000000000005         -7.7611192908914224E-003
  0.29800000000000004         -5.7300521509359549E-003
  0.29910000000000003         -3.5946125235094151E-003
  0.30020000000000002         -1.3695887671799655E-003
  0.30130000000000001          9.2879538465606877E-004
  0.30240000000000000          3.2830560007410395E-003
  0.30350000000000005          5.6746463650248049E-003
  0.30460000000000004          8.0841799675293140E-003
  0.30570000000000003          1.0491668522451867E-002
  0.30680000000000002          1.2876774244317400E-002
  0.30790000000000001          1.5219074878695157E-002
  0.30900000000000005          1.7498331298225568E-002
  0.31010000000000004          1.9694761803741169E-002
  0.31120000000000003          2.1789299678795400E-002
  0.31230000000000002          2.3763857628044005E-002
  0.31340000000000001          2.5601557761648339E-002
  0.31450000000000006          2.7286969039620482E-002
  0.31560000000000005          2.8806306610849888E-002
  0.31670000000000004          3.0147602858158762E-002
  0.31780000000000003          3.1300860752132523E-002
  0.31890000000000002          3.2258159755320023E-002
  0.32000000000000001          3.3013756024070744E-002
  0.32110000000000005          3.3564116787359460E-002
  0.32220000000000004          3.3907937372306754E-002
  0.32330000000000003          3.4046124016939031E-002
  0.32440000000000002          3.3981748403834638E-002
  0.32550000000000001          3.3719942292540162E-002
  0.32660000000000006          3.3267790589747076E-002
  0.32770000000000005          3.2634207113752520E-002
  0.32880000000000004          3.1829740898089903E-002
  0.32990000000000003          3.0866412095691104E-002
  0.33100000000000002          2.9757507151397751E-002
  0.33210000000000001          2.8517357818962086E-002
  0.33320000000000005          2.7161122784822460E-002
  0.33430000000000004          2.5704560580526233E-002
  0.33540000000000003          2.4163806841659419E-002
  0.33650000000000002          2.2555154588433969E-002
  0.33760000000000001          2.0894846476185495E-002
  0.33870000000000006          1.9198851375739786E-002
  0.33980000000000005          1.7482691830470666E-002
  0.34090000000000004          1.5761260339480252E-002
  0.34200000000000003          1.4048671782150180E-002
  0.34310000000000002          1.2358135867626859E-002
  0.34420000000000001          1.0701846296021632E-002
  0.34530000000000005          9.0908908804298149E-003
  0.34640000000000004          7.5351826916431955E-003
  0.34750000000000003          6.0434112240352333E-003
  0.34860000000000002          4.6230088348631947E-003
  0.34970000000000001          3.2801448816201324E-003
  0.35080000000000006          2.0197423676803130E-003
  0.35190000000000005          8.4551219273979361E-004
  0.35300000000000004         -2.3999607870253453E-004
  0.35410000000000003         -1.2353345136138724E-003
  0.35520000000000002         -2.1400897836168307E-003
  0.35630000000000001         -2.9548060448043993E-003
  0.35740000000000005         -3.6809018374487365E-003
  0.35850000000000004         -4.3205763595778619E-003
  0.35960000000000003         -4.8767109280897624E-003
  0.36070000000000002         -5.3527676392888177E-003
  0.36180000000000001         -5.7526903048798388E-003
  0.36290000000000006         -6.0808096702138215E-003
  0.36400000000000005         -6.3417540785603889E-003
  0.36510000000000004         -6.5403682934568677E-003
  0.36620000000000003         -6.6816301822848400E-003
  0.36730000000000002         -6.7705788511287224E-003
  0.36840000000000006         -6.8122435080574893E-003
  0.36950000000000005         -6.8115761473097943E-003
  0.37060000000000004         -6.7733990883907490E-003
  0.37170000000000003         -6.7023538230058227E-003
  0.37280000000000002         -6.6028673489581090E-003
  0.37390000000000001         -6.4791246876254368E-003
  0.37500000000000006         -6.3350469785521477E-003
  0.37610000000000005         -6.1742767515452560E-003
  0.37720000000000004         -6.0001636992925355E-003
  0.37830000000000003         -5.8157606613578024E-003
  0.37940000000000002         -5.6238175498984164E-003
  0.38050000000000006         -5.4267888779839417E-003
  0.38160000000000005         -5.2268435397053309E-003
  0.38270000000000004         -5.0258817899639452E-003
  0.38380000000000003         -4.8255515365273902E-003
  0.38490000000000002         -4.6272630981905680E-003
  0.38600000000000001         -4.4322060993987646E-003
  0.38710000000000000         -4.2413645880950666E-003
  0.38819999999999999         -4.0555357318468096E-003
  0.38930000000000009         -3.8753511070469347E-003
  0.39040000000000008         -3.7012957033888388E-003
  0.39150000000000007         -3.5337325048987222E-003
  0.39260000000000006         -3.3729170705817965E-003
  0.39370000000000005         -3.2190122978570049E-003
  0.39480000000000004         -3.0720988106799278E-003
  0.39590000000000003         -2.9321859998611595E-003
  0.39700000000000002         -2.7992246230179826E-003
  0.39810000000000001         -2.6731179741278392E-003
  0.39920000000000000         -2.5537319193767107E-003
  0.40029999999999999         -2.4409040320182295E-003
  0.40140000000000009         -2.3344463289298096E-003
  0.40250000000000008         -2.2341488229831179E-003
  0.40360000000000007         -2.1397822348439778E-003
  0.40470000000000006         -2.0511004903710720E-003
  0.40580000000000005         -1.9678465807077190E-003
  0.40690000000000004         -1.8897555071507540E-003
  0.40800000000000003         -1.8165566072357109E-003
  0.40910000000000002         -1.7479740709187884E-003
  0.41020000000000001         -1.6837271176385741E-003
  0.41130000000000000         -1.6235311531913161E-003
  0.41239999999999999         -1.5671009032488315E-003
  0.41350000000000009         -1.5141545636237121E-003
  0.41460000000000008         -1.4644171699815713E-003
  0.41570000000000007         -1.4176223425371392E-003
  0.41680000000000006         -1.3735128072011726E-003
  0.41790000000000005         -1.3318401667834364E-003
  0.41900000000000004         -1.2923658353527585E-003
  0.42010000000000003         -1.2548651546419080E-003
  0.42120000000000002         -1.2191322254464306E-003
  0.42230000000000001         -1.1849849169893582E-003
  0.42340000000000000         -1.1522664958137695E-003
  0.42449999999999999         -1.1208460620765470E-003
  0.42560000000000009         -1.0906160132837890E-003
  0.42670000000000008         -1.0614894537586683E-003
  0.42780000000000007         -1.0333994582389615E-003
  0.42890000000000006         -1.0062988414326452E-003
  0.43000000000000005         -9.8016159895410052E-004
  0.43110000000000004         -9.5498363136779004E-004
  0.43220000000000003         -9.3078203621310175E-004
  0.43330000000000002         -9.0759336891005479E-004
  0.43440000000000001         -8.8547086330582046E-004
  0.43550000000000000         -8.6448201297432102E-004
  0.43659999999999999         -8.4470661816787277E-004
  0.43770000000000009         -8.2623681993701135E-004
  0.43880000000000008         -8.0917825747869442E-004
  0.43990000000000007         -7.9365177422722555E-004
  0.44100000000000006         -7.7979590851044332E-004
  0.44210000000000005         -7.6776877024289588E-004
  0.44320000000000004         -7.5774962633269160E-004
  0.44430000000000003         -7.4994082185262821E-004
  0.44540000000000002         -7.4457154926215624E-004
  0.44650000000000001         -7.4190321574426081E-004
  0.44760000000000000         -7.4223789391054886E-004
  0.44869999999999999         -7.4592800094730916E-004
  0.44980000000000009         -7.5338623448818905E-004
  0.45090000000000008         -7.6509548167286591E-004
  0.45200000000000007         -7.8161773482186728E-004
  0.45310000000000006         -8.0360271100573697E-004
  0.45420000000000005         -8.3179721429007213E-004
  0.45530000000000004         -8.6705511546497681E-004
  0.45640000000000003         -9.1034871793298114E-004
  0.45750000000000002         -9.6277994533203312E-004
  0.45860000000000001         -1.0255909752614196E-003
  0.45970000000000000         -1.1001731202288003E-003
  0.46079999999999999         -1.1880744809292798E-003
  0.46190000000000009         -1.2910066556010181E-003
  0.46300000000000008         -1.4108497386551833E-003
  0.46410000000000007         -1.5496580684896321E-003
  0.46520000000000006         -1.7096622036861888E-003
  0.46630000000000005         -1.8932698366689164E-003
  0.46740000000000004         -2.1030630797312455E-003
  0.46850000000000003         -2.3417924503534799E-003
  0.46960000000000002         -2.6123674179149925E-003
  0.47070000000000001         -2.9178416550072264E-003
  0.47180000000000000         -3.2613950831802498E-003
  0.47289999999999999         -3.6463086462842731E-003
  0.47400000000000009         -4.0759366996862972E-003
  0.47510000000000008         -4.5536721987705503E-003
  0.47620000000000007         -5.0829079448816185E-003
  0.47730000000000006         -5.6669917198469075E-003
  0.47840000000000005         -6.3091724063306723E-003