 -0.12000000000000000          0.0000000000000000     
 -0.11889999999999999          0.0000000000000000     
 -0.11780000000000000          0.0000000000000000     
 -0.11670000000000000          0.0000000000000000     
 -0.11559999999999999          0.0000000000000000     
 -0.11449999999999999          0.0000000000000000     
 -0.11340000000000000          0.0000000000000000     
 -0.11230000000000000          0.0000000000000000     
 -0.11119999999999999          0.0000000000000000     
 -0.11009999999999999          0.0000000000000000     
 -0.10900000000000000          0.0000000000000000     
 -0.10790000000000000          0.0000000000000000     
 -0.10679999999999999          0.0000000000000000     
 -0.10569999999999999          0.0000000000000000     
 -0.10460000000000000          0.0000000000000000     
 -0.10349999999999999          0.0000000000000000     
 -0.10239999999999999          0.0000000000000000     
 -0.10130000000000000          0.0000000000000000     
 -0.10020000000000000          0.0000000000000000     
  -9.9099999999999994E-002     0.0000000000000000     
  -9.7999999999999990E-002     0.0000000000000000     
  -9.6899999999999986E-002     0.0000000000000000     
  -9.5799999999999996E-002     0.0000000000000000     
  -9.4699999999999993E-002     0.0000000000000000     
  -9.3599999999999989E-002     0.0000000000000000     
  -9.2499999999999999E-002     0.0000000000000000     
  -9.1399999999999995E-002     0.0000000000000000     
  -9.0299999999999991E-002     0.0000000000000000     
  -8.9200000000000002E-002     0.0000000000000000     
  -8.8099999999999984E-002     0.0000000000000000     
  -8.6999999999999994E-002     0.0000000000000000     
  -8.5899999999999990E-002     0.0000000000000000     
  -8.4799999999999986E-002     0.0000000000000000     
  -8.3699999999999997E-002     0.0000000000000000     
  -8.2599999999999993E-002     0.0000000000000000     
  -8.1499999999999989E-002     0.0000000000000000     
  -8.0399999999999999E-002     0.0000000000000000     
  -7.9299999999999995E-002     0.0000000000000000     
  -7.8199999999999992E-002     0.0000000000000000     
  -7.7100000000000002E-002     0.0000000000000000     
  -7.5999999999999984E-002     0.0000000000000000     
  -7.4899999999999994E-002     0.0000000000000000     
  -7.3799999999999991E-002     0.0000000000000000     
  -7.2699999999999987E-002     0.0000000000000000     
  -7.1599999999999997E-002     0.0000000000000000     
  -7.0499999999999993E-002     0.0000000000000000     
  -6.9399999999999989E-002     0.0000000000000000     
  -6.8300000000000000E-002     0.0000000000000000     
  -6.7199999999999996E-002     0.0000000000000000     
  -6.6099999999999992E-002     0.0000000000000000     
  -6.5000000000000002E-002     0.0000000000000000     
  -6.3899999999999985E-002     0.0000000000000000     
  -6.2799999999999995E-002     0.0000000000000000     
  -6.1699999999999991E-002     0.0000000000000000     
  -6.0599999999999994E-002     0.0000000000000000     
  -5.9499999999999990E-002     0.0000000000000000     
  -5.8399999999999994E-002     0.0000000000000000     
  -5.7299999999999990E-002     0.0000000000000000     
  -5.6199999999999986E-002     0.0000000000000000     
  -5.5099999999999996E-002     0.0000000000000000     
  -5.3999999999999992E-002     0.0000000000000000     
  -5.2899999999999989E-002     0.0000000000000000     
  -5.1799999999999985E-002     0.0000000000000000     
  -5.0699999999999995E-002     0.0000000000000000     
  -4.9599999999999991E-002     0.0000000000000000     
  -4.8499999999999988E-002     0.0000000000000000     
  -4.7399999999999998E-002     0.0000000000000000     
  -4.6299999999999994E-002     0.0000000000000000     
  -4.5199999999999990E-002     0.0000000000000000     
  -4.4099999999999986E-002     0.0000000000000000     
  -4.2999999999999997E-002     0.0000000000000000     
  -4.1899999999999993E-002     0.0000000000000000     
  -4.0799999999999989E-002     0.0000000000000000     
  -3.9699999999999985E-002     0.0000000000000000     
  -3.8599999999999995E-002     0.0000000000000000     
  -3.7499999999999992E-002     0.0000000000000000     
  -3.6399999999999988E-002     0.0000000000000000     
  -3.5299999999999984E-002     0.0000000000000000     
  -3.4199999999999994E-002     0.0000000000000000     
  -3.3099999999999991E-002     0.0000000000000000     
  -3.1999999999999987E-002     0.0000000000000000     
  -3.0899999999999997E-002     0.0000000000000000     
  -2.9799999999999993E-002     0.0000000000000000     
  -2.8699999999999989E-002     0.0000000000000000     
  -2.7599999999999986E-002     0.0000000000000000     
  -2.6499999999999996E-002     0.0000000000000000     
  -2.5399999999999992E-002     0.0000000000000000     
  -2.4299999999999988E-002     0.0000000000000000     
  -2.3199999999999985E-002     0.0000000000000000     
  -2.2099999999999995E-002     0.0000000000000000     
  -2.0999999999999991E-002     0.0000000000000000     
  -1.9899999999999987E-002     0.0000000000000000     
  -1.8799999999999983E-002     0.0000000000000000     
  -1.7699999999999994E-002     0.0000000000000000     
  -1.6599999999999990E-002     0.0000000000000000     
  -1.5499999999999986E-002     0.0000000000000000     
  -1.4399999999999996E-002     0.0000000000000000     
  -1.3299999999999992E-002     0.0000000000000000     
  -1.2199999999999989E-002     0.0000000000000000     
  -1.1099999999999985E-002     0.0000000000000000     
  -9.9999999999999950E-003     0.0000000000000000     
  -8.8999999999999913E-003     0.0000000000000000     
  -7.7999999999999875E-003     0.0000000000000000     
  -6.6999999999999837E-003     0.0000000000000000     
  -5.5999999999999939E-003     0.0000000000000000     
  -4.4999999999999901E-003     0.0000000000000000     
  -3.3999999999999864E-003     0.0000000000000000     
  -2.2999999999999826E-003     0.0000000000000000     
  -1.1999999999999927E-003     0.0000000000000000     
  -9.9999999999988987E-005     0.0000000000000000     
   1.0000000000000148E-003     0.0000000000000000     
   2.1000000000000185E-003     0.0000000000000000     
   3.2000000000000084E-003     0.0000000000000000     
   4.3000000000000121E-003     0.0000000000000000     
   5.4000000000000159E-003     0.0000000000000000     
   6.5000000000000058E-003     0.0000000000000000     
   7.6000000000000234E-003     0.0000000000000000     
   8.7000000000000133E-003     0.0000000000000000     
   9.8000000000000032E-003     0.0000000000000000     
   1.0900000000000021E-002     0.0000000000000000     
   1.2000000000000011E-002     0.0000000000000000     
   1.3100000000000001E-002     0.0000000000000000     
   1.4200000000000018E-002     0.0000000000000000     
   1.5300000000000008E-002     0.0000000000000000     
   1.6400000000000026E-002     0.0000000000000000     
   1.7500000000000016E-002     0.0000000000000000     
   1.8600000000000005E-002     0.0000000000000000     
   1.9700000000000023E-002     0.0000000000000000     
   2.0800000000000013E-002     0.0000000000000000     
   2.1900000000000003E-002     0.0000000000000000     
   2.3000000000000020E-002     0.0000000000000000     
   2.4100000000000010E-002     0.0000000000000000     
   2.5200000000000000E-002     0.0000000000000000     
   2.6300000000000018E-002     0.0000000000000000     
   2.7400000000000008E-002     0.0000000000000000     
   2.8500000000000025E-002     0.0000000000000000     
   2.9600000000000015E-002     0.0000000000000000     
   3.0700000000000005E-002     0.0000000000000000     
   3.1800000000000023E-002     0.0000000000000000     
   3.2900000000000013E-002     0.0000000000000000     
   3.4000000000000002E-002     0.0000000000000000     
   3.5100000000000020E-002     0.0000000000000000     
   3.6200000000000010E-002     0.0000000000000000     
   3.7300000000000028E-002     0.0000000000000000     
   3.8400000000000017E-002     0.0000000000000000     
   3.9500000000000007E-002     0.0000000000000000     
   4.0600000000000025E-002     0.0000000000000000     
   4.1700000000000015E-002     0.0000000000000000     
   4.2800000000000005E-002     0.0000000000000000     
   4.3900000000000022E-002     0.0000000000000000     
   4.5000000000000012E-002     0.0000000000000000     
   4.6100000000000002E-002     0.0000000000000000     
   4.7200000000000020E-002     0.0000000000000000     
   4.8300000000000010E-002     0.0000000000000000     
   4.9400000000000027E-002     0.0000000000000000     
   5.0500000000000017E-002     0.0000000000000000     
   5.1600000000000007E-002     0.0000000000000000     
   5.2700000000000025E-002     0.0000000000000000     
   5.3800000000000014E-002     0.0000000000000000     
   5.4900000000000004E-002     0.0000000000000000     
   5.6000000000000022E-002     0.0000000000000000     
   5.7100000000000012E-002     0.0000000000000000     
   5.8200000000000002E-002     0.0000000000000000     
   5.9300000000000019E-002     0.0000000000000000     
   6.0400000000000009E-002     0.0000000000000000     
   6.1500000000000027E-002     0.0000000000000000     
   6.2600000000000017E-002     0.0000000000000000     
   6.3700000000000007E-002     0.0000000000000000     
   6.4800000000000024E-002     0.0000000000000000     
   6.5900000000000014E-002     0.0000000000000000     
   6.7000000000000004E-002     0.0000000000000000     
   6.8100000000000022E-002     0.0000000000000000     
   6.9200000000000012E-002     0.0000000000000000     
   7.0300000000000029E-002     0.0000000000000000     
   7.1400000000000019E-002     0.0000000000000000     
   7.2500000000000009E-002     0.0000000000000000     
   7.3600000000000027E-002     0.0000000000000000     
   7.4700000000000016E-002     0.0000000000000000     
   7.5800000000000006E-002     0.0000000000000000     
   7.6900000000000024E-002     0.0000000000000000     
   7.8000000000000014E-002     0.0000000000000000     
   7.9100000000000004E-002     0.0000000000000000     
   8.0200000000000021E-002     0.0000000000000000     
   8.1300000000000011E-002     0.0000000000000000     
   8.2400000000000029E-002     0.0000000000000000     
   8.3500000000000019E-002     0.0000000000000000     
   8.4600000000000009E-002     0.0000000000000000     
   8.5700000000000026E-002     0.0000000000000000     
   8.6800000000000016E-002     0.0000000000000000     
   8.7900000000000006E-002     0.0000000000000000     
   8.9000000000000024E-002     0.0000000000000000     
   9.0100000000000013E-002     0.0000000000000000     
   9.1200000000000003E-002     0.0000000000000000     
   9.2300000000000021E-002     0.0000000000000000     
   9.3400000000000011E-002     0.0000000000000000     
   9.4500000000000028E-002     0.0000000000000000     
   9.5600000000000018E-002     0.0000000000000000     
   9.6700000000000008E-002     0.0000000000000000     
   9.7800000000000026E-002     0.0000000000000000     
   9.8900000000000016E-002     0.0000000000000000     
  0.10000000000000001          0.0000000000000000     
  0.10110000000000002          0.0000000000000000     
  0.10220000000000001          0.0000000000000000     
  0.10330000000000003          0.0000000000000000     
  0.10440000000000002          0.0000000000000000     
  0.10550000000000001          0.0000000000000000     
  0.10660000000000003          0.0000000000000000     
  0.10770000000000002          0.0000000000000000     
  0.10880000000000001          0.0000000000000000     
  0.10990000000000003          0.0000000000000000     
  0.11100000000000002          0.0000000000000000     
  0.11210000000000001          0.0000000000000000     
  0.11320000000000002          0.0000000000000000     
  0.11430000000000001          0.0000000000000000     
  0.11540000000000003          0.0000000000000000     
  0.11650000000000002          0.0000000000000000     
  0.11760000000000001          0.0000000000000000     
  0.11870000000000003          0.0000000000000000     
  0.11980000000000002          0.0000000000000000     
  0.12090000000000001          0.0000000000000000     
  0.12200000000000003          0.0000000000000000     
  0.12310000000000001          0.0000000000000000     
  0.12420000000000003          0.0000000000000000     
  0.12530000000000002          0.0000000000000000     
  0.12640000000000001          0.0000000000000000     
  0.12750000000000003          0.0000000000000000     
  0.12860000000000002          0.0000000000000000     
  0.12970000000000001          0.0000000000000000     
  0.13080000000000003          0.0000000000000000     
  0.13190000000000002          0.0000000000000000     
  0.13300000000000001          0.0000000000000000     
  0.13410000000000000          0.0000000000000000     
  0.13520000000000004          0.0000000000000000     
  0.13630000000000003          0.0000000000000000     
  0.13740000000000002          0.0000000000000000     
  0.13850000000000001          0.0000000000000000     
  0.13960000000000000          0.0000000000000000     
  0.14070000000000005          0.0000000000000000     
  0.14180000000000004          0.0000000000000000     
  0.14290000000000003          0.0000000000000000     
  0.14400000000000002          0.0000000000000000     
  0.14510000000000001          0.0000000000000000     
  0.14620000000000000          0.0000000000000000     
  0.14730000000000004          0.0000000000000000     
  0.14840000000000003          0.0000000000000000     
  0.14950000000000002          0.0000000000000000     
  0.15060000000000001          0.0000000000000000     
  0.15170000000000000          0.0000000000000000     
  0.15280000000000005          0.0000000000000000     
  0.15390000000000004          0.0000000000000000     
  0.15500000000000003          0.0000000000000000     
  0.15610000000000002          0.0000000000000000     
  0.15720000000000001          0.0000000000000000     
  0.15830000000000000          0.0000000000000000     
  0.15940000000000004          0.0000000000000000     
  0.16050000000000003          0.0000000000000000     
  0.16160000000000002          0.0000000000000000     
  0.16270000000000001          0.0000000000000000     
  0.16380000000000000          0.0000000000000000     
  0.16490000000000005          0.0000000000000000     
  0.16600000000000004          0.0000000000000000     
  0.16710000000000003          0.0000000000000000     
  0.16820000000000002          0.0000000000000000     
  0.16930000000000001          0.0000000000000000     
  0.17040000000000000          0.0000000000000000     
  0.17150000000000004          0.0000000000000000     
  0.17260000000000003          0.0000000000000000     
  0.17370000000000002          0.0000000000000000     
  0.17480000000000001          0.0000000000000000     
  0.17590000000000000          0.0000000000000000     
  0.17700000000000005          0.0000000000000000     
  0.17810000000000004          0.0000000000000000     
  0.17920000000000003          0.0000000000000000     
  0.18030000000000002          0.0000000000000000     
  0.18140000000000001          0.0000000000000000     
  0.18250000000000000          0.0000000000000000     
  0.18360000000000004          0.0000000000000000     
  0.18470000000000003          0.0000000000000000     
  0.18580000000000002          0.0000000000000000     
  0.18690000000000001          0.0000000000000000     
  0.18800000000000000          0.0000000000000000     
  0.18910000000000005          0.0000000000000000     
  0.19020000000000004          0.0000000000000000     
  0.19130000000000003          0.0000000000000000     
  0.19240000000000002          0.0000000000000000     
  0.19350000000000001          0.0000000000000000     
  0.19460000000000005          0.0000000000000000     
  0.19570000000000004         -9.7623241448589744E-048
  0.19680000000000003         -2.0224206168682958E-047
  0.19790000000000002         -2.7267845410281352E-047
  0.19900000000000001         -1.9977581527825226E-047
  0.20010000000000000         -3.1261393670779531E-038
  0.20120000000000005         -7.5364067989717575E-038
  0.20230000000000004         -7.5887654766753755E-038
  0.20340000000000003          6.7390331711888364E-047
  0.20450000000000002          1.3429253071749484E-037
  0.20560000000000000          2.3717386891886298E-037
  0.20670000000000005          1.5684528651304404E-037
  0.20780000000000004         -1.2366851262359185E-037
  0.20890000000000003         -5.1829438467410134E-037
  0.21000000000000002         -7.2257477911838280E-037
  0.21110000000000001         -4.5455629217132678E-037
  0.21220000000000000          3.1549911882841846E-037
  0.21330000000000005          1.2686449598657025E-036
  0.21440000000000003          1.7878545177968845E-036
  0.21550000000000002          1.3323147652275003E-036
  0.21660000000000001         -2.0823655631377736E-037
  0.21770000000000000         -2.2956407722142476E-036
  0.21880000000000005         -3.8521141452804733E-036
  0.21990000000000004         -3.7161409368740070E-036
  0.22100000000000003         -1.2843659704419905E-036
  0.22210000000000002          2.9503060622140836E-036
  0.22320000000000001          7.2747861310443065E-036
  0.22430000000000000          9.2349086229195948E-036
  0.22540000000000004          6.6767462293643726E-036
  0.22650000000000003         -9.2934873776657753E-037
  0.22760000000000002         -1.1478616215855604E-035
  0.22870000000000001         -2.0223572432933152E-035
  0.22980000000000000         -2.1269042097573675E-035
  0.23090000000000005         -1.0431830101033616E-035
  0.23200000000000004          1.1482644028753856E-035
  0.23310000000000003          3.6801631502412223E-035
  0.23420000000000002          5.2304682988436850E-035
  0.23530000000000001          4.4392392117333583E-035
  0.23640000000000000          7.0085515559901051E-036
  0.23750000000000004         -5.1322806443934261E-035
  0.23860000000000003         -1.0594228926205557E-034
  0.23970000000000002         -1.2336575591877838E-034
  0.24080000000000001         -7.7046216184734235E-035
  0.24190000000000000          3.3978677035295610E-035
  0.24300000000000005          1.7343583422960764E-034
  0.24410000000000004          2.7299910387035410E-034
  0.24520000000000003          2.5838837512597277E-034
  0.24630000000000002          8.9940207050050529E-035
  0.24740000000000001         -2.0006902327159249E-034
  0.24850000000000005         -4.9629637786375882E-034
  0.24960000000000004         -6.3257635151843437E-034
  0.25070000000000003         -4.6646453608609713E-034
  0.25180000000000002          2.9838646221455784E-035
  0.25290000000000001          7.0785133553628261E-034
  0.25400000000000000          1.2573453079582502E-033
  0.25510000000000005          1.3186489003191320E-033
  0.25620000000000004          6.6680748284202090E-034
  0.25730000000000003         -6.0928806207676526E-034
  0.25840000000000002         -2.0364023516542284E-033
  0.25950000000000001         -2.8763959223054649E-033
  0.26060000000000005         -2.4399475445033940E-033
  0.26170000000000004         -4.9063692636428616E-034
  0.26280000000000003          2.4543194285781224E-033
  0.26390000000000002          5.1338349259669410E-033
  0.26500000000000001          5.9717339139692067E-033
  0.26610000000000000          3.8372991916341819E-033
  0.26720000000000005         -1.1671581630743584E-033
  0.26830000000000004         -7.3210559574025720E-033
  0.26940000000000003         -1.1660234666584210E-032
  0.27050000000000002         -1.1172186314384946E-032
  0.27160000000000001         -4.4370107003727826E-033
  0.27270000000000005          7.0388609021050220E-033
  0.27380000000000004          1.8639298176518122E-032
  0.27490000000000003          2.4101351706841407E-032
  0.27600000000000002          1.8379646184650448E-032
  0.27710000000000001          8.1162890734700722E-034
  0.27820000000000000         -2.3052544774733978E-032
  0.27930000000000005         -4.2403384394154372E-032
  0.28040000000000004         -4.5308565804268525E-032
  0.28150000000000003         -2.4819616988587781E-032
  0.28260000000000002          1.5638374212778057E-032
  0.28370000000000001          6.0761273624914075E-032
  0.28480000000000005          8.7814241722546539E-032
  0.28590000000000004          7.6524047568403227E-032
  0.28700000000000003          2.0783812845655228E-032
  0.28810000000000002         -6.3591834595469266E-032
  0.28920000000000001         -1.4049073556019719E-031
  0.29030000000000000         -1.6655320865332814E-031
  0.29140000000000005         -1.1215634949302172E-031
  0.29250000000000004          1.8512619411322674E-032
  0.29360000000000003          1.7935229662152523E-031
  0.29470000000000002          2.9419386312856383E-031
  0.29580000000000001          2.8827959856357455E-031
  0.29690000000000005          1.2843739313693411E-031
  0.29800000000000004         -1.4689554554931246E-031
  0.29910000000000003         -4.2680352017822800E-031
  0.30020000000000002         -5.6522428104696461E-031
  0.30130000000000001         -4.4783292669079005E-031
  0.30240000000000000         -6.1607547977628313E-032
  0.30350000000000005          4.6897452068553664E-031
  0.30460000000000004          9.0782582413172586E-031
  0.30570000000000003          9.9928793699752261E-031
  0.30680000000000002          5.9660824149866213E-031
  0.30790000000000001         -2.3043577692660018E-031
  0.30900000000000005         -1.1711170919163058E-030
  0.31010000000000004         -1.7685357661422942E-030
  0.31120000000000003         -1.6170226329433282E-030
  0.31230000000000002         -5.8732066195184732E-031
  0.31340000000000001          1.0302765981064100E-030
  0.31450000000000006          2.5616737771695602E-030
  0.31560000000000005          3.1934498955432877E-030
  0.31670000000000004          2.3554234237785119E-030
  0.31780000000000003          8.0191765349486562E-032
  0.31890000000000002         -2.8522572942025775E-030
  0.32000000000000001         -5.1162505785736225E-030
  0.32110000000000005         -5.3756402448127733E-030
  0.32220000000000004         -2.9647254081390095E-030
  0.32330000000000003          1.5962936724700622E-030
  0.32440000000000002          6.5576154153467306E-030
  0.32550000000000001          9.5110485530494431E-030
  0.32660000000000006          8.4417812831568461E-030
  0.32770000000000005          2.8478293660792413E-030
  0.32880000000000004         -5.6232181437561803E-030
  0.32990000000000003         -1.3462391743185316E-029
  0.33100000000000002         -1.6595750376872537E-029
  0.33210000000000001         -1.2283860314567260E-029
  0.33320000000000005         -8.1732999148229754E-031
  0.33430000000000004          1.3890282205522862E-029
  0.33540000000000003          2.5372571224968645E-029
  0.33650000000000002          2.7204603075486489E-029
  0.33760000000000001          1.6189312976370276E-029
  0.33870000000000006         -5.3081562976224456E-030
  0.33980000000000005         -2.9232237131195583E-029
  0.34090000000000004         -4.4484612266648125E-029
  0.34200000000000003         -4.1672601100925839E-029
  0.34310000000000002         -1.8092682471682907E-029
  0.34420000000000001          1.9449483481037713E-029
  0.34530000000000005          5.5847839660682528E-029
  0.34640000000000004          7.3228978279185025E-029
  0.34750000000000003          5.9047290851934355E-029
  0.34860000000000002          1.3342692259713027E-029
  0.34970000000000001         -4.8560851969068990E-029
  0.35080000000000006         -1.0020721232442877E-028
  0.35190000000000005         -1.1444876015414043E-028
  0.35300000000000004         -7.6435471160421043E-029
  0.35410000000000003          6.6087382185466179E-030
  0.35520000000000002          1.0422364888112978E-028
  0.35630000000000001          1.7251167200114979E-028
  0.35740000000000005          1.7243170988544502E-028
  0.35850000000000004          8.9525240662162965E-029
  0.35960000000000003         -5.4102688186114415E-029
  0.36070000000000002         -2.0284394906433661E-028
  0.36180000000000001         -2.8722871413074717E-028
  0.36290000000000006         -2.5406533208057826E-028
  0.36400000000000005         -9.4805400311218372E-029
  0.36510000000000004          1.4166131947121179E-028
  0.36620000000000003          3.6081438050450042E-028
  0.36730000000000002          4.5799090742649906E-028
  0.36840000000000006          3.6526014919076802E-028
  0.36950000000000005          8.9749208135606211E-029
  0.37060000000000004         -2.7611328167486078E-028
  0.37170000000000003         -5.8226028531414976E-028
  0.37280000000000002         -6.8029811206615178E-028
  0.37390000000000001         -4.9223668618852877E-028
  0.37500000000000006         -5.8122711621798738E-029
  0.37610000000000005          4.6327695989617138E-028
  0.37720000000000004          8.4894269805193150E-028
  0.37830000000000003          9.0488402939475492E-028
  0.37940000000000002          5.6089262216590030E-028
  0.38050000000000006         -7.7526800177130307E-029
  0.38160000000000005         -7.5155713669455264E-028
  0.38270000000000004         -1.1474930412359008E-027
  0.38380000000000003         -1.0372279666272509E-027
  0.38490000000000002         -4.0122224595290644E-028
  0.38600000000000001          5.2743084174790440E-028
  0.38710000000000000          1.3323099975236678E-027
  0.38819999999999999          1.5830286189430729E-027
  0.38930000000000009          1.0416672384439421E-027
  0.39040000000000008         -1.8521690644190226E-028
  0.39150000000000007         -1.6308522446464062E-027
  0.39260000000000006         -2.6209119733299777E-027
  0.39370000000000005         -2.5534037030874402E-027
  0.39480000000000004         -1.1980039300122270E-027
  0.39590000000000003          1.1207888549427291E-027
  0.39700000000000002          3.5620332309256285E-027
  0.39810000000000001          5.0497131971010897E-027
  0.39920000000000000          4.7110395761631709E-027
  0.40029999999999999          2.3001537357198137E-027
  0.40140000000000009         -1.5850982109257204E-027
  0.40250000000000008         -5.6222771419794361E-027
  0.40360000000000007         -8.2169562122876840E-027
  0.40470000000000006         -8.1368329026065892E-027
  0.40580000000000005         -5.0730593097030259E-027
  0.40690000000000004          1.2720420800898189E-028
  0.40800000000000003          5.6990478101433016E-027
  0.40910000000000002          9.6173645969336858E-027
  0.41020000000000001          1.0426636491537098E-026
  0.41130000000000000          7.8879703752834592E-027
  0.41239999999999999          3.1300105039394280E-027
  0.41350000000000009         -1.8170885836432449E-027
  0.41460000000000008         -4.9503630122442615E-027
  0.41570000000000007         -5.2903809108562587E-027
  0.41680000000000006         -3.4621363977772086E-027
  0.41790000000000005         -1.5069520938354358E-027
  0.41900000000000004         -1.8923177086280880E-027
  0.42010000000000003         -6.0776615646627726E-027
  0.42120000000000002         -1.3283053890872300E-026
  0.42230000000000001         -2.0140826697631136E-026
  0.42340000000000000         -2.1626019223653811E-026
  0.42449999999999999         -1.3134942446651816E-026
  0.42560000000000009          6.9901925389562775E-027
  0.42670000000000008          3.5557079079441720E-026
  0.42780000000000007          6.4262913819179024E-026
  0.42890000000000006          8.1597817907088306E-026
  0.43000000000000005          7.6609560870867934E-026
  0.43110000000000004          4.3386600894980508E-026
  0.43220000000000003         -1.5388252422102576E-026
  0.43330000000000002         -8.7370726508176709E-026
  0.43440000000000001         -1.5280201126943489E-025
  0.43550000000000000         -1.8974693107351528E-025
  0.43659999999999999         -1.8084622584191451E-025
  0.43770000000000009         -1.1940758181175606E-025
  0.43880000000000008         -1.2731726396221886E-026
  0.43990000000000007          1.1856696441780034E-025
  0.44100000000000006          2.4513329860722585E-025
  0.44210000000000005          3.3590542677840987E-025
  0.44320000000000004          3.6542060778271010E-025
  0.44430000000000003          3.1931437499173568E-025
  0.44540000000000002          1.9685015432268348E-025
  0.44650000000000001          1.0601786190401795E-026
  0.44760000000000000         -2.1555510698889219E-025
  0.44869999999999999         -4.4873178810286019E-025
  0.44980000000000009         -6.4887196081171290E-025
  0.45090000000000008         -7.7073169171421212E-025
  0.45200000000000007         -7.6775847504634027E-025
  0.45310000000000006         -5.9988419222085984E-025
  0.45420000000000005         -2.4605572344784796E-025
  0.45530000000000004          2.8018827887710474E-025
  0.45640000000000003          9.1676601531135940E-025
  0.45750000000000002          1.5475026070119470E-024
  0.45860000000000001          2.0116505127150037E-024
  0.45970000000000000          2.1321133200026124E-024
  0.46079999999999999          1.7603776104908186E-024
  0.46190000000000009          8.2942373399493916E-025
  0.46300000000000008         -5.9968801093317085E-025
  0.46410000000000007         -2.3139922986310746E-024
  0.46520000000000006         -3.9611837527016108E-024
  0.46630000000000005         -5.1044632889588552E-024
  0.46740000000000004         -5.3145262975564434E-024
  0.46850000000000003         -4.2821081457364262E-024
  0.46960000000000002         -1.9259429474382106E-024
  0.47070000000000001          1.5320603595801575E-024
  0.47180000000000000          5.5489548504247397E-024
  0.47289999999999999          9.3149026309271486E-024
  0.47400000000000009          1.1880051083320519E-023
  0.47510000000000008          1.2339544413015705E-023
  0.47620000000000007          1.0048205634173124E-023
  0.47730000000000006          4.8261713067152610E-024
  0.47840000000000005         -2.8884335087525465E-024