 -0.12000000000000000          0.0000000000000000     
 -0.11889999999999999          0.0000000000000000     
 -0.11780000000000000          0.0000000000000000     
 -0.11670000000000000          0.0000000000000000     
 -0.11559999999999999          0.0000000000000000     
 -0.11449999999999999          0.0000000000000000     
 -0.11340000000000000          0.0000000000000000     
 -0.11230000000000000          0.0000000000000000     
 -0.11119999999999999          0.0000000000000000     
 -0.11009999999999999          0.0000000000000000     
 -0.10900000000000000          0.0000000000000000     
 -0.10790000000000000          0.0000000000000000     
 -0.10679999999999999          0.0000000000000000     
 -0.10569999999999999          0.0000000000000000     
 -0.10460000000000000          0.0000000000000000     
 -0.10349999999999999          0.0000000000000000     
 -0.10239999999999999          0.0000000000000000     
 -0.10130000000000000          0.0000000000000000     
 -0.10020000000000000          0.0000000000000000     
  -9.9099999999999994E-002     0.0000000000000000     
  -9.7999999999999990E-002     0.0000000000000000     
  -9.6899999999999986E-002     0.0000000000000000     
  -9.5799999999999996E-002     0.0000000000000000     
  -9.4699999999999993E-002     0.0000000000000000     
  -9.3599999999999989E-002     0.0000000000000000     
  -9.2499999999999999E-002     0.0000000000000000     
  -9.1399999999999995E-002     0.0000000000000000     
  -9.0299999999999991E-002     0.0000000000000000     
  -8.9200000000000002E-002     0.0000000000000000     
  -8.8099999999999984E-002     0.0000000000000000     
  -8.6999999999999994E-002     0.0000000000000000     
  -8.5899999999999990E-002     0.0000000000000000     
  -8.4799999999999986E-002     0.0000000000000000     
  -8.3699999999999997E-002     0.0000000000000000     
  -8.2599999999999993E-002     2.1850662538322994E-044
  -8.1499999999999989E-002     3.3130881040755177E-044
  -8.0399999999999999E-002    -2.2284217397254453E-040
  -7.9299999999999995E-002    -4.0737892567233581E-040
  -7.8199999999999992E-002     5.3951120805791628E-040
  -7.7100000000000002E-002     3.8034212776435779E-039
  -7.5999999999999984E-002     5.9444395061063499E-039
  -7.4899999999999994E-002     5.7300270351522677E-039
  -7.3799999999999991E-002    -2.5549749260734395E-038
  -7.2699999999999987E-002    -9.4464934931600807E-038
  -7.1599999999999997E-002    -1.9496468790450544E-037
  -7.0499999999999993E-002    -1.5324128144597782E-037
  -6.9399999999999989E-002     4.3506753107385973E-037
  -6.8300000000000000E-002     1.9994367742491539E-036
  -6.7199999999999996E-002     4.0401651806675060E-036
  -6.6099999999999992E-002     3.5404904008783990E-036
  -6.5000000000000002E-002    -5.8384537180867990E-036
  -6.3899999999999985E-002    -3.0081887637474814E-035
  -6.2799999999999995E-002    -6.2299828550650636E-035
  -6.1699999999999991E-002    -6.2903002437789559E-035
  -6.0599999999999994E-002     4.9248462783231501E-035
  -5.9499999999999990E-002     3.5372527461492408E-034
  -5.8399999999999994E-002     7.8968071532665402E-034
  -5.7299999999999990E-002     9.4101556243161307E-034
  -5.6199999999999986E-002    -7.1480461953530406E-035
  -5.5099999999999996E-002    -3.2019873263472883E-033
  -5.3999999999999992E-002    -8.1883482265240321E-033
  -5.2899999999999989E-002    -1.1501094922085643E-032
  -5.1799999999999985E-002    -5.0428289152080978E-033
  -5.0699999999999995E-002     2.1180431290425792E-032
  -4.9599999999999991E-002     6.8897771771893818E-032
  -4.8499999999999988E-002     1.1433370970620084E-031
  -4.7399999999999998E-002     9.4305013648028249E-032
  -4.6299999999999994E-002    -8.0903176711822529E-032
  -4.5199999999999990E-002    -4.6005407032129118E-031
  -4.4099999999999986E-002    -9.2415205137140080E-031
  -4.2999999999999997E-002    -1.0599098702689215E-030
  -4.1899999999999993E-002    -1.8324852983112261E-031
  -4.0799999999999989E-002     2.2891029351925567E-030
  -3.9699999999999985E-002     6.0303941158383031E-030
  -3.8599999999999995E-002     8.8294211876064431E-030
  -3.7499999999999992E-002     6.2845804200927125E-030
  -3.6399999999999988E-002    -6.5822280163633847E-030
  -3.5299999999999984E-002    -3.0901013226596352E-029
  -3.4199999999999994E-002    -5.7588784505707252E-029
  -3.3099999999999991E-002    -6.3024344803714789E-029
  -3.1999999999999987E-002    -1.3707572652984690E-029
  -3.0899999999999997E-002     1.1347465926752905E-028
  -2.9799999999999993E-002     2.9596618847905077E-028
  -2.8699999999999989E-002     4.3099129981683924E-028
  -2.7599999999999986E-002     3.3522092495170546E-028
  -2.6499999999999996E-002    -1.8135957729330254E-028
  -2.5399999999999992E-002    -1.1506162189407639E-027
  -2.4299999999999988E-002    -2.2377230185909096E-027
  -2.3199999999999985E-002    -2.6267383373060400E-027
  -2.2099999999999995E-002    -1.2024446950579397E-027
  -2.0999999999999991E-002     2.8151143337067886E-027
  -1.9899999999999987E-002     8.8546248265289602E-027
  -1.8799999999999983E-002     1.4063352337237559E-026
  -1.7699999999999994E-002     1.3324687371834352E-026
  -1.6599999999999990E-002     1.1469096452402343E-027
  -1.5499999999999986E-002    -2.4291366174364020E-026
  -1.4399999999999996E-002    -5.6123792234318552E-026
  -1.3299999999999992E-002    -7.5872497187501870E-026
  -1.2199999999999989E-002    -5.6847824535540412E-026
  -1.1099999999999985E-002     2.3005714948024809E-026
  -9.9999999999999950E-003     1.6019466637894357E-025
  -8.8999999999999913E-003     3.0541913090404201E-025
  -7.7999999999999875E-003     3.5970669252814098E-025
  -6.6999999999999837E-003     2.0378000209459200E-025
  -5.5999999999999939E-003    -2.3295872609342776E-025
  -4.4999999999999901E-003    -8.8108270871083001E-025
  -3.3999999999999864E-003    -1.4647302109511193E-024
  -2.2999999999999826E-003    -1.5271651194787777E-024
  -1.1999999999999927E-003    -6.0274080587990360E-025
  -9.9999999999988987E-005     1.4707871057576925E-024
   1.0000000000000148E-003     4.2073758331035659E-024
   2.1000000000000185E-003     6.3055703531989084E-024
   3.2000000000000084E-003     5.9030126245524066E-024
   4.3000000000000121E-003     1.3891034540401550E-024
   5.4000000000000159E-003    -7.3621920981575346E-024
   6.5000000000000058E-003    -1.7850725410379894E-023
   7.6000000000000234E-003    -2.4703219768945373E-023
   8.7000000000000133E-003    -2.1089511375028084E-023
   9.8000000000000032E-003    -2.0162813550026067E-024
   1.0900000000000021E-002     3.1339303010955274E-023
   1.2000000000000011E-002     6.8288762995531316E-023
   1.3100000000000001E-002     8.8987966128597869E-023
   1.4200000000000018E-002     7.0595955183870085E-023
   1.5300000000000008E-002    -9.1879372364168739E-025
   1.6400000000000026E-002    -1.1700714688138808E-022
   1.7500000000000016E-002    -2.3785996636534112E-022
   1.8600000000000005E-002    -2.9696693911285028E-022
   1.9700000000000023E-002    -2.2390553799566491E-022
   2.0800000000000013E-002     1.7529985153730859E-023
   2.1900000000000003E-002     3.8930109099536035E-022
   2.3000000000000020E-002     7.5910248989769784E-022
   2.4100000000000010E-002     9.2257160033918741E-022
   2.5200000000000000E-002     6.7771574854659764E-022
   2.6300000000000018E-002    -6.2732118134350281E-023
   2.7400000000000008E-002    -1.1638682043710480E-021
   2.8500000000000025E-002    -2.2277504829946738E-021
   2.9600000000000015E-002    -2.6745719485539620E-021
   3.0700000000000005E-002    -1.9615100387637018E-021
   3.1800000000000023E-002     1.1241354066484496E-022
   3.2900000000000013E-002     3.1377385577878129E-021
   3.4000000000000002E-002     6.0214862981638089E-021
   3.5100000000000020E-002     7.2370554608729199E-021
   3.6200000000000010E-002     5.4109149916313514E-021
   3.7300000000000028E-002     8.9541172819934260E-023
   3.8400000000000017E-002    -7.6308318799673302E-021
   3.9500000000000007E-002    -1.4991874882775811E-020
   4.0600000000000025E-002    -1.8250250757992716E-020
   4.1700000000000015E-002    -1.4124178019628108E-020
   4.2800000000000005E-002    -1.5921574497033929E-021
   4.3900000000000022E-002     1.6713698374395605E-020
   4.5000000000000012E-002     3.4365453394951510E-020
   4.6100000000000002E-002     4.2791058262006114E-020
   4.7200000000000020E-002     3.4578247988386871E-020
   4.8300000000000010E-002     7.4270122379499750E-021
   4.9400000000000027E-002    -3.2926110826489643E-020
   5.0500000000000017E-002    -7.2576117631925281E-020
   5.1600000000000007E-002    -9.3133162616679940E-020
   5.2700000000000025E-002    -7.8761214406433660E-020
   5.3800000000000014E-002    -2.4359910006018409E-020
   5.4900000000000004E-002     5.8580470714496905E-020
   5.6000000000000022E-002     1.4193145080978749E-019
   5.7100000000000012E-002     1.8853156981053588E-019
   5.8200000000000002E-002     1.6628846696413449E-019
   5.9300000000000019E-002     6.4257038608496209E-020
   6.0400000000000009E-002    -9.6085010318354872E-020
   6.1500000000000027E-002    -2.6092193251545841E-019
   6.2600000000000017E-002    -3.5880054765882331E-019
   6.3700000000000007E-002    -3.2747664795664278E-019
   6.4800000000000024E-002    -1.4425103162279027E-019
   6.5900000000000014E-002     1.5282798731320138E-019
   6.7000000000000004E-002     4.6487191942705439E-019
   6.8100000000000022E-002     6.5896282340415608E-019
   6.9200000000000012E-002     6.1728568839521898E-019
   7.0300000000000029E-002     2.9294900535079051E-019
   7.1400000000000019E-002    -2.5015204439811938E-019
   7.2500000000000009E-002    -8.3498271992420925E-019
   7.3600000000000027E-002    -1.2173757228261169E-018
   7.4700000000000016E-002    -1.1732159959961965E-018
   7.5800000000000006E-002    -6.0023173599012345E-019
   7.6900000000000024E-002     4.0503145883769691E-019
   7.8000000000000014E-002     1.5338682408031211E-018
   7.9100000000000004E-002     2.3375698920259761E-018
   8.0200000000000021E-002     2.3769975078314623E-018
   8.1300000000000011E-002     1.4077644577267028E-018
   8.2400000000000029E-002    -4.6540251425357041E-019
   8.3500000000000019E-002    -2.7352194579326175E-018
   8.4600000000000009E-002    -4.5861198476429686E-018
   8.5700000000000026E-002    -5.1360534573708060E-018
   8.6800000000000016E-002    -3.7679882468833572E-018
   8.7900000000000006E-002    -4.4498654885868717E-019
   8.9000000000000024E-002     4.1162024370031281E-018
   9.0100000000000013E-002     8.5140494277043177E-018
   9.1200000000000003E-002     1.1007825783796926E-017
   9.2300000000000021E-002     1.0079654823457018E-017
   9.3400000000000011E-002     5.0594262565685683E-018
   9.4500000000000028E-002    -3.3998184396902376E-018
   9.5600000000000018E-002    -1.3204409359510518E-017
   9.6700000000000008E-002    -2.1190361417562908E-017
   9.7800000000000026E-002    -2.3969466870258584E-017
   9.8900000000000016E-002    -1.9069722717152683E-017
  0.10000000000000001         -6.0434763379523440E-018
  0.10110000000000002          1.2849108295366520E-017
  0.10220000000000001          3.2720433817989900E-017
  0.10330000000000003          4.7057673332750014E-017
  0.10440000000000002          4.9528057149106872E-017
  0.10550000000000001          3.6167378774895546E-017
  0.10660000000000003          7.3022508761690148E-018
  0.10770000000000002         -3.1506685408123018E-017
  0.10880000000000001         -7.0050772489977456E-017
  0.10990000000000003         -9.5750690511186897E-017
  0.11100000000000002         -9.7252895401899559E-017
  0.11210000000000001         -6.8440062378203941E-017
  0.11320000000000002         -1.1602251067355732E-017
  0.11430000000000001          6.1482503328158217E-017
  0.11540000000000003          1.3137732546386842E-016
  0.11650000000000002          1.7572959425082626E-016
  0.11760000000000001          1.7593376545714785E-016
  0.11870000000000003          1.2384825962657731E-016
  0.11980000000000002          2.6297097148758384E-017
  0.12090000000000001         -9.4599089249953285E-017
  0.12200000000000003         -2.0614048755159914E-016
  0.12310000000000001         -2.7407436536108603E-016
  0.12420000000000003         -2.7351521090194799E-016
  0.12530000000000002         -1.9822031879550030E-016
  0.12640000000000001         -6.4649609054919783E-017
  0.12750000000000003          9.1454035063013519E-017
  0.12860000000000002          2.2580163482448076E-016
  0.12970000000000001          3.0060802226071801E-016
  0.13080000000000003          2.9872753934121089E-016
  0.13190000000000002          2.3106022853650619E-016
  0.13300000000000001          1.3307175471567460E-016
  0.13410000000000000          5.0008364267468197E-017
  0.13520000000000004          1.5155201712672650E-017
  0.13630000000000003          2.9551407716573404E-017
  0.13740000000000002          5.3057075267417883E-017
  0.13850000000000001          1.4272273369531121E-017
  0.13960000000000000         -1.5949790027795032E-016
  0.14070000000000005         -4.9967396632288756E-016
  0.14180000000000004         -9.5668156544713712E-016
  0.14290000000000003         -1.3823956569825409E-015
  0.14400000000000002         -1.5509978620551000E-015
  0.14510000000000001         -1.2237170042832629E-015
  0.14620000000000000         -2.4653829584171751E-016
  0.14730000000000004          1.3471332442575234E-015
  0.14840000000000003          3.2681783708615746E-015
  0.14950000000000002          4.9766498821247291E-015
  0.15060000000000001          5.7831833600307258E-015
  0.15170000000000000          5.0415300715251479E-015
  0.15280000000000005          2.3918253220455149E-015
  0.15390000000000004         -2.0159491862414617E-015
  0.15500000000000003         -7.4020812748833104E-015
  0.15610000000000002         -1.2412027207220765E-014
  0.15720000000000001         -1.5376996282310887E-014
  0.15830000000000000         -1.4750394876223608E-014
  0.15940000000000004         -9.6250646942300830E-015
  0.16050000000000003         -1.8721917044594629E-016
  0.16160000000000002          1.2050266945714031E-014
  0.16270000000000001          2.4358540456473234E-014
  0.16380000000000000          3.3290998386611124E-014
  0.16490000000000005          3.5504026751425550E-014
  0.16600000000000004          2.8726126673648405E-014
  0.16710000000000003          1.2625298097397554E-014
  0.16820000000000002         -1.0690437994139270E-014
  0.16930000000000001         -3.6744724591668112E-014
  0.17040000000000000         -5.9414944495266783E-014
  0.17150000000000004         -7.2216097713565668E-014
  0.17260000000000003         -6.9894155728442802E-014
  0.17370000000000002         -4.9961754438261012E-014
  0.17480000000000001         -1.3779240332715482E-014
  0.17590000000000000          3.3145710335870561E-014
  0.17700000000000005          8.1807788849039318E-014
  0.17810000000000004          1.2125853071052301E-013
  0.17920000000000003          1.4080621679250098E-013
  0.18030000000000002          1.3243562061035326E-013
  0.18140000000000001          9.2944757265234627E-014
  0.18250000000000000          2.5323643148584495E-014
  0.18360000000000004         -6.0974233772296978E-014
  0.18470000000000003         -1.5102283512435977E-013
  0.18580000000000002         -2.2660896508573306E-013
  0.18690000000000001         -2.6933217399284012E-013
  0.18800000000000000         -2.6416836154464849E-013
  0.18910000000000005         -2.0293529951891900E-013
  0.19020000000000004         -8.7054970636389283E-014
  0.19130000000000003          7.0965501914911773E-014
  0.19240000000000002          2.4780910453267361E-013
  0.19350000000000001          4.1167050194527262E-013
  0.19460000000000005          5.2664098544598213E-013
  0.19570000000000004          5.5882190873051627E-013
  0.19680000000000003          4.8343054197230314E-013
  0.19790000000000002          2.9177527413470707E-013
  0.19900000000000001         -3.3065562126981951E-015
  0.20010000000000000         -3.6502928651403605E-013
  0.20120000000000005         -7.3451965676230307E-013
  0.20230000000000004         -1.0376543805581519E-012
  0.20340000000000003         -1.1966963951425017E-012
  0.20450000000000002         -1.1454779464687742E-012
  0.20560000000000000         -8.4580416057461007E-013
  0.20670000000000005         -3.0191782978524565E-013
  0.20780000000000004          4.3047809506741943E-013
  0.20890000000000003          1.2438097238416545E-012
  0.21000000000000002          1.9889171927997671E-012
  0.21110000000000001          2.4963454151370943E-012
  0.21220000000000000          2.6067246515261998E-012
  0.21330000000000005          2.2060042753174424E-012
  0.21440000000000003          1.2593560387620176E-012
  0.21550000000000002         -1.6355506026173122E-013
  0.21660000000000001         -1.8790961561251280E-012
  0.21770000000000000         -3.6015359909059696E-012
  0.21880000000000005         -4.9786841367615340E-012
  0.21990000000000004         -5.6493916598544682E-012
  0.22100000000000003         -5.3160486101442758E-012
  0.22210000000000002         -3.8204937670633783E-012
  0.22320000000000001         -1.2083253936794159E-012
  0.22430000000000000          2.2345100779376927E-012
  0.22540000000000004          5.9869433905705068E-012
  0.22650000000000003          9.3483595363720832E-012
  0.22760000000000002          1.1544334317190501E-011
  0.22870000000000001          1.1871530829976641E-011
  0.22980000000000000          9.8597574833545033E-012
  0.23090000000000005          5.4204292256384717E-012
  0.23200000000000004         -1.0533457486672064E-012
  0.23310000000000003         -8.6670249429080628E-012
  0.23420000000000002         -1.6106700838420922E-011
  0.23530000000000001         -2.1826757192338287E-011
  0.23640000000000000         -2.4324599000519536E-011
  0.23750000000000004         -2.2461069714086643E-011
  0.23860000000000003         -1.5766863537410345E-011
  0.23970000000000002         -4.6666307182306942E-012
  0.24080000000000001          9.4425731100838075E-012
  0.24190000000000000          2.4301845198033044E-011
  0.24300000000000005          3.7100115103235283E-011
  0.24410000000000004          4.4951705368661364E-011
  0.24520000000000003          4.5469112564005343E-011
  0.24630000000000002          3.7326095579640588E-011
  0.24740000000000001          2.0691868146681312E-011
  0.24850000000000005         -2.5733246047455158E-012
  0.24960000000000004         -2.9036255308691953E-011
  0.25070000000000003         -5.4141729433029835E-011
  0.25180000000000002         -7.2948804643545649E-011
  0.25290000000000001         -8.1039162488295966E-011
  0.25400000000000000         -7.5435647275619722E-011
  0.25510000000000005         -5.5348610648008659E-011
  0.25620000000000004         -2.2583618786693025E-011
  0.25730000000000003          1.8504345354598242E-011
  0.25840000000000002          6.1544824726374355E-011
  0.25950000000000001          9.9115331126061138E-011
  0.26060000000000005          1.2398708311302659E-010
  0.26170000000000004          1.3044114401665355E-010
  0.26280000000000003          1.1541641222260102E-010
  0.26390000000000002          7.9269538797211568E-011
  0.26500000000000001          2.5988028450384532E-011
  0.26610000000000000         -3.7209316194045184E-011
  0.26720000000000005         -1.0084388180784353E-010
  0.26830000000000004         -1.5457992114489663E-010
  0.26940000000000003         -1.8884264621102231E-010
  0.27050000000000002         -1.9639863639382840E-010
  0.27160000000000001         -1.7365034577983892E-010
  0.27270000000000005         -1.2143995510422605E-010
  0.27380000000000004         -4.5229672306462662E-011
  0.27490000000000003          4.5387584665227411E-011
  0.27600000000000002          1.3780491908510694E-010
  0.27710000000000001          2.1802380401310907E-010
  0.27820000000000000          2.7259581889667435E-010
  0.27930000000000005          2.9065126731631869E-010
  0.28040000000000004          2.6575511669619968E-010
  0.28150000000000003          1.9732504197122957E-010
  0.28260000000000002          9.1366409335509063E-011
  0.28370000000000001         -3.9670537365037134E-011
  0.28480000000000005         -1.7801848965040705E-010
  0.28590000000000004         -3.0268994652134937E-010
  0.28700000000000003         -3.9237451596961684E-010
  0.28810000000000002         -4.2880584352093731E-010
  0.28920000000000001         -4.0012313850155734E-010
  0.29030000000000000         -3.0366159681745284E-010
  0.29140000000000005         -1.4760197171422178E-010
  0.29250000000000004          4.8988238660386719E-011
  0.29360000000000003          2.5797460538805455E-010
  0.29470000000000002          4.4578864198496506E-010
  0.29580000000000001          5.7848243898550368E-010
  0.29690000000000005          6.2749441900577534E-010
  0.29800000000000004          5.7518701882026934E-010
  0.29910000000000003          4.1914235331761489E-010
  0.30020000000000002          1.7430821423206992E-010
  0.30130000000000001         -1.2761951302188530E-010
  0.30240000000000000         -4.4175894088470241E-010
  0.30350000000000005         -7.1622144896553235E-010
  0.30460000000000004         -9.0009389364287726E-010
  0.30570000000000003         -9.5203022831545646E-010
  0.30680000000000002         -8.4806233876173270E-010
  0.30790000000000001         -5.8726788599964650E-010
  0.30900000000000005         -1.9419064803540880E-010
  0.31010000000000004          2.8264130351693805E-010
  0.31120000000000003          7.7616907907765635E-010
  0.31230000000000002          1.2096678395437742E-009
  0.31340000000000001          1.5078791070276228E-009
  0.31450000000000006          1.6088219144328746E-009
  0.31560000000000005          1.4744629945492065E-009
  0.31670000000000004          1.0984718026678099E-009
  0.31780000000000003          5.0961887016065592E-010
  0.31890000000000002         -2.3002108441083955E-010
  0.32000000000000001         -1.0321005041833734E-009
  0.32110000000000005         -1.7934236946713980E-009
  0.32220000000000004         -2.4101151281952528E-009
  0.32330000000000003         -2.7922982244788975E-009
  0.32440000000000002         -2.8768373257442207E-009
  0.32550000000000001         -2.6359270424956404E-009
  0.32660000000000006         -2.0800028397104960E-009
  0.32770000000000005         -1.2544947269054984E-009
  0.32880000000000004         -2.3118148204263970E-010
  0.32990000000000003          9.0393162755022254E-010
  0.33100000000000002          2.0634525862970202E-009
  0.33210000000000001          3.1691271807126116E-009
  0.33320000000000005          4.1574334966170270E-009
  0.33430000000000004          4.9787176967926085E-009
  0.33540000000000003          5.5899199884891201E-009
  0.33650000000000002          5.9426826802268906E-009
  0.33760000000000001          5.9701353251129486E-009
  0.33870000000000006          5.5765376962140538E-009
  0.33980000000000005          4.6339816487934432E-009
  0.34090000000000004          2.9894377330196542E-009
  0.34200000000000003          4.8374397865960570E-010
  0.34310000000000002         -3.0179445037555255E-009
  0.34420000000000001         -7.5867945470955110E-009
  0.34530000000000005         -1.3186126113413371E-008
  0.34640000000000004         -1.9627352679140182E-008
  0.34750000000000003         -2.6530785591517692E-008
  0.34860000000000002         -3.3295128201883456E-008
  0.34970000000000001         -3.9077802351193972E-008
  0.35080000000000006         -4.2786294604839643E-008
  0.35190000000000005         -4.3078536063931515E-008
  0.35300000000000004         -3.8368538292349169E-008
  0.35410000000000003         -2.6831678098559008E-008
  0.35520000000000002         -6.4027658682541292E-009
  0.35630000000000001          2.5240654642472270E-008
  0.35740000000000005          7.0718256436971606E-008
  0.35850000000000004          1.3301876881342238E-007
  0.35960000000000003          2.1561233302418285E-007
  0.36070000000000002          3.2261155539778269E-007
  0.36180000000000001          4.5898857607343059E-007
  0.36290000000000006          6.3085322212423062E-007
  0.36400000000000005          8.4579560832565343E-007
  0.36510000000000004          1.1132933502368097E-006
  0.36620000000000003          1.4451826864281951E-006
  0.36730000000000002          1.8561902750180499E-006
  0.36840000000000006          2.3645276059308528E-006
  0.36950000000000005          2.9925491304561716E-006
  0.37060000000000004          3.7674826225510591E-006
  0.37170000000000003          4.7222476157734104E-006
  0.37280000000000002          5.8963837617786230E-006
  0.37390000000000001          7.3371125043047117E-006
  0.37500000000000006          9.1005640427386402E-006
  0.37610000000000005          1.1253200328921988E-005
  0.37720000000000004          1.3873454729327280E-005
  0.37830000000000003          1.7053612619345688E-005
  0.37940000000000002          2.0901942430615984E-005
  0.38050000000000006          2.5545101503938254E-005
  0.38160000000000005          3.1130782536987610E-005
  0.38270000000000004          3.7830633321170520E-005
  0.38380000000000003          4.5843410686792728E-005
  0.38490000000000002          5.5398395855186277E-005
  0.38600000000000001          6.6759012382572400E-005
  0.38710000000000000          8.0226705215511530E-005
  0.38819999999999999          9.6144976167882550E-005
  0.38930000000000009          1.1490361408279982E-004
  0.39040000000000008          1.3694307789795194E-004
  0.39150000000000007          1.6275895557255236E-004
  0.39260000000000006          1.9290641310989776E-004
  0.39370000000000005          2.2800460612309894E-004
  0.39480000000000004          2.6874082286998152E-004
  0.39590000000000003          3.1587441772627323E-004
  0.39700000000000002          3.7024020971164576E-004
  0.39810000000000001          4.3275123506582877E-004
  0.39920000000000000          5.0440066050859802E-004
  0.40029999999999999          5.8626286544306958E-004
  0.40140000000000009          6.7949306759812760E-004
  0.40250000000000008          7.8532564199992210E-004
  0.40360000000000007          9.0507066279861656E-004
  0.40470000000000006          1.0401087537490849E-003
  0.40580000000000005          1.1918833961986842E-003
  0.40690000000000004          1.3618914053819947E-003
  0.40800000000000003          1.5516704826593637E-003
  0.40910000000000002          1.7627839571063681E-003
  0.41020000000000001          1.9968031823465581E-003
  0.41130000000000000          2.2552860335325279E-003
  0.41239999999999999          2.5397535732518636E-003
  0.41350000000000009          2.8516619576728548E-003
  0.41460000000000008          3.1923729925262740E-003
  0.41570000000000007          3.5631199337272752E-003
  0.41680000000000006          3.9649722306990542E-003
  0.41790000000000005          4.3987959559436225E-003
  0.41900000000000004          4.8652142746458170E-003
  0.42010000000000003          5.3645630574731713E-003
  0.42120000000000002          5.8968497151057559E-003
  0.42230000000000001          6.4617066931544221E-003
  0.42340000000000000          7.0583503507816890E-003
  0.42449999999999999          7.6855385786194341E-003
  0.42560000000000009          8.3415302922612393E-003
  0.42670000000000008          9.0240513705548194E-003
  0.42780000000000007          9.7302601337294937E-003
  0.42890000000000006          1.0456723456611515E-002
  0.43000000000000005          1.1199397539110825E-002
  0.43110000000000004          1.1953616602833762E-002
  0.43220000000000003          1.2714087233596974E-002
  0.43330000000000002          1.3474901078685450E-002
  0.43440000000000001          1.4229546720058328E-002
  0.43550000000000000          1.4970944360244754E-002
  0.43659999999999999          1.5691484804994354E-002
  0.43770000000000009          1.6383083376781155E-002
  0.43880000000000008          1.7037251153193884E-002
  0.43990000000000007          1.7645165926158172E-002
  0.44100000000000006          1.8197775282404939E-002
  0.44210000000000005          1.8685890166788427E-002
  0.44320000000000004          1.9100304775915077E-002
  0.44430000000000003          1.9431918024071813E-002
  0.44540000000000002          1.9671862533935141E-002
  0.44650000000000001          1.9811645230076797E-002
  0.44760000000000000          1.9843282554674789E-002
  0.44869999999999999          1.9759446098654574E-002
  0.44980000000000009          1.9553605944453493E-002
  0.45090000000000008          1.9220165336680591E-002
  0.45200000000000007          1.8754590856145774E-002
  0.45310000000000006          1.8153534169373136E-002
  0.45420000000000005          1.7414943033580581E-002
  0.45530000000000004          1.6538154507538184E-002
  0.45640000000000003          1.5523978105561623E-002
  0.45750000000000002          1.4374750463056371E-002
  0.45860000000000001          1.3094372026514929E-002
  0.45970000000000000          1.1688322915449818E-002
  0.46079999999999999          1.0163652603316992E-002
  0.46190000000000009          8.5289446490770839E-003
  0.46300000000000008          6.7942579220596471E-003
  0.46410000000000007          4.9710402142718480E-003
  0.46520000000000006          3.0720208529260292E-003
  0.46630000000000005          1.1110786930430805E-003
  0.46740000000000004         -8.9691160312792739E-004
  0.46850000000000003         -2.9362511121135515E-003
  0.46960000000000002         -4.9906066378680985E-003
  0.47070000000000001         -7.0432126335913019E-003
  0.47180000000000000         -9.0770824770983246E-003
  0.47289999999999999         -1.1075228697311512E-002
  0.47400000000000009         -1.3020880568710900E-002
  0.47510000000000008         -1.4897704265412010E-002
  0.47620000000000007         -1.6690015882078385E-002
  0.47730000000000006         -1.8382986501638731E-002
  0.47840000000000005         -1.9962836682946298E-002