 -0.12000000000000000          0.0000000000000000     
 -0.11889999999999999          0.0000000000000000     
 -0.11780000000000000          0.0000000000000000     
 -0.11670000000000000          0.0000000000000000     
 -0.11559999999999999          0.0000000000000000     
 -0.11449999999999999          0.0000000000000000     
 -0.11340000000000000          0.0000000000000000     
 -0.11230000000000000          0.0000000000000000     
 -0.11119999999999999          0.0000000000000000     
 -0.11009999999999999          0.0000000000000000     
 -0.10900000000000000          0.0000000000000000     
 -0.10790000000000000         -2.7092933505040911E-036
 -0.10679999999999999          1.8808102684613197E-035
 -0.10569999999999999          5.7050291879781529E-033
 -0.10460000000000000          9.6891811562645305E-032
 -0.10349999999999999          8.2451164197074393E-031
 -0.10239999999999999          4.4688899187586796E-030
 -0.10130000000000000          1.6417860689927997E-029
 -0.10020000000000000          3.8016491172738302E-029
  -9.9099999999999994E-002     2.2330365708475365E-029
  -9.7999999999999990E-002    -2.5087342557816568E-028
  -9.6899999999999986E-002    -1.3486853013251837E-027
  -9.5799999999999996E-002    -4.0350663350597468E-027
  -9.4699999999999993E-002    -7.7466674838336544E-027
  -9.3599999999999989E-002    -6.2344454298015396E-027
  -9.2499999999999999E-002     1.9154197662056730E-026
  -9.1399999999999995E-002     1.0055540967242123E-025
  -9.0299999999999991E-002     2.5733270618332941E-025
  -8.9200000000000002E-002     4.1176262223714166E-025
  -8.8099999999999984E-002     2.4281722556439958E-025
  -8.6999999999999994E-002    -9.1887562848868733E-025
  -8.5899999999999990E-002    -3.8557924762121288E-024
  -8.4799999999999986E-002    -8.4252903409896197E-024
  -8.3699999999999997E-002    -1.1463299886144747E-023
  -8.2599999999999993E-002    -4.4356649255096900E-024
  -8.1499999999999989E-002     2.6248852890821341E-023
  -8.0399999999999999E-002     9.1111743271243515E-023
  -7.9299999999999995E-002     1.7694805965175377E-022
  -7.8199999999999992E-002     2.1633877981631408E-022
  -7.7100000000000002E-002     6.7291725502862895E-023
  -7.5999999999999984E-002    -4.5435372988486734E-022
  -7.4899999999999994E-002    -1.4369447588424311E-021
  -7.3799999999999991E-002    -2.6101639519060019E-021
  -7.2699999999999987E-002    -3.0443834269830215E-021
  -7.1599999999999997E-002    -1.0711289948866220E-021
  -7.0499999999999993E-002     5.1652196811800688E-021
  -6.9399999999999989E-002     1.6164807494333432E-020
  -6.8300000000000000E-002     2.8648817241871937E-020
  -6.7199999999999996E-002     3.3342916034602314E-020
  -6.6099999999999992E-002     1.5261654991262185E-020
  -6.5000000000000002E-002    -4.0598576462484702E-020
  -6.3899999999999985E-002    -1.3646795808555835E-019
  -6.2799999999999995E-002    -2.4429816509640951E-019
  -6.1699999999999991E-002    -2.9256679880135846E-019
  -6.0599999999999994E-002    -1.7286829689809126E-019
  -5.9499999999999990E-002     2.1737714247280643E-019
  -5.8399999999999994E-002     8.9086036293162252E-019
  -5.7299999999999990E-002     1.6659313418424116E-018
  -5.6199999999999986E-002     2.0985819615341670E-018
  -5.5099999999999996E-002     1.5354845309906995E-018
  -5.3999999999999992E-002    -6.3516308417066458E-019
  -5.2899999999999989E-002    -4.5275673253680443E-018
  -5.1799999999999985E-002    -9.2243986031729145E-018
  -5.0699999999999995E-002    -1.2454171816113108E-017
  -4.9599999999999991E-002    -1.0870432673105196E-017
  -4.8499999999999988E-002    -1.2488061181367223E-018
  -4.7399999999999998E-002     1.7418607574166298E-017
  -4.6299999999999994E-002     4.1530694255079675E-017
  -4.5199999999999990E-002     6.1417892848706095E-017
  -4.4099999999999986E-002     6.2378581561540189E-017
  -4.2999999999999997E-002     2.9396412679910761E-017
  -4.1899999999999993E-002    -4.4610850310457066E-017
  -4.0799999999999989E-002    -1.4928831460983015E-016
  -3.9699999999999985E-002    -2.5055493352305211E-016
  -3.8599999999999995E-002    -2.9304297929452443E-016
  -3.7499999999999992E-002    -2.1541608696570332E-016
  -3.6399999999999988E-002     2.1700423732899305E-017
  -3.5299999999999984E-002     4.0223490520088046E-016
  -3.4199999999999994E-002     8.2953829590657520E-016
  -3.3099999999999991E-002     1.1268775603050181E-015
  -3.1999999999999987E-002     1.0772062308943013E-015
  -3.0899999999999997E-002     5.0364739518695391E-016
  -2.9799999999999993E-002    -6.2674010982429995E-016
  -2.8699999999999989E-002    -2.1127564586646887E-015
  -2.7599999999999986E-002    -3.4902378218800047E-015
  -2.6499999999999996E-002    -4.1062536058201402E-015
  -2.5399999999999992E-002    -3.3103917005179004E-015
  -2.4299999999999988E-002    -7.3211272159547964E-016
  -2.3199999999999985E-002     3.4363761104228822E-015
  -2.2099999999999995E-002     8.2667562766441708E-015
  -2.0999999999999991E-002     1.2145521647105798E-014
  -1.9899999999999987E-002     1.3117450008109593E-014
  -1.8799999999999983E-002     9.5005032575239469E-015
  -1.7699999999999994E-002     6.3980975737123629E-016
  -1.6599999999999990E-002    -1.2429827613619816E-014
  -1.5499999999999986E-002    -2.6689394801678121E-014
  -1.4399999999999996E-002    -3.7448122270774131E-014
  -1.3299999999999992E-002    -3.9370307796573108E-014
  -1.2199999999999989E-002    -2.8114433681091903E-014
  -1.1099999999999985E-002    -2.2401310170936970E-015
  -9.9999999999999950E-003     3.5170392361650425E-014
  -8.8999999999999913E-003     7.5829851826030919E-014
  -7.7999999999999875E-003     1.0707907780955825E-013
  -6.6999999999999837E-003     1.1452120325926048E-013
  -5.5999999999999939E-003     8.6247859408568089E-014
  -4.4999999999999901E-003     1.7833389867568218E-014
  -3.3999999999999864E-003    -8.3306061869552423E-014
  -2.2999999999999826E-003    -1.9592040195546251E-013
  -1.1999999999999927E-003    -2.8688973868922652E-013
  -9.9999999999988987E-005    -3.1797263440895562E-013
   1.0000000000000148E-003    -2.5680733143834274E-013
   2.1000000000000185E-003    -8.9934005129911690E-014
   3.2000000000000084E-003     1.6593745450975512E-013
   4.3000000000000121E-003     4.5894098295107666E-013
   5.4000000000000159E-003     7.0725769086281850E-013
   6.5000000000000058E-003     8.1616913876068591E-013
   7.6000000000000234E-003     7.0501577907778923E-013
   8.7000000000000133E-003     3.3803952532609210E-013
   9.8000000000000032E-003    -2.5011348418614268E-013
   1.0900000000000021E-002    -9.4436124313423425E-013
   1.2000000000000011E-002    -1.5623893394474524E-012
   1.3100000000000001E-002    -1.8931660653685455E-012
   1.4200000000000018E-002    -1.7549930394868360E-012
   1.5300000000000008E-002    -1.0594636008844565E-012
   1.6400000000000026E-002     1.3745673531653105E-013
   1.7500000000000016E-002     1.6162149063021197E-012
   1.8600000000000005E-002     3.0194675018564397E-012
   1.9700000000000023E-002     3.9249226473393535E-012
   2.0800000000000013E-002     3.9534197991521865E-012
   2.1900000000000003E-002     2.8876872957195813E-012
   2.3000000000000020E-002     7.6952672189199081E-013
   2.4100000000000010E-002    -2.0564652563423654E-012
   2.5200000000000000E-002    -4.9750950800381609E-012
   2.6300000000000018E-002    -7.2140310181824274E-012
   2.7400000000000008E-002    -8.0226178710502901E-012
   2.8500000000000025E-002    -6.8797646169375695E-012
   2.9600000000000015E-002    -3.6804793470633716E-012
   3.0700000000000005E-002     1.1528752303926545E-012
   3.1800000000000023E-002     6.6786999957220802E-012
   3.2900000000000013E-002     1.1584722221531585E-011
   3.4000000000000002E-002     1.4465036749355399E-011
   3.5100000000000020E-002     1.4176931521376080E-011
   3.6200000000000010E-002     1.0197165908452107E-011
   3.7300000000000028E-002     2.8805068104406026E-012
   3.8400000000000017E-002    -6.4703635943600123E-012
   3.9500000000000007E-002    -1.5781014996597135E-011
   4.0600000000000025E-002    -2.2627249866078030E-011
   4.1700000000000015E-002    -2.4831874628247484E-011
   4.2800000000000005E-002    -2.1099755634222783E-011
   4.3900000000000022E-002    -1.1516038154858911E-011
   4.5000000000000012E-002     2.2609940326702163E-012
   4.6100000000000002E-002     1.7221222847804123E-011
   4.7200000000000020E-002     2.9641829726741244E-011
   4.8300000000000010E-002     3.6022169052895797E-011
   4.9400000000000027E-002     3.4082480376175186E-011
   5.0500000000000017E-002     2.3539395007340055E-011
   5.1600000000000007E-002     6.3978946787633961E-012
   5.2700000000000025E-002    -1.3387453258314406E-011
   5.3800000000000014E-002    -3.0853422667855442E-011
   5.4900000000000004E-002    -4.1352795678672873E-011
   5.6000000000000022E-002    -4.1900575617217708E-011
   5.7100000000000012E-002    -3.2134497526043993E-011
   5.8200000000000002E-002    -1.4562547451445396E-011
   5.9300000000000019E-002     6.0371576163047638E-012
   6.0400000000000009E-002     2.3944596443644415E-011
   6.1500000000000027E-002     3.4195175648927703E-011
   6.2600000000000017E-002     3.4141065016000186E-011
   6.3700000000000007E-002     2.4373789151587512E-011
   6.4800000000000024E-002     8.6670958140267017E-012
   6.5900000000000014E-002    -7.1179845911260162E-012
   6.7000000000000004E-002    -1.6899991218972682E-011
   6.8100000000000022E-002    -1.6482371242616190E-011
   6.9200000000000012E-002    -5.2390490598042534E-012
   7.0300000000000029E-002     1.3211498134942902E-011
   7.1400000000000019E-002     3.1682684784926365E-011
   7.2500000000000009E-002     4.1406160577959555E-011
   7.3600000000000027E-002     3.4879290185381829E-011
   7.4700000000000016E-002     8.8018892362420571E-012
   7.5800000000000006E-002    -3.3808981935265367E-011
   7.6900000000000024E-002    -8.3133080229859568E-011
   7.8000000000000014E-002    -1.2414623092233274E-010
   7.9100000000000004E-002    -1.4022440425661944E-010
   8.0200000000000021E-002    -1.1806523419128724E-010
   8.1300000000000011E-002    -5.2716657159059577E-011
   8.2400000000000029E-002     4.8777569535673373E-011
   8.3500000000000019E-002     1.6651374900652551E-010
   8.4600000000000009E-002     2.7052664795514212E-010
   8.5700000000000026E-002     3.2724328870942420E-010
   8.6800000000000016E-002     3.0850036185066030E-010
   8.7900000000000006E-002     2.0102813033576641E-010
   8.9000000000000024E-002     1.3699453702910448E-011
   9.0100000000000013E-002    -2.2008530600790762E-010
   9.1200000000000003E-002    -4.4662437430449134E-010
   9.2300000000000021E-002    -6.0289601185747094E-010
   9.3400000000000011E-002    -6.3245485248750821E-010
   9.4500000000000028E-002    -5.0256960649575488E-010
   9.5600000000000018E-002    -2.1784628162752997E-010
   9.6700000000000008E-002     1.7426680982887168E-010
   9.7800000000000026E-002     5.8912308501124161E-010
   9.8900000000000016E-002     9.2194038518355643E-010
  0.10000000000000001          1.0732456203092708E-009
  0.10110000000000002          9.7673910007322079E-010
  0.10220000000000001          6.2202465260905889E-010
  0.10330000000000003          6.5065544127095811E-011
  0.10440000000000002         -5.7819837412777354E-010
  0.10550000000000001         -1.1554002641273702E-009
  0.10660000000000003         -1.5139511164289163E-009
  0.10770000000000002         -1.5413091209773527E-009
  0.10880000000000001         -1.1986785678845591E-009
  0.10990000000000003         -5.3828393211920960E-010
  0.11100000000000002          3.0200400179802386E-010
  0.11210000000000001          1.1272320861789821E-009
  0.11320000000000002          1.7313799551995261E-009
  0.11430000000000001          1.9499211452096426E-009
  0.11540000000000003          1.7054731290359754E-009
  0.11650000000000002          1.0339858793609673E-009
  0.11760000000000001          8.3240257057654852E-011
  0.11870000000000003         -9.1781988445430982E-010
  0.11980000000000002         -1.7128803640924957E-009
  0.12090000000000001         -2.0827543438492552E-009
  0.12200000000000003         -1.9046447327087968E-009
  0.12310000000000001         -1.1905915085750536E-009
  0.12420000000000003         -9.3877704925308308E-011
  0.12530000000000002          1.1203659512709827E-009
  0.12640000000000001          2.1352219232926254E-009
  0.12750000000000003          2.6593985043974548E-009
  0.12860000000000002          2.5033120353298364E-009
  0.12970000000000001          1.6341787273891315E-009
  0.13080000000000003          1.9448058780967291E-010
  0.13190000000000002         -1.5234015717977434E-009
  0.13300000000000001         -3.1425404256829860E-009
  0.13410000000000000         -4.2919716974053608E-009
  0.13520000000000004         -4.6995970275543917E-009
  0.13630000000000003         -4.2623553611357225E-009
  0.13740000000000002         -3.0730323569004391E-009
  0.13850000000000001         -1.3939159628930860E-009
  0.13960000000000000          4.1773030829683129E-010
  0.14070000000000005          2.0126562758740722E-009
  0.14180000000000004          3.1510309857276308E-009
  0.14290000000000003          3.7700177214973213E-009
  0.14400000000000002          3.9928397976613255E-009
  0.14510000000000001          4.0708394628407670E-009
  0.14620000000000000          4.2707814710901754E-009
  0.14730000000000004          4.7390492321500151E-009
  0.14840000000000003          5.3860826421119586E-009
  0.14950000000000002          5.8339256721607830E-009
  0.15060000000000001          5.4557227774693632E-009
  0.15170000000000000          3.5113642158641126E-009
  0.15280000000000005         -6.4530638993657713E-010
  0.15390000000000004         -7.3367998698087932E-009
  0.15500000000000003         -1.6371196217429176E-008
  0.15610000000000002         -2.6946938681710989E-008
  0.15720000000000001         -3.7688170022178308E-008
  0.15830000000000000         -4.6811908992664592E-008
  0.15940000000000004         -5.2391619397539116E-008
  0.16050000000000003         -5.2652522391045566E-008
  0.16160000000000002         -4.6220579614176300E-008
  0.16270000000000001         -3.2253983687911419E-008
  0.16380000000000000         -1.0412187839012931E-008
  0.16490000000000005          1.9344310797720294E-008
  0.16600000000000004          5.7089539405887163E-008
  0.16710000000000003          1.0333728253225401E-007
  0.16820000000000002          1.5943543314412886E-007
  0.16930000000000001          2.2787624123988282E-007
  0.17040000000000000          3.1247530137738585E-007
  0.17150000000000004          4.1841076424710293E-007
  0.17260000000000003          5.5215806605312497E-007
  0.17370000000000002          7.2138843384953726E-007
  0.17480000000000001          9.3491903986225526E-007
  0.17590000000000000          1.2028006825952792E-006
  0.17700000000000005          1.5366074178995468E-006
  0.17810000000000004          1.9499546724106292E-006
  0.17920000000000003          2.4592310371484048E-006
  0.18030000000000002          3.0844888190623679E-006
  0.18140000000000001          3.8504154815697704E-006
  0.18250000000000000          4.7873007668703555E-006
  0.18360000000000004          5.9319376726598981E-006
  0.18470000000000003          7.3284316502414987E-006
  0.18580000000000002          9.0289418218056648E-006
  0.18690000000000001          1.1094427529605501E-005
  0.18800000000000000          1.3595517668518045E-005
  0.18910000000000005          1.6613619108130628E-005
  0.19020000000000004          2.0242382942484110E-005
  0.19130000000000003          2.4589578404240561E-005
  0.19240000000000002          2.9779377102046035E-005
  0.19350000000000001          3.5954982900755539E-005
  0.19460000000000005          4.3281447010901752E-005
  0.19570000000000004          5.1948553695561519E-005
  0.19680000000000003          6.2173616318847346E-005
  0.19790000000000002          7.4204109760576031E-005
  0.19900000000000001          8.8320101162878606E-005
  0.20010000000000000          1.0483657741018807E-004
  0.20120000000000005          1.2410568765427007E-004
  0.20230000000000004          1.4651906012853766E-004
  0.20340000000000003          1.7251022996512863E-004
  0.20450000000000002          2.0255723953148904E-004
  0.20560000000000000          2.3718510441826505E-004
  0.20670000000000005          2.7696809118946830E-004
  0.20780000000000004          3.2253152762635627E-004
  0.20890000000000003          3.7455269294875046E-004
  0.21000000000000002          4.3376088005987019E-004
  0.21110000000000001          5.0093589781630143E-004
  0.21220000000000000          5.7690565168652598E-004
  0.21330000000000005          6.6254218050311225E-004
  0.21440000000000003          7.5875669397872071E-004
  0.21550000000000002          8.6649322775497045E-004
  0.21660000000000001          9.8672107337771002E-004
  0.21770000000000000          1.1204256857377170E-003
  0.21880000000000005          1.2685983122493396E-003
  0.21990000000000004          1.4322232816094225E-003
  0.22100000000000003          1.6122637817784797E-003
  0.22210000000000002          1.8096447743939079E-003
  0.22320000000000001          2.0252342100702749E-003
  0.22430000000000000          2.2598213699801363E-003
  0.22540000000000004          2.5140948935333499E-003
  0.22650000000000003          2.7886173512490140E-003
  0.22760000000000002          3.0838005444945409E-003
  0.22870000000000001          3.3998789111661905E-003
  0.22980000000000000          3.7368830543463710E-003
  0.23090000000000005          4.0946124684911305E-003
  0.23200000000000004          4.4726104250359996E-003
  0.23310000000000003          4.8701370780720532E-003
  0.23420000000000002          5.2861460238652572E-003
  0.23530000000000001          5.7192621003859081E-003
  0.23640000000000000          6.1677608506115192E-003
  0.23750000000000004          6.6295534106647043E-003
  0.23860000000000003          7.1021740889057154E-003
  0.23970000000000002          7.5827726281006876E-003
  0.24080000000000001          8.0681136747066586E-003
  0.24190000000000000          8.5545801698090011E-003
  0.24300000000000005          9.0381854674724729E-003
  0.24410000000000004          9.5145894507004392E-003
  0.24520000000000003          9.9791265719856737E-003
  0.24630000000000002          1.0426834946399911E-002
  0.24740000000000001          1.0852500682342428E-002
  0.24850000000000005          1.1250701846636339E-002
  0.24960000000000004          1.1615865087906956E-002
  0.25070000000000003          1.1942330844506344E-002
  0.25180000000000002          1.2224419111338876E-002
  0.25290000000000001          1.2456505681006376E-002
  0.25400000000000000          1.2633098946087291E-002
  0.25510000000000005          1.2748921124520763E-002
  0.25620000000000004          1.2798992383997376E-002
  0.25730000000000003          1.2778714432213699E-002
  0.25840000000000002          1.2683957679216023E-002
  0.25950000000000001          1.2511141999007821E-002
  0.26060000000000005          1.2257315772806093E-002
  0.26170000000000004          1.1920229960219162E-002
  0.26280000000000003          1.1498407084200012E-002
  0.26390000000000002          1.0991198400974865E-002
  0.26500000000000001          1.0398832040730721E-002
  0.26610000000000000          9.7224516717171056E-003
  0.26720000000000005          8.9641405907510928E-003
  0.26830000000000004          8.1269338568147297E-003
  0.26940000000000003          7.2148153234426488E-003
  0.27050000000000002          6.2327027683134091E-003
  0.27160000000000001          5.1864173806359017E-003
  0.27270000000000005          4.0826391292368182E-003
  0.27380000000000004          2.9288483250716835E-003
  0.27490000000000003          1.7332533449190848E-003
  0.27600000000000002          5.0470630668289994E-004
  0.27710000000000001         -7.4739322290495107E-004
  0.27820000000000000         -2.0132056017203291E-003
  0.27930000000000005         -3.2825667249879952E-003
  0.28040000000000004         -4.5451115975972175E-003
  0.28150000000000003         -5.7904016151777088E-003
  0.28260000000000002         -7.0080567241909437E-003
  0.28370000000000001         -8.1878824447796216E-003
  0.28480000000000005         -9.3200016814353782E-003
  0.28590000000000004         -1.0394977915624522E-002
  0.28700000000000003         -1.1403935918284014E-002
  0.28810000000000002         -1.2338671193499504E-002
  0.28920000000000001         -1.3191757051146542E-002
  0.29030000000000000         -1.3956634816322894E-002
  0.29140000000000005         -1.4627698262449968E-002
  0.29250000000000004         -1.5200355621004569E-002
  0.29360000000000003         -1.5671088485596226E-002
  0.29470000000000002         -1.6037485810300355E-002
  0.29580000000000001         -1.6298260435375279E-002
  0.29690000000000005         -1.6453256455889027E-002
  0.29800000000000004         -1.6503430810897637E-002
  0.29910000000000003         -1.6450828078242045E-002
  0.30020000000000002         -1.6298536653568802E-002
  0.30130000000000001         -1.6050629367129015E-002
  0.30240000000000000         -1.5712094576575374E-002
  0.30350000000000005         -1.5288749640739077E-002
  0.30460000000000004         -1.4787155528286652E-002
  0.30570000000000003         -1.4214511915949498E-002
  0.30680000000000002         -1.3578550923011551E-002
  0.30790000000000001         -1.2887418295417811E-002
  0.30900000000000005         -1.2149559985768946E-002
  0.31010000000000004         -1.1373597996250652E-002
  0.31120000000000003         -1.0568216207863697E-002
  0.31230000000000002         -9.7420423149375199E-003
  0.31340000000000001         -8.9035370463515784E-003
  0.31450000000000006         -8.0608877591113737E-003
  0.31560000000000005         -7.2219122562881214E-003
  0.31670000000000004         -6.3939680249106273E-003
  0.31780000000000003         -5.5838738834329792E-003
  0.31890000000000002         -4.7978433461692100E-003
  0.32000000000000001         -4.0414296676116145E-003
  0.32110000000000005         -3.3194837422797613E-003
  0.32220000000000004         -2.6361252620397740E-003
  0.32330000000000003         -1.9947251446215224E-003
  0.32440000000000002         -1.3979008229183867E-003
  0.32550000000000001         -8.4752346223117888E-004
  0.32660000000000006         -3.4473649977209957E-004
  0.32770000000000005          1.1001428858305456E-004
  0.32880000000000004          5.1694007283299541E-004
  0.32990000000000003          8.7685897227910055E-004
  0.33100000000000002          1.1911376159804206E-003
  0.33210000000000001          1.4616266397119275E-003
  0.33320000000000005          1.6905913808583457E-003
  0.33430000000000004          1.8806395126797965E-003
  0.33540000000000003          2.0346476206432075E-003
  0.33650000000000002          2.1556884996341364E-003
  0.33760000000000001          2.2469595359419963E-003
  0.33870000000000006          2.3117155448638929E-003
  0.33980000000000005          2.3532046891429504E-003
  0.34090000000000004          2.3746088843866072E-003
  0.34200000000000003          2.3789901350838986E-003
  0.34310000000000002          2.3692419893495712E-003
  0.34420000000000001          2.3480479326408489E-003
  0.34530000000000005          2.3178460728018862E-003
  0.34640000000000004          2.2808032445954547E-003
  0.34750000000000003          2.2387983955214344E-003
  0.34860000000000002          2.1934150540473272E-003
  0.34970000000000001          2.1459429996497224E-003
  0.35080000000000006          2.0973876381329818E-003
  0.35190000000000005          2.0484847331642035E-003
  0.35300000000000004          1.9997209046312982E-003
  0.35410000000000003          1.9513573121077168E-003
  0.35520000000000002          1.9034554947506893E-003
  0.35630000000000001          1.8559074480187696E-003
  0.35740000000000005          1.8084667260091108E-003
  0.35850000000000004          1.7607825831238914E-003
  0.35960000000000003          1.7124346095214280E-003
  0.36070000000000002          1.6629682018554006E-003
  0.36180000000000001          1.6119289628028543E-003
  0.36290000000000006          1.5588946315745205E-003
  0.36400000000000005          1.5035033753097360E-003
  0.36510000000000004          1.4454776020363666E-003
  0.36620000000000003          1.3846417966639551E-003
  0.36730000000000002          1.3209349065376951E-003
  0.36840000000000006          1.2544178302307555E-003
  0.36950000000000005          1.1852755126314433E-003
  0.37060000000000004          1.1138159864126913E-003
  0.37170000000000003          1.0404654061315429E-003
  0.37280000000000002          9.6576060071483592E-004
  0.37390000000000001          8.9033710035769269E-004
  0.37500000000000006          8.1491399771699941E-004
  0.37610000000000005          7.4027419080689738E-004
  0.37720000000000004          6.6724125403250765E-004
  0.37830000000000003          5.9665430787862554E-004
  0.37940000000000002          5.2934154831540763E-004
  0.38050000000000006          4.6609442365319343E-004
  0.38160000000000005          4.0764374435142854E-004
  0.38270000000000004          3.5463808984777592E-004
  0.38380000000000003          3.0762435154118342E-004
  0.38490000000000002          2.6703100247232696E-004
  0.38600000000000001          2.3315336046728557E-004
  0.38710000000000000          2.0614173749357290E-004
  0.38819999999999999          1.8599246190443986E-004
  0.38930000000000009          1.7254292724084514E-004
  0.39040000000000008          1.6547114605353880E-004
  0.39150000000000007          1.6430054364202561E-004
  0.39260000000000006          1.6840981991583559E-004
  0.39370000000000005          1.7704747143459728E-004
  0.39480000000000004          1.8934983478587002E-004
  0.39590000000000003          2.0436142021604172E-004
  0.39700000000000002          2.2105596213352463E-004
  0.39810000000000001          2.3835698198139817E-004
  0.39920000000000000          2.5515753200387709E-004
  0.40029999999999999          2.7033893884727847E-004
  0.40140000000000009          2.8278923128177523E-004
  0.40250000000000008          2.9142149799523407E-004
  0.40360000000000007          2.9519259581920908E-004
  0.40470000000000006          2.9312118749857578E-004
  0.40580000000000005          2.8430400116334013E-004
  0.40690000000000004          2.6792814198756495E-004
  0.40800000000000003          2.4327759163468875E-004
  0.40910000000000002          2.0973290554209185E-004
  0.41020000000000001          1.6676397422048307E-004
  0.41130000000000000          1.1391674565655320E-004
  0.41239999999999999          5.0795571079870673E-005
  0.41350000000000009         -2.2956973312799852E-005
  0.41460000000000008         -1.0768138790566670E-004
  0.41570000000000007         -2.0372269419292871E-004
  0.41680000000000006         -3.1145174428337963E-004
  0.41790000000000005         -4.3128661205261461E-004
  0.41900000000000004         -5.6371429183040976E-004
  0.42010000000000003         -7.0931264510421237E-004
  0.42120000000000002         -8.6877257988213306E-004
  0.42230000000000001         -1.0429191004081751E-003
  0.42340000000000000         -1.2327295122811016E-003
  0.42449999999999999         -1.4393477677117203E-003
  0.42560000000000009         -1.6640921268710361E-003
  0.42670000000000008         -1.9084544218847129E-003
  0.42780000000000007         -2.1740897546147471E-003
  0.42890000000000006         -2.4627970978810996E-003
  0.43000000000000005         -2.7764889660073042E-003
  0.43110000000000004         -3.1171539759077480E-003
  0.43220000000000003         -3.4868113147697483E-003
  0.43330000000000002         -3.8874603369785932E-003
  0.43440000000000001         -4.3210227531711529E-003
  0.43550000000000000         -4.7892821810396387E-003
  0.43659999999999999         -5.2938163538786605E-003
  0.43770000000000009         -5.8359274055922164E-003
  0.43880000000000008         -6.4165667025776352E-003
  0.43990000000000007         -7.0362594226343993E-003
  0.44100000000000006         -7.6950271348716244E-003
  0.44210000000000005         -8.3923134095675121E-003
  0.44320000000000004         -9.1269149653806295E-003
  0.44430000000000003         -9.8969148132559501E-003
  0.44540000000000002         -1.0699630309718282E-002
  0.44650000000000001         -1.1531565819679379E-002
  0.44760000000000000         -1.2388380481972553E-002
  0.44869999999999999         -1.3264868902724049E-002
  0.44980000000000009         -1.4154962275893907E-002
  0.45090000000000008         -1.5051737021072084E-002
  0.45200000000000007         -1.5947448043077420E-002
  0.45310000000000006         -1.6833572893832256E-002
  0.45420000000000005         -1.7700879326340780E-002
  0.45530000000000004         -1.8539505633754536E-002
  0.45640000000000003         -1.9339060142919189E-002
  0.45750000000000002         -2.0088727620220476E-002
  0.45860000000000001         -2.0777405909211254E-002
  0.45970000000000000         -2.1393842356330999E-002
  0.46079999999999999         -2.1926788073066032E-002
  0.46190000000000009         -2.2365166612600382E-002
  0.46300000000000008         -2.2698240811291064E-002
  0.46410000000000007         -2.2915790220804987E-002
  0.46520000000000006         -2.3008284067630044E-002
  0.46630000000000005         -2.2967057371081272E-002
  0.46740000000000004         -2.2784472641797116E-002
  0.46850000000000003         -2.2454076604351818E-002
  0.46960000000000002         -2.1970746465091392E-002
  0.47070000000000001         -2.1330822586794945E-002
  0.47180000000000000         -2.0532214930119547E-002
  0.47289999999999999         -1.9574498784647353E-002
  0.47400000000000009         -1.8458983117392129E-002
  0.47510000000000008         -1.7188757876817989E-002
  0.47620000000000007         -1.5768711076522474E-002
  0.47730000000000006         -1.4205523753299570E-002
  0.47840000000000005         -1.2507634047661713E-002