 -0.12000000000000000          0.0000000000000000     
 -0.11889999999999999          0.0000000000000000     
 -0.11780000000000000          0.0000000000000000     
 -0.11670000000000000          0.0000000000000000     
 -0.11559999999999999          0.0000000000000000     
 -0.11449999999999999          0.0000000000000000     
 -0.11340000000000000          0.0000000000000000     
 -0.11230000000000000          0.0000000000000000     
 -0.11119999999999999          0.0000000000000000     
 -0.11009999999999999          0.0000000000000000     
 -0.10900000000000000          0.0000000000000000     
 -0.10790000000000000          0.0000000000000000     
 -0.10679999999999999          0.0000000000000000     
 -0.10569999999999999          0.0000000000000000     
 -0.10460000000000000          0.0000000000000000     
 -0.10349999999999999          0.0000000000000000     
 -0.10239999999999999          0.0000000000000000     
 -0.10130000000000000          0.0000000000000000     
 -0.10020000000000000          0.0000000000000000     
  -9.9099999999999994E-002     0.0000000000000000     
  -9.7999999999999990E-002     0.0000000000000000     
  -9.6899999999999986E-002     0.0000000000000000     
  -9.5799999999999996E-002     0.0000000000000000     
  -9.4699999999999993E-002     0.0000000000000000     
  -9.3599999999999989E-002     0.0000000000000000     
  -9.2499999999999999E-002     0.0000000000000000     
  -9.1399999999999995E-002     0.0000000000000000     
  -9.0299999999999991E-002     0.0000000000000000     
  -8.9200000000000002E-002     0.0000000000000000     
  -8.8099999999999984E-002     0.0000000000000000     
  -8.6999999999999994E-002     0.0000000000000000     
  -8.5899999999999990E-002     0.0000000000000000     
  -8.4799999999999986E-002     0.0000000000000000     
  -8.3699999999999997E-002     0.0000000000000000     
  -8.2599999999999993E-002     0.0000000000000000     
  -8.1499999999999989E-002     0.0000000000000000     
  -8.0399999999999999E-002     0.0000000000000000     
  -7.9299999999999995E-002     0.0000000000000000     
  -7.8199999999999992E-002     0.0000000000000000     
  -7.7100000000000002E-002     0.0000000000000000     
  -7.5999999999999984E-002     0.0000000000000000     
  -7.4899999999999994E-002     0.0000000000000000     
  -7.3799999999999991E-002     0.0000000000000000     
  -7.2699999999999987E-002     0.0000000000000000     
  -7.1599999999999997E-002     0.0000000000000000     
  -7.0499999999999993E-002     0.0000000000000000     
  -6.9399999999999989E-002     0.0000000000000000     
  -6.8300000000000000E-002     0.0000000000000000     
  -6.7199999999999996E-002     0.0000000000000000     
  -6.6099999999999992E-002     0.0000000000000000     
  -6.5000000000000002E-002     0.0000000000000000     
  -6.3899999999999985E-002     0.0000000000000000     
  -6.2799999999999995E-002     0.0000000000000000     
  -6.1699999999999991E-002     0.0000000000000000     
  -6.0599999999999994E-002     0.0000000000000000     
  -5.9499999999999990E-002     0.0000000000000000     
  -5.8399999999999994E-002     0.0000000000000000     
  -5.7299999999999990E-002     0.0000000000000000     
  -5.6199999999999986E-002     0.0000000000000000     
  -5.5099999999999996E-002     0.0000000000000000     
  -5.3999999999999992E-002     0.0000000000000000     
  -5.2899999999999989E-002     0.0000000000000000     
  -5.1799999999999985E-002     0.0000000000000000     
  -5.0699999999999995E-002     0.0000000000000000     
  -4.9599999999999991E-002     0.0000000000000000     
  -4.8499999999999988E-002     0.0000000000000000     
  -4.7399999999999998E-002     0.0000000000000000     
  -4.6299999999999994E-002     0.0000000000000000     
  -4.5199999999999990E-002     0.0000000000000000     
  -4.4099999999999986E-002     0.0000000000000000     
  -4.2999999999999997E-002     0.0000000000000000     
  -4.1899999999999993E-002     0.0000000000000000     
  -4.0799999999999989E-002     0.0000000000000000     
  -3.9699999999999985E-002     0.0000000000000000     
  -3.8599999999999995E-002     0.0000000000000000     
  -3.7499999999999992E-002     0.0000000000000000     
  -3.6399999999999988E-002     0.0000000000000000     
  -3.5299999999999984E-002     0.0000000000000000     
  -3.4199999999999994E-002     0.0000000000000000     
  -3.3099999999999991E-002     0.0000000000000000     
  -3.1999999999999987E-002     0.0000000000000000     
  -3.0899999999999997E-002     0.0000000000000000     
  -2.9799999999999993E-002     0.0000000000000000     
  -2.8699999999999989E-002     0.0000000000000000     
  -2.7599999999999986E-002     0.0000000000000000     
  -2.6499999999999996E-002     0.0000000000000000     
  -2.5399999999999992E-002     0.0000000000000000     
  -2.4299999999999988E-002    -1.4651818383595268E-047
  -2.3199999999999985E-002    -3.3328424813544499E-047
  -2.2099999999999995E-002     1.2808863020967925E-047
  -2.0999999999999991E-002     1.7832644350834050E-046
  -1.9899999999999987E-002    -4.9489354805923023E-038
  -1.8799999999999983E-002    -1.4274092504704420E-037
  -1.7699999999999994E-002    -1.6051007435321303E-037
  -1.6599999999999990E-002     6.0858412540825860E-038
  -1.5499999999999986E-002     5.7147699882517089E-037
  -1.4399999999999996E-002     1.1114318270881708E-036
  -1.3299999999999992E-002     1.0246555397645164E-036
  -1.2199999999999989E-002    -4.6895315006346554E-037
  -1.1099999999999985E-002    -3.6435966099560182E-036
  -9.9999999999999950E-003    -7.1784198407782493E-036
  -8.8999999999999913E-003    -7.4645785596598377E-036
  -7.7999999999999875E-003     4.5657983090892664E-037
  -6.6999999999999837E-003     1.9117805522308143E-035
  -5.5999999999999939E-003     4.2318691956799583E-035
  -4.4999999999999901E-003     5.0172641673028221E-035
  -3.3999999999999864E-003     1.2946892541212070E-035
  -2.2999999999999826E-003    -8.8902803641744809E-035
  -1.1999999999999927E-003    -2.2959108174715383E-034
  -9.9999999999988987E-005    -3.0713295763115697E-034
   1.0000000000000148E-003    -1.5609723698330893E-034
   2.1000000000000185E-003     3.5472929468208413E-034
   3.2000000000000084E-003     1.1391601850610316E-033
   4.3000000000000121E-003     1.7154461101141619E-033
   5.4000000000000159E-003     1.2280350982799133E-033
   6.5000000000000058E-003    -1.1136048346343181E-033
   7.6000000000000234E-003    -5.1418165175326936E-033
   8.7000000000000133E-003    -8.7737833032929032E-033
   9.8000000000000032E-003    -7.8968322214116584E-033
   1.0900000000000021E-002     1.8262288577022121E-033
   1.2000000000000011E-002     2.0885347477452161E-032
   1.3100000000000001E-002     4.1128431414460180E-032
   1.4200000000000018E-002     4.4198708175078161E-032
   1.5300000000000008E-002     8.2515782889781715E-033
   1.6400000000000026E-002    -7.4712933570495547E-032
   1.7500000000000016E-002    -1.7641642870262081E-031
   1.8600000000000005E-002    -2.2096291609786606E-031
   1.9700000000000023E-002    -1.0688296510096941E-031
   2.0800000000000013E-002     2.2414255591881628E-031
   2.1900000000000003E-002     6.8921612859679453E-031
   2.3000000000000020E-002     9.9889767206235676E-031
   2.4100000000000010E-002     7.1737383106854727E-031
   2.5200000000000000E-002    -4.8473159311210849E-031
   2.6300000000000018E-002    -2.4297878180823601E-030
   2.7400000000000008E-002    -4.1068808484861000E-030
   2.8500000000000025E-002    -3.7833404279407421E-030
   2.9600000000000015E-002     1.3799607797074694E-031
   3.0700000000000005E-002     7.5903990856605055E-030
   3.1800000000000023E-002     1.5380920391330897E-029
   3.2900000000000013E-002     1.7134657191895787E-029
   3.4000000000000002E-002     5.9448158097737387E-030
   3.5100000000000020E-002    -2.0185093862384025E-029
   3.6200000000000010E-002    -5.2358499918492707E-029
   3.7300000000000028E-002    -6.8909466521683868E-029
   3.8400000000000017E-002    -4.2715976865784635E-029
   3.9500000000000007E-002     4.0749132333675494E-029
   4.0600000000000025E-002     1.6085652142274453E-028
   4.1700000000000015E-002     2.4986776769135176E-028
   4.2800000000000005E-002     2.1013123539138593E-028
   4.3900000000000022E-002    -3.0332161606650957E-029
   4.5000000000000012E-002    -4.3894408498254912E-028
   4.6100000000000002E-002    -8.2244363424323523E-028
   4.7200000000000020E-002    -8.5678701149705056E-028
   4.8300000000000010E-002    -2.4511975212967929E-028
   4.9400000000000027E-002     1.0256033355378358E-027
   5.0500000000000017E-002     2.4601848346400727E-027
   5.1600000000000007E-002     3.0654248880971823E-027
   5.2700000000000025E-002     1.7599286599438171E-027
   5.3800000000000014E-002    -1.8478467599611747E-027
   5.4900000000000004E-002    -6.6574475398920346E-027
   5.6000000000000022E-002    -9.8588777600615157E-027
   5.7100000000000012E-002    -7.8818860414185745E-027
   5.8200000000000002E-002     1.4055867724062274E-027
   5.9300000000000019E-002     1.6077200914820663E-026
   6.0400000000000009E-002     2.8825504408727184E-026
   6.1500000000000027E-002     2.8826592234572538E-026
   6.2600000000000017E-002     7.5159286269987507E-027
   6.3700000000000007E-002    -3.3495274267574619E-026
   6.4800000000000024E-002    -7.6921050286534250E-026
   6.5900000000000014E-002    -9.2423350527359030E-026
   6.7000000000000004E-002    -5.0637705951253903E-026
   6.8100000000000022E-002     5.4556855623312346E-026
   6.9200000000000012E-002     1.8683006947718642E-025
   7.0300000000000029E-002     2.6737363111924748E-025
   7.1400000000000019E-002     2.0598469786408687E-025
   7.2500000000000009E-002    -4.0415869960641200E-026
   7.3600000000000027E-002    -4.0790138572680926E-025
   7.4700000000000016E-002    -7.0709241565404591E-025
   7.5800000000000006E-002    -6.8430326088469814E-025
   7.6900000000000024E-002    -1.6518286630579597E-025
   7.8000000000000014E-002     7.7429404365427878E-025
   7.9100000000000004E-002     1.7164187424619252E-024
   8.0200000000000021E-002     2.0011815583143726E-024
   8.1300000000000011E-002     1.0544768864321562E-024
   8.2400000000000029E-002    -1.1589879264658918E-024
   8.3500000000000019E-002    -3.8092128810496974E-024
   8.4600000000000009E-002    -5.3016055876237427E-024
   8.5700000000000026E-002    -3.9688168148066074E-024
   8.6800000000000016E-002     8.0976727788050727E-025
   8.7900000000000006E-002     7.6131080444917471E-024
   8.9000000000000024E-002     1.2868452080664452E-023
   9.0100000000000013E-002     1.2171463518234298E-023
   9.1200000000000003E-002     2.8727737017066007E-024
   9.2300000000000021E-002    -1.3196685225519462E-023
   9.3400000000000011E-002    -2.8666438514669344E-023
   9.4500000000000028E-002    -3.2811097989204641E-023
   9.5600000000000018E-002    -1.7125028080676837E-023
   9.6700000000000008E-002     1.7816948816428908E-023
   9.7800000000000026E-002     5.8240963181120719E-023
   9.8900000000000016E-002     7.9940141288286614E-023
  0.10000000000000001          5.9411096590788298E-023
  0.10110000000000002         -1.0105843571069695E-023
  0.10220000000000001         -1.0612182233014833E-022
  0.10330000000000003         -1.7799178420119834E-022
  0.10440000000000002         -1.6726163536974168E-022
  0.10550000000000001         -4.2663403247442869E-023
  0.10660000000000003          1.6676293556647272E-022
  0.10770000000000002          3.6325174132927644E-022
  0.10880000000000001          4.1335804100805377E-022
  0.10990000000000003          2.1926645202769190E-022
  0.11100000000000002         -2.0157006542036233E-022
  0.11210000000000001         -6.7709822186802958E-022
  0.11320000000000002         -9.2502460924817830E-022
  0.11430000000000001         -6.8811683187120482E-022
  0.11540000000000003          8.8750124321116049E-023
  0.11650000000000002          1.1372283415236281E-021
  0.11760000000000001          1.9020832402062918E-021
  0.11870000000000003          1.7780919796360954E-021
  0.11980000000000002          4.7723136929742348E-022
  0.12090000000000001         -1.6570063401356997E-021
  0.12200000000000003         -3.6118764703848340E-021
  0.12310000000000001         -4.0801713716193509E-021
  0.12420000000000003         -2.1727894158501421E-021
  0.12530000000000002          1.8519721571953558E-021
  0.12640000000000001          6.3005753482582387E-021
  0.12750000000000003          8.5530766227627341E-021
  0.12860000000000002          6.3539321588890187E-021
  0.12970000000000001         -6.3239318386564257E-022
  0.13080000000000003         -9.8825254790377560E-021
  0.13190000000000002         -1.6515407337618638E-020
  0.13300000000000001         -1.5455654906434184E-020
  0.13410000000000000         -4.5168726953905360E-021
  0.13520000000000004          1.3186761418884303E-020
  0.13630000000000003          2.9248757488765393E-020
  0.13740000000000002          3.3261766121490470E-020
  0.13850000000000001          1.8514702959534694E-020
  0.13960000000000000         -1.2588729984056198E-020
  0.14070000000000005         -4.6838265277590190E-020
  0.14180000000000004         -6.4581984211808780E-020
  0.14290000000000003         -4.9528360206427855E-020
  0.14400000000000002          2.0151182320902239E-022
  0.14510000000000001          6.6135332309609889E-020
  0.14620000000000000          1.1395900576329058E-019
  0.14730000000000004          1.0914882142703949E-019
  0.14840000000000003          3.7800070203572603E-020
  0.14950000000000002         -7.8373798915529336E-020
  0.15060000000000001         -1.8386992003039959E-019
  0.15170000000000000         -2.1227402305181459E-019
  0.15280000000000005         -1.2290572716697730E-019
  0.15390000000000004          6.6711450252326559E-020
  0.15500000000000003          2.7352688909552410E-019
  0.15610000000000002          3.7894400189154401E-019
  0.15720000000000001          2.8935584429091328E-019
  0.15830000000000000         -6.6408219160203925E-023
  0.15940000000000004         -3.7582154909108223E-019
  0.16050000000000003         -6.3879002167463793E-019
  0.16160000000000002         -5.9802506294214547E-019
  0.16270000000000001         -1.8734271069415099E-019
  0.16380000000000000          4.5845229001143381E-019
  0.16490000000000005          1.0249958927777026E-018
  0.16600000000000004          1.1528270424961976E-018
  0.16710000000000003          6.3721057495839266E-019
  0.16820000000000002         -4.0671676793287314E-019
  0.16930000000000001         -1.5209186891772384E-018
  0.17040000000000000         -2.0765910205906401E-018
  0.17150000000000004         -1.5937659068135925E-018
  0.17260000000000003         -6.0933211991106325E-020
  0.17370000000000002          1.9322089140611304E-018
  0.17480000000000001          3.3755840793221235E-018
  0.17590000000000000          3.3095270944466765E-018
  0.17700000000000005          1.3866993376814853E-018
  0.17810000000000004         -1.7771013804730413E-018
  0.17920000000000003         -4.7182291138868194E-018
  0.18030000000000002         -5.7537967947188074E-018
  0.18140000000000001         -3.8846391020938209E-018
  0.18250000000000000          4.8254805610023183E-019
  0.18360000000000004          5.4520007711748756E-018
  0.18470000000000003          8.3896297425419112E-018
  0.18580000000000002          7.2643382063819494E-018
  0.18690000000000001          1.9378443059639880E-018
  0.18800000000000000         -5.3558389579289731E-018
  0.18910000000000005         -1.0801194594041185E-017
  0.19020000000000004         -1.0886187418750286E-017
  0.19130000000000003         -4.5264365765712143E-018
  0.19240000000000002          5.7613361101606795E-018
  0.19350000000000001          1.4542644175709588E-017
  0.19460000000000005          1.6032791896318893E-017
  0.19570000000000004          7.4791703250875686E-018
  0.19680000000000003         -8.4372090779126180E-018
  0.19790000000000002         -2.3824614794539478E-017
  0.19900000000000001         -2.8930172143272170E-017
  0.20010000000000000         -1.7423342132828023E-017
  0.20120000000000005          8.9756878427911616E-018
  0.20230000000000004          3.9340445079719425E-017
  0.20340000000000003          5.7345235578434593E-017
  0.20450000000000002          4.9055585643422259E-017
  0.20560000000000000          1.1265679836899096E-017
  0.20670000000000005         -4.4111159525442355E-017
  0.20780000000000004         -9.2867672995714270E-017
  0.20890000000000003         -1.0852642044888788E-016
  0.21000000000000002         -7.5619031757510802E-017
  0.21110000000000001          2.3601637841824541E-019
  0.21220000000000000          9.1365175553897057E-017
  0.21330000000000005          1.5822709095893694E-016
  0.21440000000000003          1.6717309552917886E-016
  0.21550000000000002          1.0760174475701697E-016
  0.21660000000000001         -5.3476120702940545E-019
  0.21770000000000000         -1.1397009650178696E-016
  0.21880000000000005         -1.8589221957783472E-016
  0.21990000000000004         -1.8890052273116706E-016
  0.22100000000000003         -1.2891363555409728E-016
  0.22210000000000002         -4.1411343142008226E-017
  0.22320000000000001          2.9510457560753262E-017
  0.22430000000000000          5.8590719271256175E-017
  0.22540000000000004          5.7129327992015309E-017
  0.22650000000000003          6.7952289645976020E-017
  0.22760000000000002          1.3627318457707383E-016
  0.22870000000000001          2.7005315706429520E-016
  0.22980000000000000          4.1347505262329346E-016
  0.23090000000000005          4.5524420825714249E-016
  0.23200000000000004          2.7805556018513341E-016
  0.23310000000000003         -1.6743675560580320E-016
  0.23420000000000002         -8.0003404451324518E-016
  0.23530000000000001         -1.3964326943366372E-015
  0.23640000000000000         -1.6530576329230962E-015
  0.23750000000000004         -1.3101709716670725E-015
  0.23860000000000003         -2.9192178281389544E-016
  0.23970000000000002          1.2028258428143132E-015
  0.24080000000000001          2.7137285852482051E-015
  0.24190000000000000          3.6518364180672999E-015
  0.24300000000000005          3.5144654642373381E-015
  0.24410000000000004          2.1014499804590499E-015
  0.24520000000000003         -3.5850483846960947E-016
  0.24630000000000002         -3.2325136055294399E-015
  0.24740000000000001         -5.6604018198187283E-015
  0.24850000000000005         -6.8217208265860472E-015
  0.24960000000000004         -6.1941850329719119E-015
  0.25070000000000003         -3.7127071599980886E-015
  0.25180000000000002          2.1375059434286673E-016
  0.25290000000000001          4.8076276848639065E-015
  0.25400000000000000          9.0872201073003280E-015
  0.25510000000000005          1.2026103379894302E-014
  0.25620000000000004          1.2683729589275804E-014
  0.25730000000000003          1.0336170177734384E-014
  0.25840000000000002          4.6604824009504598E-015
  0.25950000000000001         -4.0064801813683340E-015
  0.26060000000000005         -1.4399341421009053E-014
  0.26170000000000004         -2.4204645571575467E-014
  0.26280000000000003         -3.0288129350735572E-014
  0.26390000000000002         -2.9396071564905049E-014
  0.26500000000000001         -1.9273277488833200E-014
  0.26610000000000000          9.9588439629061213E-017
  0.26720000000000005          2.5633164885920122E-014
  0.26830000000000004          5.1125295521261326E-014
  0.26940000000000003          6.8424540717823845E-014
  0.27050000000000002          6.9663878729134137E-014
  0.27160000000000001          5.0011938668379944E-014
  0.27270000000000005          1.0059242236509814E-014
  0.27380000000000004         -4.3087826969529739E-014
  0.27490000000000003         -9.6630419094021650E-014
  0.27600000000000002         -1.3487012788295741E-013
  0.27710000000000001         -1.4337069307503662E-013
  0.27820000000000000         -1.1338735334370754E-013
  0.27930000000000005         -4.5294429470812641E-014
  0.28040000000000004          5.0041028780565356E-014
  0.28150000000000003          1.5247674410034576E-013
  0.28260000000000002          2.3630693030778941E-013
  0.28370000000000001          2.7580522847933061E-013
  0.28480000000000005          2.5155100285319811E-013
  0.28590000000000004          1.5630541500917418E-013
  0.28700000000000003         -8.3188860606892975E-016
  0.28810000000000002         -1.9317389817048106E-013
  0.28920000000000001         -3.7905905841115350E-013
  0.29030000000000000         -5.0877905019999054E-013
  0.29140000000000005         -5.3540353227618413E-013
  0.29250000000000004         -4.2787179301260039E-013
  0.29360000000000003         -1.8342620467606585E-013
  0.29470000000000002          1.6442711699858171E-013
  0.29580000000000001          5.4616613425337282E-013
  0.29690000000000005          8.6701310583915744E-013
  0.29800000000000004          1.0277796339811231E-012
  0.29910000000000003          9.5195617375377337E-013
  0.30020000000000002          6.1219833307367143E-013
  0.30130000000000001          4.7967848277372240E-014
  0.30240000000000000         -6.3282527302280533E-013
  0.30350000000000005         -1.2716521515286909E-012
  0.30460000000000004         -1.6946882139923129E-012
  0.30570000000000003         -1.7580039964412399E-012
  0.30680000000000002         -1.3909868208924938E-012
  0.30790000000000001         -6.2543834207590060E-013
  0.30900000000000005          3.9947615090218362E-013
  0.31010000000000004          1.4604501250947188E-012
  0.31120000000000003          2.2981100323277089E-012
  0.31230000000000002          2.6797249118036717E-012
  0.31340000000000001          2.4617204839894079E-012
  0.31450000000000006          1.6360319102604351E-012
  0.31560000000000005          3.4696405824022017E-013
  0.31670000000000004         -1.1288501376513745E-012
  0.31780000000000003         -2.4387321281956884E-012
  0.31890000000000002         -3.2370314873777421E-012
  0.32000000000000001         -3.2776838715242065E-012
  0.32110000000000005         -2.4937621304742329E-012
  0.32220000000000004         -1.0406997617334444E-012
  0.32330000000000003          7.1528365205626250E-013
  0.32440000000000002          2.2711400465316696E-012
  0.32550000000000001          3.1151445952747689E-012
  0.32660000000000006          2.8835084953561281E-012
  0.32770000000000005          1.5051004947798633E-012
  0.32880000000000004         -7.1231935352175515E-013
  0.32990000000000003         -3.0946013555257136E-012
  0.33100000000000002         -4.7323476917389238E-012
  0.33210000000000001         -4.7191364606769735E-012
  0.33320000000000005         -2.4499171536403719E-012
  0.33430000000000004          2.0965471463129458E-012
  0.33540000000000003          8.1800807277996203E-012
  0.33650000000000002          1.4304471592858865E-011
  0.33760000000000001          1.8448345152292875E-011
  0.33870000000000006          1.8509329326648098E-011
  0.33980000000000005          1.2887591883936236E-011
  0.34090000000000004          1.0817033127730563E-012
  0.34200000000000003         -1.5859299989308242E-011
  0.34310000000000002         -3.5177746015962511E-011
  0.34420000000000001         -5.2648350714841347E-011
  0.34530000000000005         -6.3245505714868379E-011
  0.34640000000000004         -6.2165688883431785E-011
  0.34750000000000003         -4.6036129431514455E-011
  0.34860000000000002         -1.4065227943772867E-011
  0.34970000000000001          3.1141620522804423E-011
  0.35080000000000006          8.3352449665980560E-011
  0.35190000000000005          1.3323114778785909E-010
  0.35300000000000004          1.6964071737123291E-010
  0.35410000000000003          1.8159081095172235E-010
  0.35520000000000002          1.6053087941616753E-010
  0.35630000000000001          1.0256985476283836E-010
  0.35740000000000005          1.0155401450082938E-011
  0.35850000000000004         -1.0720803385433180E-010
  0.35960000000000003         -2.3348284334657769E-010
  0.36070000000000002         -3.4792982249143252E-010
  0.36180000000000001         -4.2806513714509697E-010
  0.36290000000000006         -4.5332654104279069E-010
  0.36400000000000005         -4.0886285840044124E-010
  0.36510000000000004         -2.8879223868019155E-010
  0.36620000000000003         -9.8324243812353623E-011
  0.36730000000000002          1.4569688498386623E-010
  0.36840000000000006          4.1602554619602460E-010
  0.36950000000000005          6.7793437312746514E-010
  0.37060000000000004          8.9345147638316448E-010
  0.37170000000000003          1.0263237999686590E-009
  0.37280000000000002          1.0469892689696948E-009
  0.37390000000000001          9.3683527199826411E-010
  0.37500000000000006          6.9114075220397072E-010
  0.37610000000000005          3.2033236911686148E-010
  0.37720000000000004         -1.5051578171968591E-010
  0.37830000000000003         -6.8369482267453074E-010
  0.37940000000000002         -1.2318929188150747E-009
  0.38050000000000006         -1.7416252841860806E-009
  0.38160000000000005         -2.1564814315070614E-009
  0.38270000000000004         -2.4198192254977135E-009
  0.38380000000000003         -2.4768653693437267E-009
  0.38490000000000002         -2.2765438310080895E-009
  0.38600000000000001         -1.7736427765341160E-009
  0.38710000000000000         -9.3203521600662825E-010
  0.38819999999999999          2.7046776754797950E-010
  0.38930000000000009          1.8354039436710196E-009
  0.39040000000000008          3.7353782258871870E-009
  0.39150000000000007          5.9050066935947925E-009
  0.39260000000000006          8.2322628477611124E-009
  0.39370000000000005          1.0551489423192667E-008
  0.39480000000000004          1.2639133244802065E-008
  0.39590000000000003          1.4212727819266119E-008
  0.39700000000000002          1.4932925931351475E-008
  0.39810000000000001          1.4407575494670549E-008
  0.39920000000000000          1.2196120475721466E-008
  0.40029999999999999          7.8120300618292713E-009
  0.40140000000000009          7.2066275855102313E-010
  0.40250000000000008         -9.6701695623484932E-009
  0.40360000000000007         -2.4029512549082359E-008
  0.40470000000000006         -4.3134644161397193E-008
  0.40580000000000005         -6.7916125799893341E-008
  0.40690000000000004         -9.9517499608420815E-008
  0.40800000000000003         -1.3936987325651914E-007
  0.40910000000000002         -1.8928091008755211E-007
  0.41020000000000001         -2.5153690213487441E-007
  0.41130000000000000         -3.2901695433884656E-007
  0.41239999999999999         -4.2531803296220598E-007
  0.41350000000000009         -5.4489111978832535E-007
  0.41460000000000008         -6.9319093768565129E-007
  0.41570000000000007         -8.7684292814967304E-007
  0.41680000000000006         -1.1038332504294133E-006
  0.41790000000000005         -1.3837318351018254E-006
  0.41900000000000004         -1.7279537501103031E-006
  0.42010000000000003         -2.1500700205773352E-006
  0.42120000000000002         -2.6661693803201779E-006
  0.42230000000000001         -3.2952782310270969E-006
  0.42340000000000000         -4.0598429018203321E-006
  0.42449999999999999         -4.9862719354690254E-006
  0.42560000000000009         -6.1055384012521135E-006
  0.42670000000000008         -7.4538410976028105E-006
  0.42780000000000007         -9.0733237350399734E-006
  0.42890000000000006         -1.1012845732923463E-005
  0.43000000000000005         -1.3328801219428325E-005
  0.43110000000000004         -1.6085996239179567E-005
  0.43220000000000003         -1.9358561885927197E-005
  0.43330000000000002         -2.3230928371365947E-005
  0.43440000000000001         -2.7798843659195080E-005
  0.43550000000000000         -3.3170432116944673E-005
  0.43659999999999999         -3.9467267719716879E-005
  0.43770000000000009         -4.6825458167863423E-005
  0.43880000000000008         -5.5396703538811426E-005
  0.43990000000000007         -6.5349304007185799E-005
  0.44100000000000006         -7.6869072977483023E-005
  0.44210000000000005         -9.0160151991317702E-005
  0.44320000000000004         -1.0544563645977191E-004
  0.44430000000000003         -1.2296799039297477E-004
  0.44540000000000002         -1.4298914098754873E-004
  0.44650000000000001         -1.6579028945170994E-004
  0.44760000000000000         -1.9167119068546579E-004
  0.44869999999999999         -2.2094912009463648E-004
  0.44980000000000009         -2.5395725832827107E-004
  0.45090000000000008         -2.9104258125094780E-004
  0.45200000000000007         -3.3256309507889367E-004
  0.45310000000000006         -3.7888451854332857E-004
  0.45420000000000005         -4.3037617925039036E-004
  0.45530000000000004         -4.8740624065296567E-004
  0.45640000000000003         -5.5033591038845700E-004
  0.45750000000000002         -6.1951321205910089E-004
  0.45860000000000001         -6.9526576748205374E-004
  0.45970000000000000         -7.7789264761690907E-004
  0.46079999999999999         -8.6765578693576465E-004
  0.46190000000000009         -9.6477026274390399E-004
  0.46300000000000008         -1.0693940506315395E-003
  0.46410000000000007         -1.1816174888872508E-003
  0.46520000000000006         -1.3014515787582092E-003
  0.46630000000000005         -1.4288168085793565E-003
  0.46740000000000004         -1.5635321525255641E-003
  0.46850000000000003         -1.7053036619101695E-003
  0.46960000000000002         -1.8537143370520508E-003
  0.47070000000000001         -2.0082134170660891E-003
  0.47180000000000000         -2.1681082307907101E-003
  0.47289999999999999         -2.3325558148847695E-003
  0.47400000000000009         -2.5005568602308732E-003
  0.47510000000000008         -2.6709518702297988E-003
  0.47620000000000007         -2.8424188324940960E-003
  0.47730000000000006         -3.0134748486626106E-003
  0.47840000000000005         -3.1824784627069221E-003