-0.1200000E+00  0.0000000E+00
-0.1189000E+00  0.0000000E+00
-0.1178000E+00  0.0000000E+00
-0.1167000E+00  0.0000000E+00
-0.1156000E+00  0.0000000E+00
-0.1145000E+00  0.0000000E+00
-0.1134000E+00  0.0000000E+00
-0.1123000E+00  0.0000000E+00
-0.1112000E+00  0.0000000E+00
-0.1101000E+00  0.0000000E+00
-0.1090000E+00  0.0000000E+00
-0.1079000E+00 -0.1541612E-36
-0.1068000E+00 -0.3414930E-33
-0.1057000E+00 -0.7123117E-32
-0.1046000E+00 -0.7529419E-31
-0.1035000E+00 -0.5253222E-30
-0.1024000E+00 -0.2645455E-29
-0.1013000E+00 -0.9809596E-29
-0.1002000E+00 -0.2529003E-28
-0.9910000E-01 -0.3071578E-28
-0.9800000E-01  0.9165299E-28
-0.9690000E-01  0.7220094E-27
-0.9580000E-01  0.2623434E-26
-0.9470000E-01  0.6403686E-26
-0.9360000E-01  0.9945962E-26
-0.9250000E-01  0.2454170E-26
-0.9140000E-01 -0.4273704E-25
-0.9030000E-01 -0.1642381E-24
-0.8920000E-01 -0.3703341E-24
-0.8810000E-01 -0.5290179E-24
-0.8700000E-01 -0.2099430E-24
-0.8590000E-01  0.1363969E-23
-0.8480000E-01  0.4901398E-23
-0.8370000E-01  0.9754766E-23
-0.8260000E-01  0.1182631E-22
-0.8150000E-01  0.2089565E-23
-0.8040000E-01 -0.3092011E-22
-0.7930000E-01 -0.9047195E-22
-0.7820000E-01 -0.1520887E-21
-0.7710000E-01 -0.1445775E-21
-0.7600000E-01  0.4373869E-22
-0.7490000E-01  0.5003261E-21
-0.7380000E-01  0.1150185E-20
-0.7270000E-01  0.1591487E-20
-0.7160000E-01  0.1049870E-20
-0.7050000E-01 -0.1333906E-20
-0.6940000E-01 -0.5738172E-20
-0.6830000E-01 -0.1058402E-19
-0.6720000E-01 -0.1184155E-19
-0.6610000E-01 -0.3865707E-20
-0.6500000E-01  0.1724588E-19
-0.6390000E-01  0.4807194E-19
-0.6280000E-01  0.7277465E-19
-0.6170000E-01  0.6363781E-19
-0.6060000E-01 -0.7410401E-20
-0.5950000E-01 -0.1453398E-18
-0.5840000E-01 -0.3051819E-18
-0.5730000E-01 -0.3813563E-18
-0.5620000E-01 -0.2369434E-18
-0.5510000E-01  0.2154344E-18
-0.5400000E-01  0.9018444E-18
-0.5290000E-01  0.1507748E-17
-0.5180000E-01  0.1520696E-17
-0.5070000E-01  0.4596687E-18
-0.4960000E-01 -0.1740122E-17
-0.4850000E-01 -0.4362747E-17
-0.4740000E-01 -0.5859053E-17
-0.4630000E-01 -0.4373405E-17
-0.4520000E-01  0.1129216E-17
-0.4410000E-01  0.9549335E-17
-0.4300000E-01  0.1698874E-16
-0.4190000E-01  0.1765710E-16
-0.4080000E-01  0.6731290E-17
-0.3970000E-01 -0.1561962E-16
-0.3860000E-01 -0.4117262E-16
-0.3750000E-01 -0.5432833E-16
-0.3640000E-01 -0.3836569E-16
-0.3530000E-01  0.1369636E-16
-0.3420000E-01  0.8839251E-16
-0.3310000E-01  0.1487108E-15
-0.3200000E-01  0.1451362E-15
-0.3090000E-01  0.4148314E-16
-0.2980000E-01 -0.1534182E-15
-0.2870000E-01 -0.3658871E-15
-0.2760000E-01 -0.4687929E-15
-0.2650000E-01 -0.3334046E-15
-0.2540000E-01  0.9039360E-16
-0.2430000E-01  0.7016762E-15
-0.2320000E-01  0.1232722E-14
-0.2210000E-01  0.1326827E-14
-0.2100000E-01  0.7062466E-15
-0.1990000E-01 -0.6293224E-15
-0.1880000E-01 -0.2277286E-14
-0.1770000E-01 -0.3483430E-14
-0.1660000E-01 -0.3412073E-14
-0.1550000E-01 -0.1567099E-14
-0.1440000E-01  0.1815513E-14
-0.1330000E-01  0.5630450E-14
-0.1220000E-01  0.8181154E-14
-0.1110000E-01  0.7853562E-14
-0.1000000E-01  0.3941265E-14
-0.8900000E-02 -0.2774698E-14
-0.7800000E-02 -0.1005916E-13
-0.6700000E-02 -0.1499180E-13
-0.5600000E-02 -0.1521694E-13
-0.4500000E-02 -0.1009724E-13
-0.3400000E-02 -0.1132721E-14
-0.2300000E-02  0.8689974E-14
-0.1200000E-02  0.1637752E-13
-0.1000000E-03  0.2043783E-13
 0.1000000E-02  0.2142987E-13
 0.2100000E-02  0.2098718E-13
 0.3200000E-02  0.1967708E-13
 0.4300000E-02  0.1504589E-13
 0.5400000E-02  0.1605823E-14
 0.6500000E-02 -0.2614501E-13
 0.7600000E-02 -0.6827829E-13
 0.8700000E-02 -0.1142042E-12
 0.9800000E-02 -0.1414719E-12
 0.1090000E-01 -0.1216721E-12
 0.1200000E-01 -0.3353487E-13
 0.1310000E-01  0.1209638E-12
 0.1420000E-01  0.3052461E-12
 0.1530000E-01  0.4498474E-12
 0.1640000E-01  0.4717186E-12
 0.1750000E-01  0.3080805E-12
 0.1860000E-01 -0.4668914E-13
 0.1970000E-01 -0.5178991E-12
 0.2080000E-01 -0.9563179E-12
 0.2190000E-01 -0.1178648E-11
 0.2300000E-01 -0.1033879E-11
 0.2410000E-01 -0.4728425E-12
 0.2520000E-01  0.4080980E-12
 0.2630000E-01  0.1372663E-11
 0.2740000E-01  0.2105967E-11
 0.2850000E-01  0.2315431E-11
 0.2960000E-01  0.1836824E-11
 0.3070000E-01  0.7054990E-12
 0.3180000E-01 -0.8359837E-12
 0.3290000E-01 -0.2398788E-11
 0.3400000E-01 -0.3555725E-11
 0.3510000E-01 -0.3957590E-11
 0.3620000E-01 -0.3419756E-11
 0.3730000E-01 -0.1957973E-11
 0.3840000E-01  0.2230444E-12
 0.3950000E-01  0.2766582E-11
 0.4060000E-01  0.5203567E-11
 0.4170000E-01  0.6988885E-11
 0.4280000E-01  0.7552198E-11
 0.4390000E-01  0.6394320E-11
 0.4500000E-01  0.3247627E-11
 0.4610000E-01 -0.1721472E-11
 0.4720000E-01 -0.7742355E-11
 0.4830000E-01 -0.1341169E-10
 0.4940000E-01 -0.1690420E-10
 0.5050000E-01 -0.1644853E-10
 0.5160000E-01 -0.1097808E-10
 0.5270000E-01 -0.7509858E-12
 0.5380000E-01  0.1232597E-10
 0.5490000E-01  0.2489123E-10
 0.5600000E-01  0.3290987E-10
 0.5710000E-01  0.3289117E-10
 0.5820000E-01  0.2318380E-10
 0.5930000E-01  0.4886512E-11
 0.6040000E-01 -0.1802488E-10
 0.6150000E-01 -0.3952351E-10
 0.6260000E-01 -0.5315284E-10
 0.6370000E-01 -0.5398015E-10
 0.6480000E-01 -0.4025636E-10
 0.6590000E-01 -0.1421203E-10
 0.6700000E-01  0.1831476E-10
 0.6810000E-01  0.4933995E-10
 0.6920000E-01  0.7084602E-10
 0.7030000E-01  0.7690555E-10
 0.7140000E-01  0.6520171E-10
 0.7250000E-01  0.3756255E-10
 0.7360000E-01 -0.5404669E-12
 0.7470000E-01 -0.4128071E-10
 0.7580000E-01 -0.7614306E-10
 0.7690000E-01 -0.9757468E-10
 0.7800000E-01 -0.1003570E-09
 0.7910000E-01 -0.8258487E-10
 0.8020000E-01 -0.4621160E-10
 0.8130000E-01  0.2912419E-11
 0.8240000E-01  0.5565419E-10
 0.8350000E-01  0.1010237E-09
 0.8460000E-01  0.1284174E-09
 0.8570000E-01  0.1303623E-09
 0.8680000E-01  0.1050584E-09
 0.8790000E-01  0.5777043E-10
 0.8900000E-01  0.2116510E-12
 0.9010000E-01 -0.5240914E-10
 0.9120000E-01 -0.8615105E-10
 0.9230000E-01 -0.9350000E-10
 0.9340000E-01 -0.7698237E-10
 0.9450000E-01 -0.4945923E-10
 0.9560000E-01 -0.3027879E-10
 0.9670000E-01 -0.3796731E-10
 0.9780000E-01 -0.8167148E-10
 0.9890000E-01 -0.1544989E-09
 0.1000000E+00 -0.2317518E-09
 0.1011000E+00 -0.2756988E-09
 0.1022000E+00 -0.2463389E-09
 0.1033000E+00 -0.1153214E-09
 0.1044000E+00  0.1213361E-09
 0.1055000E+00  0.4361918E-09
 0.1066000E+00  0.7719640E-09
 0.1077000E+00  0.1052102E-08
 0.1088000E+00  0.1197795E-08
 0.1099000E+00  0.1146757E-08
 0.1110000E+00  0.8685174E-09
 0.1121000E+00  0.3721368E-09
 0.1132000E+00 -0.2952932E-09
 0.1143000E+00 -0.1058122E-08
 0.1154000E+00 -0.1826102E-08
 0.1165000E+00 -0.2508479E-08
 0.1176000E+00 -0.3024511E-08
 0.1187000E+00 -0.3308565E-08
 0.1198000E+00 -0.3310110E-08
 0.1209000E+00 -0.2990748E-08
 0.1220000E+00 -0.2321209E-08
 0.1231000E+00 -0.1281093E-08
 0.1242000E+00  0.1367812E-09
 0.1253000E+00  0.1916751E-08
 0.1264000E+00  0.4005820E-08
 0.1275000E+00  0.6295832E-08
 0.1286000E+00  0.8604957E-08
 0.1297000E+00  0.1066260E-07
 0.1308000E+00  0.1210338E-07
 0.1319000E+00  0.1247696E-07
 0.1330000E+00  0.1128026E-07
 0.1341000E+00  0.8016077E-08
 0.1352000E+00  0.2277560E-08
 0.1363000E+00 -0.6148574E-08
 0.1374000E+00 -0.1717335E-07
 0.1385000E+00 -0.3030839E-07
 0.1396000E+00 -0.4459682E-07
 0.1407000E+00 -0.5858301E-07
 0.1418000E+00 -0.7032163E-07
 0.1429000E+00 -0.7741518E-07
 0.1440000E+00 -0.7705875E-07
 0.1451000E+00 -0.6606614E-07
 0.1462000E+00 -0.4085290E-07
 0.1473000E+00  0.2640088E-08
 0.1484000E+00  0.6908792E-07
 0.1495000E+00  0.1639827E-06
 0.1506000E+00  0.2938829E-06
 0.1517000E+00  0.4667033E-06
 0.1528000E+00  0.6920403E-06
 0.1539000E+00  0.9815478E-06
 0.1550000E+00  0.1349384E-05
 0.1561000E+00  0.1812761E-05
 0.1572000E+00  0.2392642E-05
 0.1583000E+00  0.3114591E-05
 0.1594000E+00  0.4009834E-05
 0.1605000E+00  0.5116507E-05
 0.1616000E+00  0.6481125E-05
 0.1627000E+00  0.8160253E-05
 0.1638000E+00  0.1022240E-04
 0.1649000E+00  0.1275014E-04
 0.1660000E+00  0.1584251E-04
 0.1671000E+00  0.1961768E-04
 0.1682000E+00  0.2421602E-04
 0.1693000E+00  0.2980344E-04
 0.1704000E+00  0.3657534E-04
 0.1715000E+00  0.4476086E-04
 0.1726000E+00  0.5462783E-04
 0.1737000E+00  0.6648809E-04
 0.1748000E+00  0.8070355E-04
 0.1759000E+00  0.9769268E-04
 0.1770000E+00  0.1179377E-03
 0.1781000E+00  0.1419923E-03
 0.1792000E+00  0.1704897E-03
 0.1803000E+00  0.2041513E-03
 0.1814000E+00  0.2437958E-03
 0.1825000E+00  0.2903483E-03
 0.1836000E+00  0.3448502E-03
 0.1847000E+00  0.4084680E-03
 0.1858000E+00  0.4825035E-03
 0.1869000E+00  0.5684023E-03
 0.1880000E+00  0.6677622E-03
 0.1891000E+00  0.7823415E-03
 0.1902000E+00  0.9140642E-03
 0.1913000E+00  0.1065026E-02
 0.1924000E+00  0.1237495E-02
 0.1935000E+00  0.1433915E-02
 0.1946000E+00  0.1656897E-02
 0.1957000E+00  0.1909219E-02
 0.1968000E+00  0.2193812E-02
 0.1979000E+00  0.2513746E-02
 0.1990000E+00  0.2872211E-02
 0.2001000E+00  0.3272490E-02
 0.2012000E+00  0.3717931E-02
 0.2023000E+00  0.4211910E-02
 0.2034000E+00  0.4757783E-02
 0.2045000E+00  0.5358841E-02
 0.2056000E+00  0.6018253E-02
 0.2067000E+00  0.6738997E-02
 0.2078000E+00  0.7523796E-02
 0.2089000E+00  0.8375038E-02
 0.2100000E+00  0.9294692E-02
 0.2111000E+00  0.1028423E-01
 0.2122000E+00  0.1134451E-01
 0.2133000E+00  0.1247574E-01
 0.2144000E+00  0.1367729E-01
 0.2155000E+00  0.1494770E-01
 0.2166000E+00  0.1628452E-01
 0.2177000E+00  0.1768422E-01
 0.2188000E+00  0.1914216E-01
 0.2199000E+00  0.2065248E-01
 0.2210000E+00  0.2220803E-01
 0.2221000E+00  0.2380034E-01
 0.2232000E+00  0.2541960E-01
 0.2243000E+00  0.2705460E-01
 0.2254000E+00  0.2869280E-01
 0.2265000E+00  0.3032031E-01
 0.2276000E+00  0.3192196E-01
 0.2287000E+00  0.3348142E-01
 0.2298000E+00  0.3498124E-01
 0.2309000E+00  0.3640305E-01
 0.2320000E+00  0.3772770E-01
 0.2331000E+00  0.3893544E-01
 0.2342000E+00  0.4000618E-01
 0.2353000E+00  0.4091966E-01
 0.2364000E+00  0.4165582E-01
 0.2375000E+00  0.4219500E-01
 0.2386000E+00  0.4251827E-01
 0.2397000E+00  0.4260775E-01
 0.2408000E+00  0.4244690E-01
 0.2419000E+00  0.4202086E-01
 0.2430000E+00  0.4131676E-01
 0.2441000E+00  0.4032399E-01
 0.2452000E+00  0.3903450E-01
 0.2463000E+00  0.3744309E-01
 0.2474000E+00  0.3554756E-01
 0.2485000E+00  0.3334896E-01
 0.2496000E+00  0.3085170E-01
 0.2507000E+00  0.2806371E-01
 0.2518000E+00  0.2499641E-01
 0.2529000E+00  0.2166475E-01
 0.2540000E+00  0.1808718E-01
 0.2551000E+00  0.1428546E-01
 0.2562000E+00  0.1028457E-01
 0.2573000E+00  0.6112414E-02
 0.2584000E+00  0.1799570E-02
 0.2595000E+00 -0.2621050E-02
 0.2606000E+00 -0.7114580E-02
 0.2617000E+00 -0.1164462E-01
 0.2628000E+00 -0.1617367E-01
 0.2639000E+00 -0.2066363E-01
 0.2650000E+00 -0.2507628E-01
 0.2661000E+00 -0.2937381E-01
 0.2672000E+00 -0.3351925E-01
 0.2683000E+00 -0.3747707E-01
 0.2694000E+00 -0.4121356E-01
 0.2705000E+00 -0.4469735E-01
 0.2716000E+00 -0.4789977E-01
 0.2727000E+00 -0.5079526E-01
 0.2738000E+00 -0.5336169E-01
 0.2749000E+00 -0.5558059E-01
 0.2760000E+00 -0.5743741E-01
 0.2771000E+00 -0.5892164E-01
 0.2782000E+00 -0.6002688E-01
 0.2793000E+00 -0.6075092E-01
 0.2804000E+00 -0.6109561E-01
 0.2815000E+00 -0.6106682E-01
 0.2826000E+00 -0.6067421E-01
 0.2837000E+00 -0.5993108E-01
 0.2848000E+00 -0.5885407E-01
 0.2859000E+00 -0.5746279E-01
 0.2870000E+00 -0.5577958E-01
 0.2881000E+00 -0.5382904E-01
 0.2892000E+00 -0.5163767E-01
 0.2903000E+00 -0.4923342E-01
 0.2914000E+00 -0.4664534E-01
 0.2925000E+00 -0.4390308E-01
 0.2936000E+00 -0.4103653E-01
 0.2947000E+00 -0.3807541E-01
 0.2958000E+00 -0.3504890E-01
 0.2969000E+00 -0.3198529E-01
 0.2980000E+00 -0.2891168E-01
 0.2991000E+00 -0.2585373E-01
 0.3002000E+00 -0.2283534E-01
 0.3013000E+00 -0.1987855E-01
 0.3024000E+00 -0.1700331E-01
 0.3035000E+00 -0.1422738E-01
 0.3046000E+00 -0.1156628E-01
 0.3057000E+00 -0.9033212E-02
 0.3068000E+00 -0.6639098E-02
 0.3079000E+00 -0.4392592E-02
 0.3090000E+00 -0.2300157E-02
 0.3101000E+00 -0.3661529E-03
 0.3112000E+00  0.1407042E-02
 0.3123000E+00  0.3018902E-02
 0.3134000E+00  0.4470599E-02
 0.3145000E+00  0.5764843E-02
 0.3156000E+00  0.6905707E-02
 0.3167000E+00  0.7898453E-02
 0.3178000E+00  0.8749356E-02
 0.3189000E+00  0.9465526E-02
 0.3200000E+00  0.1005474E-01
 0.3211000E+00  0.1052528E-01
 0.3222000E+00  0.1088578E-01
 0.3233000E+00  0.1114507E-01
 0.3244000E+00  0.1131206E-01
 0.3255000E+00  0.1139565E-01
 0.3266000E+00  0.1140455E-01
 0.3277000E+00  0.1134726E-01
 0.3288000E+00  0.1123197E-01
 0.3299000E+00  0.1106650E-01
 0.3310000E+00  0.1085823E-01
 0.3321000E+00  0.1061408E-01
 0.3332000E+00  0.1034048E-01
 0.3343000E+00  0.1004335E-01
 0.3354000E+00  0.9728076E-02
 0.3365000E+00  0.9399561E-02
 0.3376000E+00  0.9062178E-02
 0.3387000E+00  0.8719810E-02
 0.3398000E+00  0.8375866E-02
 0.3409000E+00  0.8033294E-02
 0.3420000E+00  0.7694613E-02
 0.3431000E+00  0.7361942E-02
 0.3442000E+00  0.7037029E-02
 0.3453000E+00  0.6721287E-02
 0.3464000E+00  0.6415825E-02
 0.3475000E+00  0.6121481E-02
 0.3486000E+00  0.5838851E-02
 0.3497000E+00  0.5568315E-02
 0.3508000E+00  0.5310072E-02
 0.3519000E+00  0.5064156E-02
 0.3530000E+00  0.4830471E-02
 0.3541000E+00  0.4608806E-02
 0.3552000E+00  0.4398866E-02
 0.3563000E+00  0.4200286E-02
 0.3574000E+00  0.4012655E-02
 0.3585000E+00  0.3835524E-02
 0.3596000E+00  0.3668428E-02
 0.3607000E+00  0.3510888E-02
 0.3618000E+00  0.3362427E-02
 0.3629000E+00  0.3222570E-02
 0.3640000E+00  0.3090858E-02
 0.3651000E+00  0.2966848E-02
 0.3662000E+00  0.2850119E-02
 0.3673000E+00  0.2740274E-02
 0.3684000E+00  0.2636945E-02
 0.3695000E+00  0.2539786E-02
 0.3706000E+00  0.2448480E-02
 0.3717000E+00  0.2362733E-02
 0.3728000E+00  0.2282276E-02
 0.3739000E+00  0.2206865E-02
 0.3750000E+00  0.2136280E-02
 0.3761000E+00  0.2070324E-02
 0.3772000E+00  0.2008822E-02
 0.3783000E+00  0.1951616E-02
 0.3794000E+00  0.1898571E-02
 0.3805000E+00  0.1849566E-02
 0.3816000E+00  0.1804503E-02
 0.3827000E+00  0.1763305E-02
 0.3838000E+00  0.1725923E-02
 0.3849000E+00  0.1692336E-02
 0.3860000E+00  0.1662557E-02
 0.3871000E+00  0.1636633E-02
 0.3882000E+00  0.1614646E-02
 0.3893000E+00  0.1596713E-02
 0.3904000E+00  0.1582989E-02
 0.3915000E+00  0.1573663E-02
 0.3926000E+00  0.1568960E-02
 0.3937000E+00  0.1569145E-02
 0.3948000E+00  0.1574516E-02
 0.3959000E+00  0.1585406E-02
 0.3970000E+00  0.1602178E-02
 0.3981000E+00  0.1625217E-02
 0.3992000E+00  0.1654922E-02
 0.4003000E+00  0.1691697E-02
 0.4014000E+00  0.1735932E-02
 0.4025000E+00  0.1787996E-02
 0.4036000E+00  0.1848219E-02
 0.4047000E+00  0.1916879E-02
 0.4058000E+00  0.1994184E-02
 0.4069000E+00  0.2080257E-02
 0.4080000E+00  0.2175114E-02
 0.4091000E+00  0.2278648E-02
 0.4102000E+00  0.2390604E-02
 0.4113000E+00  0.2510566E-02
 0.4124000E+00  0.2637937E-02
 0.4135000E+00  0.2771924E-02
 0.4146000E+00  0.2911532E-02
 0.4157000E+00  0.3055547E-02
 0.4168000E+00  0.3202539E-02
 0.4179000E+00  0.3350848E-02
 0.4190000E+00  0.3498586E-02
 0.4201000E+00  0.3643641E-02
 0.4212000E+00  0.3783681E-02
 0.4223000E+00  0.3916172E-02
 0.4234000E+00  0.4038396E-02
 0.4245000E+00  0.4147477E-02
 0.4256000E+00  0.4240412E-02
 0.4267000E+00  0.4314107E-02
 0.4278000E+00  0.4365408E-02
 0.4289000E+00  0.4391143E-02
 0.4300000E+00  0.4388163E-02
 0.4311000E+00  0.4353387E-02
 0.4322000E+00  0.4283855E-02
 0.4333000E+00  0.4176782E-02
 0.4344000E+00  0.4029607E-02
 0.4355000E+00  0.3840056E-02
 0.4366000E+00  0.3606183E-02
 0.4377000E+00  0.3326423E-02
 0.4388000E+00  0.2999634E-02
 0.4399000E+00  0.2625138E-02
 0.4410000E+00  0.2202751E-02
 0.4421000E+00  0.1732827E-02
 0.4432000E+00  0.1216274E-02
 0.4443000E+00  0.6545773E-03
 0.4454000E+00  0.4980933E-04
 0.4465000E+00 -0.5953740E-03
 0.4476000E+00 -0.1277743E-02
 0.4487000E+00 -0.1993512E-02
 0.4498000E+00 -0.2738368E-02
 0.4509000E+00 -0.3507507E-02
 0.4520000E+00 -0.4295668E-02
 0.4531000E+00 -0.5097188E-02
 0.4542000E+00 -0.5906058E-02
 0.4553000E+00 -0.6715985E-02
 0.4564000E+00 -0.7520466E-02
 0.4575000E+00 -0.8312867E-02
 0.4586000E+00 -0.9086498E-02
 0.4597000E+00 -0.9834704E-02
 0.4608000E+00 -0.1055094E-01
 0.4619000E+00 -0.1122887E-01
 0.4630000E+00 -0.1186241E-01
 0.4641000E+00 -0.1244584E-01
 0.4652000E+00 -0.1297387E-01
 0.4663000E+00 -0.1344168E-01
 0.4674000E+00 -0.1384503E-01
 0.4685000E+00 -0.1418025E-01
 0.4696000E+00 -0.1444436E-01
 0.4707000E+00 -0.1463505E-01
 0.4718000E+00 -0.1475074E-01
 0.4729000E+00 -0.1479058E-01
 0.4740000E+00 -0.1475445E-01
 0.4751000E+00 -0.1464299E-01
 0.4762000E+00 -0.1445755E-01
 0.4773000E+00 -0.1420017E-01
 0.4784000E+00 -0.1387356E-01
 0.4795000E+00 -0.1348109E-01
 0.4806000E+00 -0.1302666E-01
 0.4817000E+00 -0.1251472E-01
 0.4828000E+00 -0.1195018E-01
 0.4839000E+00 -0.1133832E-01
 0.4850000E+00 -0.1068477E-01
 0.4861000E+00 -0.9995380E-02
 0.4872000E+00 -0.9276174E-02
 0.4883000E+00 -0.8533284E-02
 0.4894000E+00 -0.7772869E-02
 0.4905000E+00 -0.7001049E-02
 0.4916000E+00 -0.6223834E-02
 0.4927000E+00 -0.5447054E-02
 0.4938000E+00 -0.4676303E-02
 0.4949000E+00 -0.3916875E-02
 0.4960000E+00 -0.3173721E-02
 0.4971000E+00 -0.2451409E-02
 0.4982000E+00 -0.1754096E-02
 0.4993000E+00 -0.1085498E-02
 0.5004000E+00 -0.4488753E-03
 0.5015000E+00  0.1529853E-03
 0.5026000E+00  0.7177779E-03
 0.5037000E+00  0.1243681E-02
 0.5048000E+00  0.1729351E-02
 0.5059000E+00  0.2173909E-02
 0.5070000E+00  0.2576920E-02
 0.5081000E+00  0.2938370E-02
 0.5092000E+00  0.3258636E-02
 0.5103000E+00  0.3538460E-02
 0.5114000E+00  0.3778915E-02
 0.5125000E+00  0.3981374E-02
 0.5136000E+00  0.4147468E-02
 0.5147000E+00  0.4279055E-02
 0.5158000E+00  0.4378175E-02
 0.5169000E+00  0.4447014E-02
 0.5180000E+00  0.4487863E-02
 0.5191000E+00  0.4503085E-02
 0.5202000E+00  0.4495079E-02
 0.5213000E+00  0.4466253E-02
 0.5224000E+00  0.4418992E-02
 0.5235000E+00  0.4355632E-02
 0.5246000E+00  0.4278438E-02
 0.5257000E+00  0.4189582E-02
 0.5268000E+00  0.4091120E-02
 0.5279000E+00  0.3984984E-02
 0.5290000E+00  0.3872961E-02
 0.5301000E+00  0.3756688E-02
 0.5312000E+00  0.3637646E-02
 0.5323000E+00  0.3517156E-02
 0.5334000E+00  0.3396379E-02
 0.5345000E+00  0.3276321E-02
 0.5356000E+00  0.3157834E-02
 0.5367000E+00  0.3041625E-02
 0.5378000E+00  0.2928260E-02
 0.5389000E+00  0.2818177E-02
 0.5400000E+00  0.2711694E-02
 0.5411000E+00  0.2609018E-02
 0.5422000E+00  0.2510261E-02
 0.5433000E+00  0.2415444E-02
 0.5444000E+00  0.2324517E-02
 0.5455000E+00  0.2237362E-02
 0.5466000E+00  0.2153815E-02
 0.5477000E+00  0.2073671E-02
 0.5488000E+00  0.1996693E-02
 0.5499000E+00  0.1922629E-02
 0.5510000E+00  0.1851207E-02
 0.5521000E+00  0.1782150E-02
 0.5532000E+00  0.1715180E-02
 0.5543000E+00  0.1650018E-02
 0.5554000E+00  0.1586396E-02
 0.5565000E+00  0.1524054E-02
 0.5576000E+00  0.1462742E-02
 0.5587000E+00  0.1402219E-02
 0.5598000E+00  0.1342249E-02
 0.5609000E+00  0.1282600E-02
 0.5620000E+00  0.1223042E-02
 0.5631000E+00  0.1163347E-02
 0.5642000E+00  0.1103286E-02
 0.5653000E+00  0.1042630E-02
 0.5664000E+00  0.9811486E-03
 0.5675000E+00  0.9186040E-03
 0.5686000E+00  0.8547500E-03
 0.5697000E+00  0.7893305E-03
 0.5708000E+00  0.7220802E-03
 0.5719000E+00  0.6527281E-03
 0.5730000E+00  0.5810020E-03
 0.5741000E+00  0.5066335E-03
 0.5752000E+00  0.4293624E-03
 0.5763000E+00  0.3489421E-03
 0.5774000E+00  0.2651450E-03
 0.5785000E+00  0.1777703E-03
 0.5796000E+00  0.8665352E-04
 0.5807000E+00 -0.8322487E-05
 0.5818000E+00 -0.1072166E-03
 0.5829000E+00 -0.2100189E-03
 0.5840000E+00 -0.3166417E-03
 0.5851000E+00 -0.4269110E-03
 0.5862000E+00 -0.5405587E-03
 0.5873000E+00 -0.6572145E-03
 0.5884000E+00 -0.7763982E-03
 0.5895000E+00 -0.8975129E-03
 0.5906000E+00 -0.1019840E-02
 0.5917000E+00 -0.1142540E-02
 0.5928000E+00 -0.1264649E-02
 0.5939000E+00 -0.1385087E-02
 0.5950000E+00 -0.1502662E-02
 0.5961000E+00 -0.1616078E-02
 0.5972000E+00 -0.1723944E-02
 0.5983000E+00 -0.1824782E-02
 0.5994000E+00 -0.1917045E-02
 0.6005000E+00 -0.1999135E-02
 0.6016000E+00 -0.2069422E-02
 0.6027000E+00 -0.2126268E-02
 0.6038000E+00 -0.2168053E-02
 0.6049000E+00 -0.2193198E-02
 0.6060000E+00 -0.2200190E-02
 0.6071000E+00 -0.2187607E-02
 0.6082000E+00 -0.2154140E-02
 0.6093000E+00 -0.2098624E-02
 0.6104000E+00 -0.2020062E-02
 0.6115000E+00 -0.1917652E-02
 0.6126000E+00 -0.1790812E-02
 0.6137000E+00 -0.1639199E-02
 0.6148000E+00 -0.1462727E-02
 0.6159000E+00 -0.1261574E-02
 0.6170000E+00 -0.1036200E-02
 0.6181000E+00 -0.7873425E-03
 0.6192000E+00 -0.5160286E-03
 0.6203000E+00 -0.2235720E-03
 0.6214000E+00  0.8842848E-04
 0.6225000E+00  0.4180995E-03
 0.6236000E+00  0.7633092E-03
 0.6247000E+00  0.1121689E-02
 0.6258000E+00  0.1490661E-02
 0.6269000E+00  0.1867468E-02
 0.6280000E+00  0.2249199E-02
 0.6291000E+00  0.2632828E-02
 0.6302000E+00  0.3015241E-02
 0.6313000E+00  0.3393275E-02
 0.6324000E+00  0.3763757E-02
 0.6335000E+00  0.4123543E-02
 0.6346000E+00  0.4469567E-02
 0.6357000E+00  0.4798875E-02
 0.6368000E+00  0.5108666E-02
 0.6379000E+00  0.5396327E-02
 0.6390000E+00  0.5659462E-02
 0.6401000E+00  0.5895918E-02
 0.6412000E+00  0.6103812E-02
 0.6423000E+00  0.6281552E-02
 0.6434000E+00  0.6427854E-02
 0.6445000E+00  0.6541757E-02
 0.6456000E+00  0.6622626E-02
 0.6467000E+00  0.6670158E-02
 0.6478000E+00  0.6684382E-02
 0.6489000E+00  0.6665647E-02
 0.6500000E+00  0.6614607E-02
 0.6511000E+00  0.6532214E-02
 0.6522000E+00  0.6419691E-02
 0.6533000E+00  0.6278508E-02
 0.6544000E+00  0.6110362E-02
 0.6555000E+00  0.5917143E-02
 0.6566000E+00  0.5700913E-02
 0.6577000E+00  0.5463876E-02
 0.6588000E+00  0.5208349E-02
 0.6599000E+00  0.4936729E-02
 0.6610000E+00  0.4651461E-02
 0.6621000E+00  0.4355007E-02
 0.6632000E+00  0.4049815E-02
 0.6643000E+00  0.3738293E-02
 0.6654000E+00  0.3422792E-02
 0.6665000E+00  0.3105581E-02
 0.6676000E+00  0.2788837E-02
 0.6687000E+00  0.2474623E-02
 0.6698000E+00  0.2164870E-02
 0.6709000E+00  0.1861365E-02
 0.6720000E+00  0.1565738E-02
 0.6731000E+00  0.1279452E-02
 0.6742000E+00  0.1003804E-02
 0.6753000E+00  0.7399266E-03
 0.6764000E+00  0.4887930E-03
 0.6775000E+00  0.2512192E-03
 0.6786000E+00  0.2786889E-04
 0.6797000E+00 -0.1807454E-03
 0.6808000E+00 -0.3742594E-03
 0.6819000E+00 -0.5524526E-03
 0.6830000E+00 -0.7152396E-03
 0.6841000E+00 -0.8626589E-03
 0.6852000E+00 -0.9948593E-03
 0.6863000E+00 -0.1112085E-02
 0.6874000E+00 -0.1214664E-02
 0.6885000E+00 -0.1302996E-02
 0.6896000E+00 -0.1377546E-02
 0.6907000E+00 -0.1438836E-02
 0.6918000E+00 -0.1487435E-02
 0.6929000E+00 -0.1523955E-02
 0.6940000E+00 -0.1549033E-02
 0.6951000E+00 -0.1563322E-02
 0.6962000E+00 -0.1567481E-02
 0.6973000E+00 -0.1562161E-02
 0.6984000E+00 -0.1548004E-02
 0.6995000E+00 -0.1525639E-02
 0.7006000E+00 -0.1495673E-02
 0.7017000E+00 -0.1458697E-02
 0.7028000E+00 -0.1415271E-02
 0.7039000E+00 -0.1365927E-02
 0.7050000E+00 -0.1311156E-02
 0.7061000E+00 -0.1251411E-02
 0.7072000E+00 -0.1187102E-02
 0.7083000E+00 -0.1118598E-02
 0.7094000E+00 -0.1046230E-02
 0.7105000E+00 -0.9702916E-03
 0.7116000E+00 -0.8910427E-03
 0.7127000E+00 -0.8087105E-03
 0.7138000E+00 -0.7234917E-03
 0.7149000E+00 -0.6355552E-03
 0.7160000E+00 -0.5450462E-03
 0.7171000E+00 -0.4520904E-03
 0.7182000E+00 -0.3567990E-03
 0.7193000E+00 -0.2592735E-03
 0.7204000E+00 -0.1596109E-03
 0.7215000E+00 -0.5791048E-04
 0.7226000E+00  0.4571996E-04
 0.7237000E+00  0.1511570E-03
 0.7248000E+00  0.2582557E-03
 0.7259000E+00  0.3668444E-03
 0.7270000E+00  0.4767206E-03
 0.7281000E+00  0.5876471E-03
 0.7292000E+00  0.6993469E-03
 0.7303000E+00  0.8114979E-03
 0.7314000E+00  0.9237260E-03
 0.7325000E+00  0.1035600E-02
 0.7336000E+00  0.1146630E-02
 0.7347000E+00  0.1256264E-02
 0.7358000E+00  0.1363891E-02
 0.7369000E+00  0.1468842E-02
 0.7380000E+00  0.1570397E-02
 0.7391000E+00  0.1667778E-02
 0.7402000E+00  0.1760161E-02
 0.7413000E+00  0.1846672E-02
 0.7424000E+00  0.1926399E-02
 0.7435000E+00  0.1998398E-02
 0.7446000E+00  0.2061703E-02
 0.7457000E+00  0.2115340E-02
 0.7468000E+00  0.2158339E-02
 0.7479000E+00  0.2189751E-02
 0.7490000E+00  0.2208657E-02
 0.7501000E+00  0.2214185E-02
 0.7512000E+00  0.2205528E-02
 0.7523000E+00  0.2181957E-02
 0.7534000E+00  0.2142837E-02
 0.7545000E+00  0.2087646E-02
 0.7556000E+00  0.2015987E-02
 0.7567000E+00  0.1927605E-02
 0.7578000E+00  0.1822399E-02
 0.7589000E+00  0.1700433E-02
 0.7600000E+00  0.1561946E-02
 0.7611000E+00  0.1407360E-02
 0.7622000E+00  0.1237278E-02
 0.7633000E+00  0.1052495E-02
 0.7644000E+00  0.8539904E-03
 0.7655000E+00  0.6429312E-03
 0.7666000E+00  0.4206639E-03
 0.7677000E+00  0.1887054E-03
 0.7688000E+00 -0.5127059E-04
 0.7699000E+00 -0.2974510E-03
 0.7710000E+00 -0.5479025E-03
 0.7721000E+00 -0.8005927E-03
 0.7732000E+00 -0.1053411E-02
 0.7743000E+00 -0.1304192E-02
 0.7754000E+00 -0.1550739E-02
 0.7765000E+00 -0.1790852E-02
 0.7776000E+00 -0.2022355E-02
 0.7787000E+00 -0.2243122E-02
 0.7798000E+00 -0.2451109E-02
 0.7809000E+00 -0.2644374E-02
 0.7820000E+00 -0.2821104E-02
 0.7831000E+00 -0.2979635E-02
 0.7842000E+00 -0.3118468E-02
 0.7853000E+00 -0.3236291E-02
 0.7864000E+00 -0.3331992E-02
 0.7875000E+00 -0.3404673E-02
 0.7886000E+00 -0.3453658E-02
 0.7897000E+00 -0.3478502E-02
 0.7908000E+00 -0.3478987E-02
 0.7919000E+00 -0.3455131E-02
 0.7930000E+00 -0.3407171E-02
 0.7941000E+00 -0.3335567E-02
 0.7952000E+00 -0.3240981E-02
 0.7963000E+00 -0.3124273E-02
 0.7974000E+00 -0.2986480E-02
 0.7985000E+00 -0.2828805E-02
 0.7996000E+00 -0.2652605E-02
 0.8007000E+00 -0.2459365E-02
 0.8018000E+00 -0.2250689E-02
 0.8029000E+00 -0.2028273E-02
 0.8040000E+00 -0.1793886E-02
 0.8051000E+00 -0.1549347E-02
 0.8062000E+00 -0.1296510E-02
 0.8073000E+00 -0.1037244E-02
 0.8084000E+00 -0.7734223E-03
 0.8095000E+00 -0.5069061E-03
 0.8106000E+00 -0.2395326E-03
 0.8117000E+00  0.2689973E-04
 0.8128000E+00  0.2906462E-03
 0.8139000E+00  0.5500278E-03
 0.8150000E+00  0.8034405E-03
 0.8161000E+00  0.1049361E-02
 0.8172000E+00  0.1286351E-02
 0.8183000E+00  0.1513057E-02
 0.8194000E+00  0.1728215E-02
 0.8205000E+00  0.1930649E-02
 0.8216000E+00  0.2119284E-02
 0.8227000E+00  0.2293139E-02
 0.8238000E+00  0.2451336E-02
 0.8249000E+00  0.2593099E-02
 0.8260000E+00  0.2717754E-02
 0.8271000E+00  0.2824724E-02
 0.8282000E+00  0.2913530E-02
 0.8293000E+00  0.2983792E-02
 0.8304000E+00  0.3035227E-02
 0.8315000E+00  0.3067652E-02
 0.8326000E+00  0.3080985E-02
 0.8337000E+00  0.3075248E-02
 0.8348000E+00  0.3050567E-02
 0.8359000E+00  0.3007171E-02
 0.8370000E+00  0.2945390E-02
 0.8381000E+00  0.2865656E-02
 0.8392000E+00  0.2768499E-02
 0.8403000E+00  0.2654555E-02
 0.8414000E+00  0.2524561E-02
 0.8425000E+00  0.2379365E-02
 0.8436000E+00  0.2219915E-02
 0.8447000E+00  0.2047264E-02
 0.8458000E+00  0.1862555E-02
 0.8469000E+00  0.1667023E-02
 0.8480000E+00  0.1461981E-02
 0.8491000E+00  0.1248820E-02
 0.8502000E+00  0.1029000E-02
 0.8513000E+00  0.8040444E-03
 0.8524000E+00  0.5755316E-03
 0.8535000E+00  0.3450796E-03
 0.8546000E+00  0.1143302E-03
 0.8557000E+00 -0.1150679E-03
 0.8568000E+00 -0.3414759E-03
 0.8579000E+00 -0.5632798E-03
 0.8590000E+00 -0.7789045E-03
 0.8601000E+00 -0.9868281E-03
 0.8612000E+00 -0.1185597E-02
 0.8623000E+00 -0.1373842E-02
 0.8634000E+00 -0.1550298E-02
 0.8645000E+00 -0.1713817E-02
 0.8656000E+00 -0.1863387E-02
 0.8667000E+00 -0.1998139E-02
 0.8678000E+00 -0.2117364E-02
 0.8689000E+00 -0.2220512E-02
 0.8700000E+00 -0.2307202E-02
 0.8711000E+00 -0.2377221E-02
 0.8722000E+00 -0.2430527E-02
 0.8733000E+00 -0.2467247E-02
 0.8744000E+00 -0.2487675E-02
 0.8755000E+00 -0.2492266E-02
 0.8766000E+00 -0.2481627E-02
 0.8777000E+00 -0.2456507E-02
 0.8788000E+00 -0.2417784E-02
 0.8799000E+00 -0.2366442E-02
 0.8810000E+00 -0.2303561E-02
 0.8821000E+00 -0.2230296E-02
 0.8832000E+00 -0.2147858E-02
 0.8843000E+00 -0.2057504E-02
 0.8854000E+00 -0.1960517E-02
 0.8865000E+00 -0.1858189E-02
 0.8876000E+00 -0.1751804E-02
 0.8887000E+00 -0.1642623E-02
 0.8898000E+00 -0.1531863E-02
 0.8909000E+00 -0.1420684E-02
 0.8920000E+00 -0.1310183E-02
 0.8931000E+00 -0.1201383E-02
 0.8942000E+00 -0.1095229E-02
 0.8953000E+00 -0.9925857E-03
 0.8964000E+00 -0.8942302E-03
 0.8975000E+00 -0.8008524E-03
 0.8986000E+00 -0.7130512E-03
 0.8997000E+00 -0.6313339E-03
 0.9008000E+00 -0.5561178E-03
 0.9019000E+00 -0.4877344E-03
 0.9030000E+00 -0.4264341E-03
 0.9041000E+00 -0.3723928E-03
 0.9052000E+00 -0.3257173E-03
 0.9063000E+00 -0.2864496E-03
 0.9074000E+00 -0.2545703E-03
 0.9085000E+00 -0.2299997E-03
 0.9096000E+00 -0.2126000E-03
 0.9107000E+00 -0.2021776E-03
 0.9118000E+00 -0.1984863E-03
 0.9129000E+00 -0.2012329E-03
 0.9140000E+00 -0.2100811E-03
 0.9151000E+00 -0.2246554E-03
 0.9162000E+00 -0.2445416E-03
 0.9173000E+00 -0.2692857E-03
 0.9184000E+00 -0.2983919E-03
 0.9195000E+00 -0.3313223E-03
 0.9206000E+00 -0.3674986E-03
 0.9217000E+00 -0.4063074E-03
 0.9228000E+00 -0.4471072E-03
 0.9239000E+00 -0.4892349E-03
 0.9250000E+00 -0.5320121E-03
 0.9261000E+00 -0.5747479E-03
 0.9272000E+00 -0.6167428E-03
 0.9283000E+00 -0.6572923E-03
 0.9294000E+00 -0.6956931E-03
 0.9305000E+00 -0.7312535E-03
 0.9316000E+00 -0.7633034E-03
 0.9327000E+00 -0.7912068E-03
 0.9338000E+00 -0.8143716E-03
 0.9349000E+00 -0.8322574E-03
 0.9360000E+00 -0.8443810E-03
 0.9371000E+00 -0.8503204E-03
 0.9382000E+00 -0.8497192E-03
 0.9393000E+00 -0.8422913E-03
 0.9404000E+00 -0.8278252E-03
 0.9415000E+00 -0.8061891E-03
 0.9426000E+00 -0.7773337E-03
 0.9437000E+00 -0.7412933E-03
 0.9448000E+00 -0.6981845E-03
 0.9459000E+00 -0.6482022E-03
 0.9470000E+00 -0.5916132E-03
 0.9481000E+00 -0.5287504E-03
 0.9492000E+00 -0.4600057E-03
 0.9503000E+00 -0.3858256E-03
 0.9514000E+00 -0.3067060E-03
 0.9525000E+00 -0.2231872E-03
 0.9536000E+00 -0.1358486E-03
 0.9547000E+00 -0.4530030E-04
 0.9558000E+00  0.4782495E-04
 0.9569000E+00  0.1428812E-03
 0.9580000E+00  0.2392165E-03
 0.9591000E+00  0.3361783E-03
 0.9602000E+00  0.4331168E-03
 0.9613000E+00  0.5293865E-03
 0.9624000E+00  0.6243484E-03
 0.9635000E+00  0.7173727E-03
 0.9646000E+00  0.8078429E-03
 0.9657000E+00  0.8951594E-03
 0.9668000E+00  0.9787434E-03
 0.9679000E+00  0.1058039E-02
 0.9690000E+00  0.1132515E-02
 0.9701000E+00  0.1201664E-02
 0.9712000E+00  0.1265006E-02
 0.9723000E+00  0.1322090E-02
 0.9734000E+00  0.1372494E-02
 0.9745000E+00  0.1415832E-02
 0.9756000E+00  0.1451757E-02
 0.9767000E+00  0.1479966E-02
 0.9778000E+00  0.1500204E-02
 0.9789000E+00  0.1512266E-02