 -0.119999997         0.00000000    
 -0.119000003         0.00000000    
 -0.118000001         0.00000000    
 -0.116999999         0.00000000    
 -0.115999997         0.00000000    
 -0.115000002         0.00000000    
 -0.114000000         0.00000000    
 -0.112999998         0.00000000    
 -0.112000003         0.00000000    
 -0.111000001         0.00000000    
 -0.109999999         0.00000000    
 -0.108999997         0.00000000    
 -0.108000003         0.00000000    
 -0.107000001         0.00000000    
 -0.105999999         0.00000000    
 -0.104999997         0.00000000    
 -0.104000002         0.00000000    
 -0.103000000         0.00000000    
 -0.101999998         0.00000000    
 -0.101000004         0.00000000    
 -0.100000001         0.00000000    
  -9.89999995E-02     0.00000000    
  -9.79999974E-02     0.00000000    
  -9.70000029E-02     0.00000000    
  -9.60000008E-02     0.00000000    
  -9.49999988E-02     0.00000000    
  -9.39999968E-02     0.00000000    
  -9.30000022E-02     0.00000000    
  -9.20000002E-02     0.00000000    
  -9.09999982E-02     0.00000000    
  -9.00000036E-02     0.00000000    
  -8.90000015E-02     0.00000000    
  -8.79999995E-02     0.00000000    
  -8.69999975E-02     0.00000000    
  -8.60000029E-02     0.00000000    
  -8.50000009E-02     0.00000000    
  -8.39999989E-02     0.00000000    
  -8.29999968E-02     0.00000000    
  -8.20000023E-02     0.00000000    
  -8.10000002E-02     0.00000000    
  -7.99999982E-02     0.00000000    
  -7.90000036E-02     0.00000000    
  -7.80000016E-02     0.00000000    
  -7.69999996E-02     0.00000000    
  -7.59999976E-02     0.00000000    
  -7.50000030E-02     0.00000000    
  -7.40000010E-02     0.00000000    
  -7.29999989E-02     0.00000000    
  -7.19999969E-02    -0.00000000    
  -7.10000023E-02     0.00000000    
  -7.00000003E-02    -0.00000000    
  -6.89999983E-02    -0.00000000    
  -6.80000037E-02    -1.63437111E-38
  -6.70000017E-02    -2.26779515E-38
  -6.59999996E-02     3.86821883E-38
  -6.49999976E-02     2.00043203E-37
  -6.40000030E-02     3.55561212E-37
  -6.30000010E-02     2.70005282E-37
  -6.19999990E-02    -4.39155325E-37
  -6.10000007E-02    -2.00262707E-36
  -5.99999987E-02    -3.83000224E-36
  -5.90000004E-02    -3.67605187E-36
  -5.79999983E-02     2.37414201E-36
  -5.70000000E-02     1.74337823E-35
  -5.60000017E-02     3.77232581E-35
  -5.49999997E-02     4.46757964E-35
  -5.40000014E-02     2.98823073E-36
  -5.29999994E-02    -1.21899338E-34
  -5.20000011E-02    -3.15928066E-34
  -5.09999990E-02    -4.48688398E-34
  -5.00000007E-02    -2.40184789E-34
  -4.89999987E-02     6.37449602E-34
  -4.80000004E-02     2.22923045E-33
  -4.69999984E-02     3.77703784E-33
  -4.60000001E-02     3.34252921E-33
  -4.50000018E-02    -1.75217021E-33
  -4.39999998E-02    -1.29345198E-32
  -4.30000015E-02    -2.68227269E-32
  -4.19999994E-02    -3.18463284E-32
  -4.10000011E-02    -9.10867430E-33
  -3.99999991E-02     5.74110089E-32
  -3.90000008E-02     1.59353129E-31
  -3.79999988E-02     2.38724447E-31
  -3.70000005E-02     1.80613061E-31
  -3.59999985E-02    -1.44500323E-31
  -3.50000001E-02    -7.67337604E-31
  -3.40000018E-02    -1.45890218E-30
  -3.29999998E-02    -1.62334811E-30
  -3.20000015E-02    -4.18417872E-31
  -3.09999995E-02     2.73366327E-30
  -2.99999993E-02     7.26464762E-30
  -2.89999992E-02     1.06070847E-29
  -2.80000009E-02     8.20890173E-30
  -2.70000007E-02    -4.58933984E-30
  -2.60000005E-02    -2.84135213E-29
  -2.50000004E-02    -5.46739312E-29
  -2.40000002E-02    -6.28583029E-29
  -2.30000000E-02    -2.54292086E-29
  -2.19999999E-02     7.57743113E-29
  -2.09999997E-02     2.23686772E-28
  -1.99999996E-02     3.43119659E-28
  -1.89999994E-02     3.03460765E-28
  -1.79999992E-02    -2.91342856E-29
  -1.70000009E-02    -6.83862045E-28
  -1.60000008E-02    -1.45579667E-27
  -1.49999997E-02    -1.84003174E-27
  -1.40000004E-02    -1.14472923E-27
  -1.30000003E-02     1.13694231E-27
  -1.20000001E-02     4.74876084E-27
  -1.09999999E-02     8.15297298E-27
  -9.99999978E-03     8.53317697E-27
  -8.99999961E-03     2.78999437E-27
  -8.00000038E-03    -1.03478444E-26
  -7.00000022E-03    -2.77233979E-26
  -6.00000005E-03    -4.02063267E-26
  -4.99999989E-03    -3.42760156E-26
  -4.00000019E-03     1.77853641E-27
  -3.00000003E-03     6.77381424E-26
  -2.00000009E-03     1.41576423E-25
  -1.00000005E-03     1.77219538E-25
   0.00000000         1.17765581E-25
   1.00000005E-03    -7.29051444E-26
   2.00000009E-03    -3.68038988E-25
   3.00000003E-03    -6.46953950E-25
   4.00000019E-03    -7.05339222E-25
   4.99999989E-03    -3.31382446E-25
   6.00000005E-03     5.55108452E-25
   7.00000022E-03     1.74897385E-24
   8.00000038E-03     2.68531072E-24
   8.99999961E-03     2.55265508E-24
   9.99999978E-03     6.52976163E-25
   1.09999999E-02    -3.05583356E-24
   1.20000001E-02    -7.46602889E-24
   1.30000003E-02    -1.02337490E-23
   1.40000004E-02    -8.43746849E-24
   1.49999997E-02    -5.98649901E-26
   1.60000008E-02     1.41102745E-23
   1.70000009E-02     2.90975447E-23
   1.79999992E-02     3.61039422E-23
   1.89999994E-02     2.55199169E-23
   1.99999996E-02    -7.61502341E-24
   2.09999997E-02    -5.75670551E-23
   2.19999999E-02    -1.04674660E-22
   2.30000000E-02    -1.18672133E-22
   2.40000002E-02    -7.05453758E-23
   2.50000004E-02     4.91620420E-23
   2.60000005E-02     2.12863349E-22
   2.70000007E-02     3.50326539E-22
   2.80000009E-02     3.65282938E-22
   2.89999992E-02     1.77163064E-22
   2.99999993E-02    -2.22500503E-22
   3.09999995E-02    -7.24094390E-22
   3.20000015E-02    -1.09726851E-21
   3.29999998E-02    -1.05709664E-21
   3.40000018E-02    -3.98083926E-22
   3.50000001E-02     8.45049208E-22
   3.59999985E-02     2.28828187E-21
   3.70000005E-02     3.23080793E-21
   3.79999988E-02     2.88440646E-21
   3.90000008E-02     7.70693931E-22
   3.99999991E-02    -2.85305963E-21
   4.10000011E-02    -6.76506998E-21
   4.19999994E-02    -8.97352105E-21
   4.30000015E-02    -7.43408461E-21
   4.39999998E-02    -1.14593737E-21
   4.50000018E-02     8.79844876E-21
   4.60000001E-02     1.88103279E-20
   4.69999984E-02     2.35734891E-20
   4.80000004E-02     1.81084829E-20
   4.89999987E-02     6.02815495E-22
   5.00000007E-02    -2.51805023E-20
   5.09999990E-02    -4.94062346E-20
   5.20000011E-02    -5.86967880E-20
   5.29999994E-02    -4.16580273E-20
   5.40000014E-02     4.25387768E-21
   5.49999997E-02     6.76062857E-20
   5.60000017E-02     1.23061340E-19
   5.70000000E-02     1.38782114E-19
   5.79999983E-02     9.03055434E-20
   5.90000004E-02    -2.37595724E-20
   5.99999987E-02    -1.71691495E-19
   6.10000007E-02    -2.91775786E-19
   6.19999990E-02    -3.12170053E-19
   6.30000010E-02    -1.83757294E-19
   6.40000030E-02     8.59836152E-20
   6.49999976E-02     4.15173582E-19
   6.59999996E-02     6.61036837E-19
   6.70000017E-02     6.69510268E-19
   6.80000037E-02     3.48953457E-19
   6.89999983E-02    -2.60816225E-19
   7.00000003E-02    -9.60991759E-19
   7.10000023E-02    -1.43661399E-18
   7.19999969E-02    -1.37307536E-18
   7.29999989E-02    -6.13337260E-19
   7.40000010E-02     7.09172648E-19
   7.50000030E-02     2.13712451E-18
   7.59999976E-02     3.00592802E-18
   7.69999996E-02     2.70270057E-18
   7.80000016E-02     9.85873455E-19
   7.90000036E-02    -1.77354844E-18
   7.99999982E-02    -4.57435428E-18
   8.10000002E-02    -6.07209341E-18
   8.20000023E-02    -5.12629675E-18
   8.29999968E-02    -1.42073399E-18
   8.39999989E-02     4.12515840E-18
   8.50000009E-02     9.41992951E-18
   8.60000029E-02     1.18530854E-17
   8.69999975E-02     9.39732349E-18
   8.79999995E-02     1.75826917E-18
   8.90000015E-02    -8.97213115E-18
   9.00000036E-02    -1.86200159E-17
   9.09999982E-02    -2.23216392E-17
   9.20000002E-02    -1.66429831E-17
   9.30000022E-02    -1.61336491E-18
   9.39999968E-02     1.83263817E-17
   9.49999988E-02     3.52140184E-17
   9.60000008E-02     4.03693951E-17
   9.70000029E-02     2.82892229E-17
   9.79999974E-02     6.96462424E-20
   9.89999995E-02    -3.53930103E-17
  0.100000001        -6.35682941E-17
  0.101000004        -6.96606579E-17
  0.101999998        -4.54524332E-17
  0.103000000         5.24244862E-18
  0.104000002         6.54304431E-17
  0.104999997         1.09688914E-16
  0.105999999         1.14003528E-16
  0.107000001         6.72795292E-17
  0.108000003        -2.04908487E-17
  0.108999997        -1.18028906E-16
  0.109999999        -1.82484474E-16
  0.111000001        -1.76788376E-16
  0.112000003        -8.82421057E-17
  0.112999998         6.01003294E-17
  0.114000000         2.12226792E-16
  0.115000002         2.98008055E-16
  0.115999997         2.62835488E-16
  0.116999999         9.65695646E-17
  0.118000001        -1.51899001E-16
  0.119000003        -3.84442367E-16
  0.119999997        -4.88593168E-16
  0.120999999        -3.86738541E-16
  0.122000001        -7.98164109E-17
  0.123000003         3.35945734E-16
  0.123999998         6.92738643E-16
  0.125000000         8.12916260E-16
  0.126000002         5.88298263E-16
  0.127000004         4.42553142E-17
  0.128000006        -6.43859336E-16
  0.128999993        -1.19903739E-15
  0.129999995        -1.34658937E-15
  0.130999997        -9.37510148E-16
  0.131999999        -3.92031399E-17
  0.133000001         1.05348368E-15
  0.134000003         1.90660023E-15
  0.135000005         2.11316446E-15
  0.136000007         1.47632348E-15
  0.136999995         1.30573464E-16
  0.137999997        -1.46373413E-15
  0.138999999        -2.67123423E-15
  0.140000001        -2.93384917E-15
  0.141000003        -2.02748686E-15
  0.142000005        -2.08143762E-16
  0.143000007         1.83607266E-15
  0.143999994         3.23561122E-15
  0.144999996         3.31012747E-15
  0.145999998         1.90781911E-15
  0.147000000        -4.48414266E-16
  0.148000002        -2.70767316E-15
  0.149000004        -3.71154421E-15
  0.150000006        -2.73882259E-15
  0.150999993         5.93493619E-17
  0.151999995         3.55910624E-15
  0.152999997         6.00965556E-15
  0.153999999         5.75115720E-15
  0.155000001         2.04522881E-15
  0.156000003        -4.34271802E-15
  0.157000005        -1.11270229E-14
  0.158000007        -1.51756252E-14
  0.158999994        -1.37152651E-14
  0.159999996        -5.64547205E-15
  0.160999998         7.58614651E-15
  0.162000000         2.20045370E-14
  0.163000003         3.21804147E-14
  0.164000005         3.30987916E-14
  0.165000007         2.21974623E-14
  0.165999994         7.89186473E-16
  0.166999996        -2.57781484E-14
  0.167999998        -4.94484350E-14
  0.169000000        -6.19381255E-14
  0.170000002        -5.75570340E-14
  0.171000004        -3.53574388E-14
  0.172000006         2.10835818E-16
  0.172999993         4.04335684E-14
  0.173999995         7.48781191E-14
  0.174999997         9.44372483E-14
  0.175999999         9.37790969E-14
  0.177000001         7.23890213E-14
  0.178000003         3.40114391E-14
  0.179000005        -1.50015193E-14
  0.180000007        -6.74808381E-14
  0.180999994        -1.16451445E-13
  0.181999996        -1.54979748E-13
  0.182999998        -1.75281109E-13
  0.184000000        -1.68190304E-13
  0.185000002        -1.24249732E-13
  0.186000004        -3.70938428E-14
  0.187000006         9.13749667E-14
  0.187999994         2.45856639E-13
  0.188999996         3.95263276E-13
  0.189999998         4.95593421E-13
  0.191000000         4.99203760E-13
  0.192000002         3.69299128E-13
  0.193000004         9.59919129E-14
  0.194000006        -2.91372774E-13
  0.194999993        -7.20948637E-13
  0.195999995        -1.08758228E-12
  0.196999997        -1.27441417E-12
  0.197999999        -1.18284809E-12
  0.199000001        -7.63643163E-13
  0.200000003        -4.06004474E-14
  0.201000005         8.80551328E-13
  0.202000007         1.82217848E-12
  0.202999994         2.56334971E-12
  0.203999996         2.88241870E-12
  0.204999998         2.60592784E-12
  0.206000000         1.65492663E-12
  0.207000002         8.01204602E-14
  0.208000004        -1.92142070E-12
  0.209000006        -4.01360108E-12
  0.209999993        -5.75642268E-12
  0.210999995        -6.67007161E-12
  0.211999997        -6.32504379E-12
  0.213000000        -4.44914808E-12
  0.214000002        -1.03425493E-12
  0.215000004         3.58207995E-12
  0.216000006         8.68932704E-12
  0.216999993         1.32575114E-11
  0.217999995         1.60858132E-11
  0.218999997         1.60389358E-11
  0.219999999         1.23368772E-11
  0.221000001         4.83823311E-12
  0.222000003        -5.75816521E-12
  0.223000005        -1.78658702E-11
  0.224000007        -2.91664262E-11
  0.224999994        -3.69739482E-11
  0.225999996        -3.87619763E-11
  0.226999998        -3.27568250E-11
  0.228000000        -1.84700952E-11
  0.229000002         2.95981620E-12
  0.230000004         2.87184530E-11
  0.231000006         5.46037347E-11
  0.231999993         7.56278928E-11
  0.232999995         8.68421238E-11
  0.233999997         8.42454231E-11
  0.234999999         6.56204535E-11
  0.236000001         3.11520428E-11
  0.237000003        -1.62789539E-11
  0.238000005        -7.11828027E-11
  0.238999993        -1.25934013E-10
  0.239999995        -1.71591810E-10
  0.240999997        -1.98996333E-10
  0.241999999        -2.00044106E-10
  0.243000001        -1.69023254E-10
  0.244000003        -1.03864653E-10
  0.245000005        -7.14066133E-12
  0.246000007         1.13372763E-10
  0.246999994         2.44748749E-10
  0.247999996         3.69713454E-10
  0.248999998         4.68253269E-10
  0.250000000         5.19954746E-10
  0.250999987         5.06864273E-10
  0.252000004         4.16520929E-10
  0.252999991         2.44725518E-10
  0.254000008        -2.41086556E-12
  0.254999995        -3.07531667E-10
  0.256000012        -6.42463194E-10
  0.256999999        -9.70064029E-10
  0.257999986        -1.24735045E-09
  0.259000003        -1.42958512E-09
  0.259999990        -1.47491874E-09
  0.261000007        -1.34916256E-09
  0.261999995        -1.03033548E-09
  0.263000011        -5.12727805E-10
  0.263999999         1.89674970E-10
  0.264999986         1.04053599E-09
  0.266000003         1.97945593E-09
  0.266999990         2.92153080E-09
  0.268000007         3.75870224E-09
  0.268999994         4.36359482E-09
  0.270000011         4.59659377E-09
  0.270999998         4.31678515E-09
  0.272000015         3.39697559E-09
  0.273000002         1.74240322E-09
  0.273999989        -6.88051061E-10
  0.275000006        -3.86008825E-09
  0.275999993        -7.64416352E-09
  0.277000010        -1.18002887E-08
  0.277999997        -1.59697731E-08
  0.279000014        -1.96753067E-08
  0.280000001        -2.23294006E-08
  0.280999988        -2.32496120E-08
  0.282000005        -2.16774225E-08
  0.282999992        -1.67965766E-08
  0.284000009        -7.74612197E-09
  0.284999996         6.37630881E-09
  0.286000013         2.65245550E-08
  0.287000000         5.37295861E-08
  0.287999988         8.91416363E-08
  0.289000005         1.34088538E-07
  0.289999992         1.90149407E-07
  0.291000009         2.59242483E-07
  0.291999996         3.43726811E-07
  0.293000013         4.46517703E-07
  0.294000000         5.71216276E-07
  0.294999987         7.22254697E-07
  0.296000004         9.05056936E-07
  0.296999991         1.12621615E-06
  0.298000008         1.39368956E-06
  0.298999995         1.71701026E-06
  0.300000012         2.10752046E-06
  0.300999999         2.57862757E-06
  0.301999986         3.14609224E-06
  0.303000003         3.82835424E-06
  0.303999990         4.64690720E-06
  0.305000007         5.62673586E-06
  0.305999994         6.79681716E-06
  0.307000011         8.19069555E-06
  0.307999998         9.84713006E-06
  0.308999985         1.18108228E-05
  0.310000002         1.41331957E-05
  0.310999990         1.68732367E-05
  0.312000006         2.00983977E-05
  0.312999994         2.38855355E-05
  0.314000010         2.83218997E-05
  0.314999998         3.35061777E-05
  0.316000015         3.95495881E-05
  0.317000002         4.65770354E-05
  0.317999989         5.47283416E-05
  0.319000006         6.41594743E-05
  0.319999993         7.50438630E-05
  0.321000010         8.75737023E-05
  0.321999997         1.01961232E-04
  0.323000014         1.18439959E-04
  0.324000001         1.37265772E-04
  0.324999988         1.58717987E-04
  0.326000005         1.83100114E-04
  0.326999992         2.10740502E-04
  0.328000009         2.41992631E-04
  0.328999996         2.77235202E-04
  0.330000013         3.16871883E-04
  0.331000000         3.61330574E-04
  0.331999987         4.11062269E-04
  0.333000004         4.66539292E-04
  0.333999991         5.28253324E-04
  0.335000008         5.96712111E-04
  0.335999995         6.72436261E-04
  0.337000012         7.55954825E-04
  0.338000000         8.47800286E-04
  0.338999987         9.48502624E-04
  0.340000004         1.05858291E-03
  0.340999991         1.17854588E-03
  0.342000008         1.30887132E-03
  0.342999995         1.45000510E-03
  0.344000012         1.60234922E-03
  0.344999999         1.76625024E-03
  0.345999986         1.94198859E-03
  0.347000003         2.12976546E-03
  0.347999990         2.32969038E-03
  0.349000007         2.54176767E-03
  0.349999994         2.76588369E-03
  0.351000011         3.00179375E-03
  0.351999998         3.24910716E-03
  0.352999985         3.50727746E-03
  0.354000002         3.77558894E-03
  0.354999989         4.05314565E-03
  0.356000006         4.33886377E-03
  0.356999993         4.63145971E-03
  0.358000010         4.92944941E-03
  0.358999997         5.23113832E-03
  0.360000014         5.53462468E-03
  0.361000001         5.83779672E-03
  0.361999989         6.13833778E-03
  0.363000005         6.43373141E-03
  0.363999993         6.72127539E-03
  0.365000010         6.99809333E-03
  0.365999997         7.26115145E-03
  0.367000014         7.50728138E-03
  0.368000001         7.73320394E-03
  0.368999988         7.93555472E-03
  0.370000005         8.11092183E-03
  0.370999992         8.25587660E-03
  0.372000009         8.36701319E-03
  0.372999996         8.44098907E-03
  0.374000013         8.47457163E-03
  0.375000000         8.46467540E-03
  0.375999987         8.40841047E-03
  0.377000004         8.30313005E-03
  0.377999991         8.14647414E-03
  0.379000008         7.93641247E-03
  0.379999995         7.67128868E-03
  0.381000012         7.34986132E-03
  0.381999999         6.97133876E-03
  0.382999986         6.53541554E-03
  0.384000003         6.04229653E-03
  0.384999990         5.49272075E-03
  0.386000007         4.88797901E-03
  0.386999995         4.22992371E-03
  0.388000011         3.52097396E-03
  0.388999999         2.76411092E-03
  0.389999986         1.96286826E-03
  0.391000003         1.12131215E-03
  0.391999990         2.44015551E-04
  0.393000007        -6.63977931E-04
  0.393999994        -1.59719493E-03
  0.395000011        -2.54978077E-03
  0.395999998        -3.51555389E-03
  0.397000015        -4.48806584E-03
  0.398000002        -5.46066370E-03
  0.398999989        -6.42656162E-03
  0.400000006        -7.37890974E-03
  0.400999993        -8.31086934E-03
  0.402000010        -9.21568833E-03
  0.402999997        -1.00867804E-02
  0.404000014        -1.09177921E-02
  0.405000001        -1.17026763E-02
  0.405999988        -1.24357631E-02
  0.407000005        -1.31118177E-02
  0.407999992        -1.37260985E-02
  0.409000009        -1.42744090E-02
  0.409999996        -1.47531424E-02
  0.411000013        -1.51593192E-02
  0.412000000        -1.54906185E-02
  0.412999988        -1.57453958E-02
  0.414000005        -1.59226935E-02
  0.414999992        -1.60222426E-02
  0.416000009        -1.60444584E-02
  0.416999996        -1.59904249E-02
  0.418000013        -1.58618744E-02
  0.419000000        -1.56611465E-02
  0.419999987        -1.53911673E-02
  0.421000004        -1.50553910E-02
  0.421999991        -1.46577554E-02
  0.423000008        -1.42026292E-02
  0.423999995        -1.36947474E-02
  0.425000012        -1.31391529E-02
  0.425999999        -1.25411348E-02
  0.426999986        -1.19061628E-02
  0.428000003        -1.12398230E-02
  0.428999990        -1.05477581E-02
  0.430000007        -9.83560085E-03
  0.430999994        -9.10892058E-03
  0.432000011        -8.37315898E-03
  0.432999998        -7.63358781E-03
  0.433999985        -6.89525530E-03
  0.435000002        -6.16294704E-03
  0.435999990        -5.44114970E-03
  0.437000006        -4.73401882E-03
  0.437999994        -4.04535607E-03
  0.439000010        -3.37858777E-03
  0.439999998        -2.73675146E-03
  0.441000015        -2.12248904E-03
  0.442000002        -1.53804303E-03
  0.442999989        -9.85259889E-04
  0.444000006        -4.65596735E-04
  0.444999993         1.98666476E-05
  0.446000010         4.70413768E-04
  0.446999997         8.85672402E-04
  0.448000014         1.26559311E-03
  0.449000001         1.61042542E-03
  0.449999988         1.92069227E-03
  0.451000005         2.19716295E-03
  0.451999992         2.44082557E-03
  0.453000009         2.65285885E-03
  0.453999996         2.83460272E-03
  0.455000013         2.98753171E-03
  0.456000000         3.11322836E-03
  0.456999987         3.21335625E-03
  0.458000004         3.28963669E-03
  0.458999991         3.34382523E-03
  0.460000008         3.37768928E-03
  0.460999995         3.39299045E-03
  0.462000012         3.39146727E-03
  0.463000000         3.37482011E-03
  0.463999987         3.34469834E-03
  0.465000004         3.30268894E-03
  0.465999991         3.25030880E-03
  0.467000008         3.18899611E-03
  0.467999995         3.12010455E-03
  0.469000012         3.04489699E-03
  0.469999999         2.96454504E-03
  0.470999986         2.88012577E-03
  0.472000003         2.79262476E-03
  0.472999990         2.70293560E-03
  0.474000007         2.61186552E-03
  0.474999994         2.52013654E-03
  0.476000011         2.42839032E-03
  0.476999998         2.33718939E-03
  0.477999985         2.24702270E-03
  0.479000002         2.15830933E-03
  0.479999989         2.07140413E-03
  0.481000006         1.98660372E-03
  0.481999993         1.90415210E-03
  0.483000010         1.82424637E-03
  0.483999997         1.74703985E-03
  0.485000014         1.67264568E-03
  0.486000001         1.60114048E-03
  0.486999989         1.53256766E-03
  0.488000005         1.46694109E-03
  0.488999993         1.40425027E-03
  0.490000010         1.34446484E-03
  0.490999997         1.28753739E-03
  0.492000014         1.23340683E-03
  0.493000001         1.18200015E-03
  0.493999988         1.13323354E-03
  0.495000005         1.08701363E-03
  0.495999992         1.04323972E-03
  0.497000009         1.00180553E-03
  0.497999996         9.62602557E-04
  0.499000013         9.25521192E-04
  0.500000000         8.90452415E-04
  0.500999987         8.57288484E-04
  0.501999974         8.25923635E-04
  0.503000021         7.96254259E-04
  0.504000008         7.68179889E-04
  0.504999995         7.41603668E-04
  0.505999982         7.16433045E-04
  0.507000029         6.92580361E-04
  0.508000016         6.69962319E-04
  0.509000003         6.48499932E-04
  0.509999990         6.28117938E-04
  0.510999978         6.08744856E-04
  0.512000024         5.90313575E-04
  0.513000011         5.72761404E-04
  0.513999999         5.56030660E-04
  0.514999986         5.40067907E-04
  0.515999973         5.24824020E-04
  0.517000020         5.10252372E-04
  0.518000007         4.96308727E-04
  0.518999994         4.82950447E-04
  0.519999981         4.70136758E-04
  0.521000028         4.57828690E-04
  0.522000015         4.45989397E-04
  0.523000002         4.34583984E-04
  0.523999989         4.23579215E-04
  0.524999976         4.12943220E-04
  0.526000023         4.02645557E-04
  0.527000010         3.92657414E-04
  0.527999997         3.82952509E-04
  0.528999984         3.73507384E-04
  0.529999971         3.64301814E-04
  0.531000018         3.55318334E-04
  0.532000005         3.46541870E-04
  0.532999992         3.37958976E-04
  0.533999979         3.29557864E-04
  0.535000026         3.21328611E-04
  0.536000013         3.13263969E-04
  0.537000000         3.05360008E-04
  0.537999988         2.97616265E-04
  0.538999975         2.90035474E-04
  0.540000021         2.82622699E-04
  0.541000009         2.75384285E-04
  0.541999996         2.68326927E-04
  0.542999983         2.61457200E-04
  0.544000030         2.54781422E-04
  0.545000017         2.48305965E-04
  0.546000004         2.42036956E-04
  0.546999991         2.35980187E-04
  0.547999978         2.30140387E-04
  0.549000025         2.24520219E-04
  0.550000012         2.19119436E-04
  0.550999999         2.13934240E-04
  0.551999986         2.08956917E-04
  0.552999973         2.04175958E-04
  0.554000020         1.99576243E-04
  0.555000007         1.95139190E-04
  0.555999994         1.90842562E-04
  0.556999981         1.86659920E-04
  0.558000028         1.82559888E-04
  0.559000015         1.78505230E-04
  0.560000002         1.74452318E-04
  0.560999990         1.70350831E-04
  0.561999977         1.66144047E-04
  0.563000023         1.61769334E-04
  0.564000010         1.57158618E-04
  0.564999998         1.52238557E-04
  0.565999985         1.46930004E-04
  0.566999972         1.41147233E-04
  0.568000019         1.34796661E-04
  0.569000006         1.27775929E-04
  0.569999993         1.19973323E-04
  0.570999980         1.11267618E-04
  0.572000027         1.01528232E-04
  0.573000014         9.06151399E-05
  0.574000001         7.83783398E-05
  0.574999988         6.46569315E-05
  0.575999975         4.92778890E-05
  0.577000022         3.20551553E-05
  0.578000009         1.27894273E-05
  0.578999996        -8.73128374E-06
  0.579999983        -3.27304842E-05
  0.580999970        -5.94418743E-05
  0.582000017        -8.91083255E-05
  0.583000004        -1.21981328E-04
  0.583999991        -1.58320676E-04
  0.584999979        -1.98393886E-04
  0.586000025        -2.42474780E-04
  0.587000012        -2.90840893E-04
  0.588000000        -3.43769876E-04
  0.588999987        -4.01534955E-04
  0.589999974        -4.64400277E-04
  0.591000021        -5.32615813E-04
  0.592000008        -6.06412883E-04
  0.592999995        -6.85998821E-04
  0.593999982        -7.71551626E-04
  0.595000029        -8.63213150E-04
  0.596000016        -9.61082464E-04
  0.597000003        -1.06520811E-03
  0.597999990        -1.17558031E-03
  0.598999977        -1.29212369E-03
  0.600000024        -1.41469028E-03
  0.601000011        -1.54305215E-03
  0.601999998        -1.67689368E-03
  0.602999985        -1.81580416E-03
  0.603999972        -1.95926963E-03
  0.605000019        -2.10666563E-03
  0.606000006        -2.25725048E-03
  0.606999993        -2.41015758E-03
  0.607999980        -2.56439205E-03
  0.609000027        -2.71882489E-03
  0.610000014        -2.87218997E-03
  0.611000001        -3.02308076E-03
  0.611999989        -3.16994800E-03
  0.612999976        -3.31109925E-03
  0.614000022        -3.44469934E-03
  0.615000010        -3.56877130E-03
  0.615999997        -3.68120102E-03
  0.616999984        -3.77973984E-03
  0.617999971        -3.86201032E-03
  0.619000018        -3.92551115E-03
  0.620000005        -3.96762369E-03
  0.620999992        -3.98562150E-03
  0.621999979        -3.97667848E-03
  0.623000026        -3.93788237E-03
  0.624000013        -3.86624318E-03
  0.625000000        -3.75870895E-03
  0.625999987        -3.61217861E-03
  0.626999974        -3.42351664E-03
  0.628000021        -3.18956701E-03
  0.629000008        -2.90716765E-03
  0.629999995        -2.57316814E-03
  0.630999982        -2.18444527E-03
  0.632000029        -1.73792208E-03
  0.633000016        -1.23058888E-03
  0.634000003        -6.59523590E-04
  0.634999990        -2.19136800E-05
  0.635999978         6.84920116E-04
  0.637000024         1.46349962E-03
  0.638000011         2.31616292E-03
  0.638999999         3.24503519E-03
  0.639999986         4.25199745E-03
  0.640999973         5.33865113E-03
  0.642000020         6.50627911E-03
  0.643000007         7.75580527E-03
  0.643999994         9.08775069E-03
  0.644999981         1.05021819E-02
  0.646000028         1.19986692E-02
  0.647000015         1.35762263E-02
  0.648000002         1.52332615E-02
  0.648999989         1.69675238E-02
  0.649999976         1.87760368E-02
  0.651000023         2.06550509E-02
  0.652000010         2.25999802E-02
  0.652999997         2.46053506E-02
  0.653999984         2.66647451E-02
  0.654999971         2.87707634E-02
  0.656000018         3.09149828E-02
  0.657000005         3.30879353E-02
  0.657999992         3.52790765E-02
  0.658999979         3.74767967E-02
  0.660000026         3.96684222E-02
  0.661000013         4.18402217E-02
  0.662000000         4.39774729E-02
  0.662999988         4.60644886E-02
  0.663999975         4.80847210E-02
  0.665000021         5.00208214E-02
  0.666000009         5.18548004E-02
  0.666999996         5.35681248E-02
  0.667999983         5.51418886E-02
  0.669000030         5.65569885E-02
  0.670000017         5.77943176E-02
  0.671000004         5.88349700E-02
  0.671999991         5.96604533E-02
  0.672999978         6.02529123E-02
  0.674000025         6.05953820E-02
  0.675000012         6.06720187E-02
  0.675999999         6.04683496E-02
  0.676999986         5.99715151E-02
  0.677999973         5.91705069E-02
  0.679000020         5.80563843E-02
  0.680000007         5.66224754E-02
  0.680999994         5.48645593E-02
  0.681999981         5.27810417E-02
  0.683000028         5.03730662E-02
  0.684000015         4.76446524E-02
  0.685000002         4.46027368E-02
  0.685999990         4.12572473E-02
  0.686999977         3.76210734E-02
  0.688000023         3.37100402E-02
  0.689000010         2.95428131E-02