 -0.12000000000000000          0.0000000000000000     
 -0.11889999999999999          0.0000000000000000     
 -0.11780000000000000          0.0000000000000000     
 -0.11670000000000000          0.0000000000000000     
 -0.11559999999999999          0.0000000000000000     
 -0.11449999999999999          0.0000000000000000     
 -0.11340000000000000          0.0000000000000000     
 -0.11230000000000000          0.0000000000000000     
 -0.11119999999999999          0.0000000000000000     
 -0.11009999999999999          0.0000000000000000     
 -0.10900000000000000          0.0000000000000000     
 -0.10790000000000000          0.0000000000000000     
 -0.10679999999999999          0.0000000000000000     
 -0.10569999999999999          0.0000000000000000     
 -0.10460000000000000          0.0000000000000000     
 -0.10349999999999999          0.0000000000000000     
 -0.10239999999999999          0.0000000000000000     
 -0.10130000000000000          0.0000000000000000     
 -0.10020000000000000          0.0000000000000000     
  -9.9099999999999994E-002     0.0000000000000000     
  -9.7999999999999990E-002     0.0000000000000000     
  -9.6899999999999986E-002     0.0000000000000000     
  -9.5799999999999996E-002     0.0000000000000000     
  -9.4699999999999993E-002     0.0000000000000000     
  -9.3599999999999989E-002     0.0000000000000000     
  -9.2499999999999999E-002     0.0000000000000000     
  -9.1399999999999995E-002     0.0000000000000000     
  -9.0299999999999991E-002     0.0000000000000000     
  -8.9200000000000002E-002     0.0000000000000000     
  -8.8099999999999984E-002     0.0000000000000000     
  -8.6999999999999994E-002     0.0000000000000000     
  -8.5899999999999990E-002     0.0000000000000000     
  -8.4799999999999986E-002     0.0000000000000000     
  -8.3699999999999997E-002     0.0000000000000000     
  -8.2599999999999993E-002     0.0000000000000000     
  -8.1499999999999989E-002     0.0000000000000000     
  -8.0399999999999999E-002     0.0000000000000000     
  -7.9299999999999995E-002     0.0000000000000000     
  -7.8199999999999992E-002     0.0000000000000000     
  -7.7100000000000002E-002     0.0000000000000000     
  -7.5999999999999984E-002     0.0000000000000000     
  -7.4899999999999994E-002     0.0000000000000000     
  -7.3799999999999991E-002     0.0000000000000000     
  -7.2699999999999987E-002     0.0000000000000000     
  -7.1599999999999997E-002     0.0000000000000000     
  -7.0499999999999993E-002     0.0000000000000000     
  -6.9399999999999989E-002     0.0000000000000000     
  -6.8300000000000000E-002     0.0000000000000000     
  -6.7199999999999996E-002     0.0000000000000000     
  -6.6099999999999992E-002     0.0000000000000000     
  -6.5000000000000002E-002     0.0000000000000000     
  -6.3899999999999985E-002     0.0000000000000000     
  -6.2799999999999995E-002     0.0000000000000000     
  -6.1699999999999991E-002     0.0000000000000000     
  -6.0599999999999994E-002     0.0000000000000000     
  -5.9499999999999990E-002     0.0000000000000000     
  -5.8399999999999994E-002     0.0000000000000000     
  -5.7299999999999990E-002     0.0000000000000000     
  -5.6199999999999986E-002     0.0000000000000000     
  -5.5099999999999996E-002     0.0000000000000000     
  -5.3999999999999992E-002     0.0000000000000000     
  -5.2899999999999989E-002     0.0000000000000000     
  -5.1799999999999985E-002     0.0000000000000000     
  -5.0699999999999995E-002     0.0000000000000000     
  -4.9599999999999991E-002     0.0000000000000000     
  -4.8499999999999988E-002     0.0000000000000000     
  -4.7399999999999998E-002     0.0000000000000000     
  -4.6299999999999994E-002     0.0000000000000000     
  -4.5199999999999990E-002     0.0000000000000000     
  -4.4099999999999986E-002     0.0000000000000000     
  -4.2999999999999997E-002     0.0000000000000000     
  -4.1899999999999993E-002     0.0000000000000000     
  -4.0799999999999989E-002     0.0000000000000000     
  -3.9699999999999985E-002     0.0000000000000000     
  -3.8599999999999995E-002     0.0000000000000000     
  -3.7499999999999992E-002     0.0000000000000000     
  -3.6399999999999988E-002     0.0000000000000000     
  -3.5299999999999984E-002     0.0000000000000000     
  -3.4199999999999994E-002     0.0000000000000000     
  -3.3099999999999991E-002     0.0000000000000000     
  -3.1999999999999987E-002     0.0000000000000000     
  -3.0899999999999997E-002     0.0000000000000000     
  -2.9799999999999993E-002     0.0000000000000000     
  -2.8699999999999989E-002     0.0000000000000000     
  -2.7599999999999986E-002     0.0000000000000000     
  -2.6499999999999996E-002     0.0000000000000000     
  -2.5399999999999992E-002     0.0000000000000000     
  -2.4299999999999988E-002     0.0000000000000000     
  -2.3199999999999985E-002     0.0000000000000000     
  -2.2099999999999995E-002     0.0000000000000000     
  -2.0999999999999991E-002     0.0000000000000000     
  -1.9899999999999987E-002     0.0000000000000000     
  -1.8799999999999983E-002     0.0000000000000000     
  -1.7699999999999994E-002     0.0000000000000000     
  -1.6599999999999990E-002     0.0000000000000000     
  -1.5499999999999986E-002     0.0000000000000000     
  -1.4399999999999996E-002     0.0000000000000000     
  -1.3299999999999992E-002     0.0000000000000000     
  -1.2199999999999989E-002     0.0000000000000000     
  -1.1099999999999985E-002     0.0000000000000000     
  -9.9999999999999950E-003     0.0000000000000000     
  -8.8999999999999913E-003     0.0000000000000000     
  -7.7999999999999875E-003     0.0000000000000000     
  -6.6999999999999837E-003     0.0000000000000000     
  -5.5999999999999939E-003     0.0000000000000000     
  -4.4999999999999901E-003     0.0000000000000000     
  -3.3999999999999864E-003     0.0000000000000000     
  -2.2999999999999826E-003     0.0000000000000000     
  -1.1999999999999927E-003     0.0000000000000000     
  -9.9999999999988987E-005     0.0000000000000000     
   1.0000000000000148E-003     0.0000000000000000     
   2.1000000000000185E-003     0.0000000000000000     
   3.2000000000000084E-003     0.0000000000000000     
   4.3000000000000121E-003     0.0000000000000000     
   5.4000000000000159E-003     0.0000000000000000     
   6.5000000000000058E-003     0.0000000000000000     
   7.6000000000000234E-003     0.0000000000000000     
   8.7000000000000133E-003     0.0000000000000000     
   9.8000000000000032E-003     0.0000000000000000     
   1.0900000000000021E-002     0.0000000000000000     
   1.2000000000000011E-002     0.0000000000000000     
   1.3100000000000001E-002     0.0000000000000000     
   1.4200000000000018E-002     0.0000000000000000     
   1.5300000000000008E-002     0.0000000000000000     
   1.6400000000000026E-002     0.0000000000000000     
   1.7500000000000016E-002     0.0000000000000000     
   1.8600000000000005E-002     0.0000000000000000     
   1.9700000000000023E-002     0.0000000000000000     
   2.0800000000000013E-002     0.0000000000000000     
   2.1900000000000003E-002     0.0000000000000000     
   2.3000000000000020E-002     0.0000000000000000     
   2.4100000000000010E-002     0.0000000000000000     
   2.5200000000000000E-002     0.0000000000000000     
   2.6300000000000018E-002     0.0000000000000000     
   2.7400000000000008E-002     0.0000000000000000     
   2.8500000000000025E-002     0.0000000000000000     
   2.9600000000000015E-002     0.0000000000000000     
   3.0700000000000005E-002     0.0000000000000000     
   3.1800000000000023E-002     0.0000000000000000     
   3.2900000000000013E-002     0.0000000000000000     
   3.4000000000000002E-002     0.0000000000000000     
   3.5100000000000020E-002     0.0000000000000000     
   3.6200000000000010E-002     0.0000000000000000     
   3.7300000000000028E-002     0.0000000000000000     
   3.8400000000000017E-002     0.0000000000000000     
   3.9500000000000007E-002     0.0000000000000000     
   4.0600000000000025E-002     0.0000000000000000     
   4.1700000000000015E-002     0.0000000000000000     
   4.2800000000000005E-002     0.0000000000000000     
   4.3900000000000022E-002     0.0000000000000000     
   4.5000000000000012E-002     0.0000000000000000     
   4.6100000000000002E-002     0.0000000000000000     
   4.7200000000000020E-002     0.0000000000000000     
   4.8300000000000010E-002     0.0000000000000000     
   4.9400000000000027E-002     0.0000000000000000     
   5.0500000000000017E-002     0.0000000000000000     
   5.1600000000000007E-002     0.0000000000000000     
   5.2700000000000025E-002     0.0000000000000000     
   5.3800000000000014E-002     0.0000000000000000     
   5.4900000000000004E-002     0.0000000000000000     
   5.6000000000000022E-002     0.0000000000000000     
   5.7100000000000012E-002     0.0000000000000000     
   5.8200000000000002E-002     0.0000000000000000     
   5.9300000000000019E-002     0.0000000000000000     
   6.0400000000000009E-002     0.0000000000000000     
   6.1500000000000027E-002     0.0000000000000000     
   6.2600000000000017E-002     0.0000000000000000     
   6.3700000000000007E-002     0.0000000000000000     
   6.4800000000000024E-002     0.0000000000000000     
   6.5900000000000014E-002     0.0000000000000000     
   6.7000000000000004E-002     0.0000000000000000     
   6.8100000000000022E-002     0.0000000000000000     
   6.9200000000000012E-002     0.0000000000000000     
   7.0300000000000029E-002     0.0000000000000000     
   7.1400000000000019E-002     0.0000000000000000     
   7.2500000000000009E-002     0.0000000000000000     
   7.3600000000000027E-002     0.0000000000000000     
   7.4700000000000016E-002     0.0000000000000000     
   7.5800000000000006E-002     0.0000000000000000     
   7.6900000000000024E-002     0.0000000000000000     
   7.8000000000000014E-002     0.0000000000000000     
   7.9100000000000004E-002     0.0000000000000000     
   8.0200000000000021E-002     0.0000000000000000     
   8.1300000000000011E-002     0.0000000000000000     
   8.2400000000000029E-002     0.0000000000000000     
   8.3500000000000019E-002     0.0000000000000000     
   8.4600000000000009E-002     0.0000000000000000     
   8.5700000000000026E-002     0.0000000000000000     
   8.6800000000000016E-002     0.0000000000000000     
   8.7900000000000006E-002     0.0000000000000000     
   8.9000000000000024E-002     0.0000000000000000     
   9.0100000000000013E-002     0.0000000000000000     
   9.1200000000000003E-002     0.0000000000000000     
   9.2300000000000021E-002     0.0000000000000000     
   9.3400000000000011E-002     0.0000000000000000     
   9.4500000000000028E-002     0.0000000000000000     
   9.5600000000000018E-002     0.0000000000000000     
   9.6700000000000008E-002     0.0000000000000000     
   9.7800000000000026E-002     0.0000000000000000     
   9.8900000000000016E-002     0.0000000000000000     
  0.10000000000000001          0.0000000000000000     
  0.10110000000000002          4.6780859492468420E-044
  0.10220000000000001          8.3197723193883744E-040
  0.10330000000000003          1.8766254121517414E-039
  0.10440000000000002          2.9832109245588460E-039
  0.10550000000000001          2.2186889724957085E-039
  0.10660000000000003         -1.5057232568957405E-039
  0.10770000000000002         -8.2381619839051964E-039
  0.10880000000000001         -1.3538255888175029E-038
  0.10990000000000003         -1.0091374655176049E-038
  0.11100000000000002          3.6388070539417050E-038
  0.11210000000000001          1.0179172350784862E-037
  0.11320000000000002          1.2774204175142759E-037
  0.11430000000000001          4.3621445618611320E-038
  0.11540000000000003         -1.6248261822563977E-037
  0.11650000000000002         -4.2089070776283929E-037
  0.11760000000000001         -5.7434627163750271E-037
  0.11870000000000003         -4.5153057096912481E-037
  0.11980000000000002          4.0250796292015166E-038
  0.12090000000000001          8.2088945323196067E-037
  0.12200000000000003          1.6059038560284173E-036
  0.12310000000000001          1.9208960631079604E-036
  0.12420000000000003          1.2866969018105805E-036
  0.12530000000000002         -5.0593490602710500E-037
  0.12640000000000001         -3.1207038612607834E-036
  0.12750000000000003         -5.5389362682982529E-036
  0.12860000000000002         -6.2101853801519240E-036
  0.12970000000000001         -3.6473147171278496E-036
  0.13080000000000003          2.5887463395793459E-036
  0.13190000000000002          1.1049043544660640E-035
  0.13300000000000001          1.8098378185664331E-035
  0.13410000000000000          1.8757636911038003E-035
  0.13520000000000004          8.9081198500278039E-036
  0.13630000000000003         -1.1786767574208007E-035
  0.13740000000000002         -3.7523107841476034E-035
  0.13850000000000001         -5.6292257681168767E-035
  0.13960000000000000         -5.3439845114279929E-035
  0.14070000000000005         -1.8723153744447465E-035
  0.14180000000000004          4.5367188026744897E-035
  0.14290000000000003          1.1822303234135720E-034
  0.14400000000000002          1.6335059520596497E-034
  0.14510000000000001          1.4091657705793754E-034
  0.14620000000000000          2.8698792902751654E-035
  0.14730000000000004         -1.5631759401599608E-034
  0.14840000000000003         -3.4776836798810582E-034
  0.14950000000000002         -4.4270462456203239E-034
  0.15060000000000001         -3.4143071051682195E-034
  0.15170000000000000         -4.9619078220853583E-036
  0.15280000000000005          4.9398333309840716E-034
  0.15390000000000004          9.5843768294813218E-034
  0.15500000000000003          1.1183952508846249E-033
  0.15610000000000002          7.4678305847005018E-034
  0.15720000000000001         -1.9505364882324666E-034
  0.15830000000000000         -1.4505861250414631E-033
  0.15940000000000004         -2.4774048583592178E-033
  0.16050000000000003         -2.6195202171968830E-033
  0.16160000000000002         -1.4186120574742710E-033
  0.16270000000000001          1.0485154885867108E-033
  0.16380000000000000          3.9830274036452390E-033
  0.16490000000000005          5.9965032758130298E-033
  0.16600000000000004          5.6249319469239210E-033
  0.16710000000000003          2.0992829577582664E-033
  0.16820000000000002         -3.9483409374617577E-033
  0.16930000000000001         -1.0261620634298295E-032
  0.17040000000000000         -1.3541615254387676E-032
  0.17150000000000004         -1.0836955561495736E-032
  0.17260000000000003         -1.2969178225644766E-033
  0.17370000000000002          1.2540110627617970E-032
  0.17480000000000001          2.4821247941916633E-032
  0.17590000000000000          2.8310819066884827E-032
  0.17700000000000005          1.7831383499916706E-032
  0.17810000000000004         -6.1113863511590035E-033
  0.17920000000000003         -3.5461909405421858E-032
  0.18030000000000002         -5.6214811473007232E-032
  0.18140000000000001         -5.3909451394214005E-032
  0.18250000000000000         -2.1434093405885024E-032
  0.18360000000000004          3.4335450723112201E-032
  0.18470000000000003          9.1195201095183486E-032
  0.18580000000000002          1.1828898468385978E-031
  0.18690000000000001          9.0048463813195921E-032
  0.18800000000000000          2.2982674357255000E-033
  0.18910000000000005         -1.1767269724018157E-031
  0.19020000000000004         -2.1491513710242010E-031
  0.19130000000000003         -2.2744240597671801E-031
  0.19240000000000002         -1.1825915546146148E-031
  0.19350000000000001          9.4999452361731104E-032
  0.19460000000000005          3.3030414179792283E-031
  0.19570000000000004          4.6402831143915690E-031
  0.19680000000000003          3.8529862267336259E-031
  0.19790000000000002          6.2785046281548673E-032
  0.19900000000000001         -4.0911260787964269E-031
  0.20010000000000000         -8.1810389012799257E-031
  0.20120000000000005         -9.1100249018098660E-031
  0.20230000000000004         -5.2157689657576786E-031
  0.20340000000000003          3.0426816649939694E-031
  0.20450000000000002          1.2573651794968088E-030
  0.20560000000000000          1.8438045487022563E-030
  0.20670000000000005          1.5959975443040795E-030
  0.20780000000000004          3.4586070391367427E-031
  0.20890000000000003         -1.5705639864643693E-030
  0.21000000000000002         -3.3166017031009949E-030
  0.21110000000000001         -3.8402063607716455E-030
  0.21220000000000000         -2.3840901392592849E-030
  0.21330000000000005          9.8184323120112151E-031
  0.21440000000000003          5.0935800249407878E-030
  0.21550000000000002          7.9356760535023371E-030
  0.21660000000000001          7.4435175524824063E-030
  0.21770000000000000          2.6247776546995634E-030
  0.21880000000000005         -5.5011822619660435E-030
  0.21990000000000004         -1.3725224079105836E-029
  0.22100000000000003         -1.7600006158472026E-029
  0.22210000000000002         -1.3404686868210114E-029
  0.22320000000000001         -4.1650085307123314E-031
  0.22430000000000000          1.7628167969205850E-029
  0.22540000000000004          3.2950371211034997E-029
  0.22650000000000003          3.6449551888777488E-029
  0.22760000000000002          2.2069814364654928E-029
  0.22870000000000001         -8.9464993597735651E-030
  0.22980000000000000         -4.6207024240468746E-029
  0.23090000000000005         -7.2502163962159648E-029
  0.23200000000000004         -7.0490361862390664E-029
  0.23310000000000003         -3.1672899042662123E-029
  0.23420000000000002          3.6276226608029261E-029
  0.23530000000000001          1.0817367675492929E-028
  0.23640000000000000          1.4860902087405205E-028
  0.23750000000000004          1.2683629105463690E-028
  0.23860000000000003          3.4009513600634276E-029
  0.23970000000000002         -1.0536325011909904E-028
  0.24080000000000001         -2.3542830847163762E-028
  0.24190000000000000         -2.8760427926717476E-028
  0.24300000000000005         -2.1142366376343635E-028
  0.24410000000000004         -5.6394393200897816E-030
  0.24520000000000003          2.6611131741138085E-028
  0.24630000000000002          4.8766837348577879E-028
  0.24740000000000001          5.3287645945146857E-028
  0.24850000000000005          3.2582450557891016E-028
  0.24960000000000004         -1.0623409169288775E-028
  0.25070000000000003         -6.1593188146428407E-028
  0.25180000000000002         -9.7373479727685761E-028
  0.25290000000000001         -9.5773163576604735E-028
  0.25400000000000000         -4.6552477148627694E-028
  0.25510000000000005          4.0090432705719751E-028
  0.25620000000000004          1.3268752395607598E-027
  0.25730000000000003          1.8787363729616323E-027
  0.25840000000000002          1.6819373356093428E-027
  0.25950000000000001          6.1949719202557872E-028
  0.26060000000000005         -1.0403934735725272E-027
  0.26170000000000004         -2.6688117383554864E-027
  0.26280000000000003         -3.4813443229512391E-027
  0.26390000000000002         -2.8726964510453601E-027
  0.26500000000000001         -7.5315893788201761E-028
  0.26610000000000000          2.2744333513268143E-027
  0.26720000000000005          5.0230830330804975E-027
  0.26830000000000004          6.1359082240823454E-027
  0.26940000000000003          4.6852926713764078E-027
  0.27050000000000002          7.1725092456913915E-028
  0.27160000000000001         -4.5315616395047704E-027
  0.27270000000000005         -8.9272141782298885E-027
  0.27380000000000004         -1.0226544174362246E-026
  0.27490000000000003         -7.1051621246629280E-027
  0.27600000000000002          3.9733701547515272E-030
  0.27710000000000001          8.7025777818589477E-027
  0.27820000000000000          1.5295848104734571E-026
  0.27930000000000005          1.6226959740259273E-026
  0.28040000000000004          9.7786155635619835E-027
  0.28150000000000003         -2.6980011288641043E-027
  0.28260000000000002         -1.6713530585067004E-026
  0.28370000000000001         -2.6027747561631181E-026
  0.28480000000000005         -2.5174613406422891E-026
  0.28590000000000004         -1.2199855073260932E-026
  0.28700000000000003          9.6215796760674533E-027
  0.28810000000000002          3.2119443239879497E-026
  0.28920000000000001          4.4916913122086844E-026
  0.29030000000000000          3.9748303692958223E-026
  0.29140000000000005          1.4764095094655500E-026
  0.29250000000000004         -2.3170259257284687E-026
  0.29360000000000003         -5.9679030808805481E-026
  0.29470000000000002         -7.7787630096039354E-026
  0.29580000000000001         -6.5082754818094168E-026
  0.29690000000000005         -2.0325474125211013E-026
  0.29800000000000004          4.3610013956829386E-026
  0.29910000000000003          1.0256578675963394E-025
  0.30020000000000002          1.2959107852128084E-025
  0.30130000000000001          1.0639390986338499E-025
  0.30240000000000000          3.3174175061783501E-026
  0.30350000000000005         -6.7905498953176369E-026
  0.30460000000000004         -1.5839481520415778E-025
  0.30570000000000003         -1.9755920742022430E-025
  0.30680000000000002         -1.5997690992994918E-025
  0.30790000000000001         -4.9484960767152076E-026
  0.30900000000000005          9.7465187853671724E-026
  0.31010000000000004          2.2247207476427148E-025
  0.31120000000000003          2.6758225840069406E-025
  0.31230000000000002          2.0140257279396766E-025
  0.31340000000000001          3.7761455866957331E-026
  0.31450000000000006         -1.6289687348899601E-025
  0.31560000000000005         -3.1314192852028234E-025
  0.31670000000000004         -3.3408696382352170E-025
  0.31780000000000003         -1.9350909748534074E-025
  0.31890000000000002          7.0397420930707692E-026
  0.32000000000000001          3.5321139438591602E-025
  0.32110000000000005          5.1982712416568339E-025
  0.32220000000000004          4.6115928670294727E-025
  0.32330000000000003          1.5030276855932811E-025
  0.32440000000000002         -3.2742791931393967E-025
  0.32550000000000001         -7.8924201064627600E-025
  0.32660000000000006         -1.0165179010977386E-024
  0.32770000000000005         -8.4495635739039462E-025
  0.32880000000000004         -2.4879387376828009E-025
  0.32990000000000003          6.1904978147254742E-025
  0.33100000000000002          1.4565464427769170E-024
  0.33210000000000001          1.9116214264066685E-024
  0.33320000000000005          1.7202807642207517E-024
  0.33430000000000004          8.3141816447619610E-025
  0.33540000000000003         -5.3685512659801798E-025
  0.33650000000000002         -1.9438395696718909E-024
  0.33760000000000001         -2.8715156170035158E-024
  0.33870000000000006         -2.9213551599115036E-024
  0.33980000000000005         -1.9868745929080575E-024
  0.34090000000000004         -3.2611890159931904E-025
  0.34200000000000003          1.5088164820945936E-024
  0.34310000000000002          2.8719475218627302E-024
  0.34420000000000001          3.2818525605156733E-024
  0.34530000000000005          2.6323481875386071E-024
  0.34640000000000004          1.2568484121594866E-024
  0.34750000000000003         -1.9959316916850205E-025
  0.34860000000000002         -1.0657762557267505E-024
  0.34970000000000001         -9.7553041626869931E-025
  0.35080000000000006         -9.4574587340918852E-026
  0.35190000000000005          8.8279542663828078E-025
  0.35300000000000004          1.0073872986049918E-024
  0.35410000000000003         -4.5949917956525102E-025
  0.35520000000000002         -3.5719520587624741E-024
  0.35630000000000001         -7.4402095680428848E-024
  0.35740000000000005         -1.0357776956953095E-023
  0.35850000000000004         -1.0348215005264649E-023
  0.35960000000000003         -5.9862734699417719E-024
  0.36070000000000002          2.8008304474713965E-024
  0.36180000000000001          1.4296419341293126E-023
  0.36290000000000006          2.5180338859414086E-023
  0.36400000000000005          3.1389368701889139E-023
  0.36510000000000004          2.9442307731942096E-023
  0.36620000000000003          1.7804452167844778E-023
  0.36730000000000002         -2.2101941845833621E-024
  0.36840000000000006         -2.6389842958577908E-023
  0.36950000000000005         -4.8545350030897175E-023
  0.37060000000000004         -6.2171466879919898E-023
  0.37170000000000003         -6.2335844755472245E-023
  0.37280000000000002         -4.7177006116855360E-023
  0.37390000000000001         -1.8519650480652661E-023
  0.37500000000000006          1.8565023025565936E-023
  0.37610000000000005          5.7038275204516764E-023
  0.37720000000000004          8.9503365687061774E-023
  0.37830000000000003          1.0957029896619722E-022
  0.37940000000000002          1.1259884611904677E-022
  0.38050000000000006          9.5821509576210864E-023
  0.38160000000000005          5.8226988186487333E-023
  0.38270000000000004          7.5642026668719363E-025
  0.38380000000000003         -7.2803726557519669E-023
  0.38490000000000002         -1.5434148832362635E-022
  0.38600000000000001         -2.3009041138933633E-022
  0.38710000000000000         -2.8064710633401722E-022
  0.38819999999999999         -2.8350948575292662E-022
  0.38930000000000009         -2.1864585560980174E-022
  0.39040000000000008         -7.6394914819207436E-023
  0.39150000000000007          1.3439350287849729E-022
  0.39260000000000006          3.8108170292489216E-022
  0.39370000000000005          6.0802775109985683E-022
  0.39480000000000004          7.4547986380571568E-022
  0.39590000000000003          7.2634181167744677E-022
  0.39700000000000002          5.0769308852281321E-022
  0.39810000000000001          9.1381252681782827E-023
  0.39920000000000000         -4.6326315250917368E-022
  0.40029999999999999         -1.0407883552192199E-021
  0.40140000000000009         -1.4883055353099963E-021
  0.40250000000000008         -1.6501105462919272E-021
  0.40360000000000007         -1.4116834460236618E-021
  0.40470000000000006         -7.4228202422437088E-022
  0.40580000000000005          2.7651759727708814E-022
  0.40690000000000004          1.4475603026317281E-021
  0.40800000000000003          2.4865300721275721E-021
  0.40910000000000002          3.0809949078004580E-021
  0.41020000000000001          2.9704933229881843E-021
  0.41130000000000000          2.0304696156629688E-021
  0.41239999999999999          3.3820424890132133E-022
  0.41350000000000009         -1.8011768796865881E-021
  0.41460000000000008         -3.8850946536444815E-021
  0.41570000000000007         -5.3059910862166369E-021
  0.41680000000000006         -5.4966699986643416E-021
  0.41790000000000005         -4.1028399114315162E-021
  0.41900000000000004         -1.1427318451565851E-021
  0.42010000000000003          2.8945001507573077E-021
  0.42120000000000002          7.0576469504809135E-021
  0.42230000000000001          1.0080006911899991E-020
  0.42340000000000000          1.0664668268065092E-020
  0.42449999999999999          7.8698333726876636E-021
  0.42560000000000009          1.5131198082979384E-021
  0.42670000000000008         -7.5196067683578627E-021
  0.42780000000000007         -1.7186513074813199E-020
  0.42890000000000006         -2.4526278439306123E-020
  0.43000000000000005         -2.6260188729864520E-020
  0.43110000000000004         -1.9705029830037109E-020
  0.43220000000000003         -3.8283420667043877E-021
  0.43330000000000002          1.9825070981084285E-020
  0.43440000000000001          4.6663204861551781E-020
  0.43550000000000000          6.9338775427733936E-020
  0.43659999999999999          7.8986405946362064E-020
  0.43770000000000009          6.7369733013505779E-020
  0.43880000000000008          2.9620052163497263E-020
  0.43990000000000007         -3.3037525946104246E-020
  0.44100000000000006         -1.1137966449152992E-019
  0.44210000000000005         -1.8795034396489881E-019
  0.44320000000000004         -2.3915217097109677E-019
  0.44430000000000003         -2.3987471592764581E-019
  0.44540000000000002         -1.7021937808965274E-019
  0.44650000000000001         -2.3136706565308823E-020
  0.44760000000000000          1.8886492801403095E-019
  0.44869999999999999          4.3014237726462913E-019
  0.44980000000000009          6.4354959544324544E-019
  0.45090000000000008          7.5861842990501419E-019
  0.45200000000000007          7.0628787239259187E-019
  0.45310000000000006          4.3840217608460695E-019
  0.45420000000000005         -5.1681396094547000E-020
  0.45530000000000004         -7.1254969789801582E-019
  0.45640000000000003         -1.4280638450616234E-018
  0.45750000000000002         -2.0256794592134610E-018
  0.45860000000000001         -2.3026103336042291E-018
  0.45970000000000000         -2.0689558006049097E-018
  0.46079999999999999         -1.2021909109844836E-018
  0.46190000000000009          2.9736384339359630E-019
  0.46300000000000008          2.2641386938457177E-018
  0.46410000000000007          4.3532505971688580E-018
  0.46520000000000006          6.0677921921307114E-018
  0.46630000000000005          6.8341934612836685E-018
  0.46740000000000004          6.1223810158408261E-018
  0.46850000000000003          3.5951145727124960E-018
  0.46960000000000002         -7.4147724956932528E-019
  0.47070000000000001         -6.4234318484329686E-018
  0.47180000000000000         -1.2490824828528214E-017
  0.47289999999999999         -1.7560228076832231E-017
  0.47400000000000009         -2.0025742892433782E-017
  0.47510000000000008         -1.8380810525269703E-017
  0.47620000000000007         -1.1621110709680485E-017
  0.47730000000000006          3.4332894107911158E-019
  0.47840000000000005          1.6363571162647331E-017