-0.1200000E+00  0.0000000E+00
-0.1189000E+00  0.0000000E+00
-0.1178000E+00  0.0000000E+00
-0.1167000E+00  0.0000000E+00
-0.1156000E+00  0.0000000E+00
-0.1145000E+00  0.0000000E+00
-0.1134000E+00  0.0000000E+00
-0.1123000E+00  0.0000000E+00
-0.1112000E+00  0.0000000E+00
-0.1101000E+00  0.0000000E+00
-0.1090000E+00  0.0000000E+00
-0.1079000E+00  0.1272177E-35
-0.1068000E+00  0.9190798E-34
-0.1057000E+00 -0.1676573E-32
-0.1046000E+00 -0.4192775E-31
-0.1035000E+00 -0.3804637E-30
-0.1024000E+00 -0.2010627E-29
-0.1013000E+00 -0.6566478E-29
-0.1002000E+00 -0.9723691E-29
-0.9910000E-01  0.2753009E-28
-0.9800000E-01  0.2430565E-27
-0.9690000E-01  0.9126193E-27
-0.9580000E-01  0.2169291E-26
-0.9470000E-01  0.2759969E-26
-0.9360000E-01 -0.2701089E-26
-0.9250000E-01 -0.2654280E-25
-0.9140000E-01 -0.8403230E-25
-0.9030000E-01 -0.1681604E-24
-0.8920000E-01 -0.1891260E-24
-0.8810000E-01  0.1060650E-24
-0.8700000E-01  0.1138185E-23
-0.8590000E-01  0.3214072E-23
-0.8480000E-01  0.5711259E-23
-0.8370000E-01  0.5756944E-23
-0.8260000E-01 -0.2736671E-23
-0.8150000E-01 -0.2750728E-22
-0.8040000E-01 -0.7079445E-22
-0.7930000E-01 -0.1151011E-21
-0.7820000E-01 -0.1066764E-21
-0.7710000E-01  0.4704613E-22
-0.7600000E-01  0.4386084E-21
-0.7490000E-01  0.1055254E-20
-0.7380000E-01  0.1616487E-20
-0.7270000E-01  0.1439806E-20
-0.7160000E-01 -0.4829418E-21
-0.7050000E-01 -0.4968793E-20
-0.6940000E-01 -0.1157348E-19
-0.6830000E-01 -0.1723508E-19
-0.6720000E-01 -0.1551399E-19
-0.6610000E-01  0.2120856E-20
-0.6500000E-01  0.4155712E-19
-0.6390000E-01  0.9778113E-19
-0.6280000E-01  0.1459163E-18
-0.6170000E-01  0.1381022E-18
-0.6060000E-01  0.1512939E-19
-0.5950000E-01 -0.2605229E-18
-0.5840000E-01 -0.6533337E-18
-0.5730000E-01 -0.1005063E-17
-0.5620000E-01 -0.1024802E-17
-0.5510000E-01 -0.3637307E-18
-0.5400000E-01  0.1199563E-17
-0.5290000E-01  0.3491375E-17
-0.5180000E-01  0.5701562E-17
-0.5070000E-01  0.6351057E-17
-0.4960000E-01  0.3662446E-17
-0.4850000E-01 -0.3577890E-17
-0.4740000E-01 -0.1482055E-16
-0.4630000E-01 -0.2669710E-16
-0.4520000E-01 -0.3285131E-16
-0.4410000E-01 -0.2539793E-16
-0.4300000E-01  0.1698289E-17
-0.4190000E-01  0.4794661E-16
-0.4080000E-01  0.1021256E-15
-0.3970000E-01  0.1411756E-15
-0.3860000E-01  0.1347279E-15
-0.3750000E-01  0.5628522E-16
-0.3640000E-01 -0.1008739E-15
-0.3530000E-01 -0.3085409E-15
-0.3420000E-01 -0.4972440E-15
-0.3310000E-01 -0.5666287E-15
-0.3200000E-01 -0.4162265E-15
-0.3090000E-01  0.7784877E-17
-0.2980000E-01  0.6639237E-15
-0.2870000E-01  0.1386324E-14
-0.2760000E-01  0.1897300E-14
-0.2650000E-01  0.1874443E-14
-0.2540000E-01  0.1066531E-14
-0.2430000E-01 -0.5706237E-15
-0.2320000E-01 -0.2766643E-14
-0.2210000E-01 -0.4911722E-14
-0.2100000E-01 -0.6154988E-14
-0.1990000E-01 -0.5632584E-14
-0.1880000E-01 -0.2785180E-14
-0.1770000E-01  0.2320701E-14
-0.1660000E-01  0.8780587E-14
-0.1550000E-01  0.1485814E-13
-0.1440000E-01  0.1827762E-13
-0.1330000E-01  0.1679816E-13
-0.1220000E-01  0.8975986E-14
-0.1110000E-01 -0.5065500E-14
-0.1000000E-01 -0.2309583E-13
-0.8900000E-02 -0.4071577E-13
-0.7800000E-02 -0.5196481E-13
-0.6700000E-02 -0.5065671E-13
-0.5600000E-02 -0.3229984E-13
-0.4500000E-02  0.3783797E-14
-0.3400000E-02  0.5275279E-13
-0.2300000E-02  0.1036873E-12
-0.1200000E-02  0.1408321E-12
-0.1000000E-03  0.1469477E-12
 0.1000000E-02  0.1084623E-12
 0.2100000E-02  0.2134810E-13
 0.3200000E-02 -0.1040416E-12
 0.4300000E-02 -0.2412434E-12
 0.5400000E-02 -0.3507863E-12
 0.6500000E-02 -0.3887342E-12
 0.7600000E-02 -0.3195523E-12
 0.8700000E-02 -0.1302910E-12
 0.9800000E-02  0.1583076E-12
 0.1090000E-01  0.4883997E-12
 0.1200000E-01  0.7726054E-12
 0.1310000E-01  0.9129900E-12
 0.1420000E-01  0.8282354E-12
 0.1530000E-01  0.4823663E-12
 0.1640000E-01 -0.9352857E-13
 0.1750000E-01 -0.7946621E-12
 0.1860000E-01 -0.1455987E-11
 0.1970000E-01 -0.1885571E-11
 0.2080000E-01 -0.1912007E-11
 0.2190000E-01 -0.1435137E-11
 0.2300000E-01 -0.4670252E-12
 0.2410000E-01  0.8490151E-12
 0.2520000E-01  0.2249563E-11
 0.2630000E-01  0.3394332E-11
 0.2740000E-01  0.3936273E-11
 0.2850000E-01  0.3606516E-11
 0.2960000E-01  0.2297033E-11
 0.3070000E-01  0.1213130E-12
 0.3180000E-01 -0.2565821E-11
 0.3290000E-01 -0.5203301E-11
 0.3400000E-01 -0.7118511E-11
 0.3510000E-01 -0.7672855E-11
 0.3620000E-01 -0.6433806E-11
 0.3730000E-01 -0.3334562E-11
 0.3840000E-01  0.1225552E-11
 0.3950000E-01  0.6383443E-11
 0.4060000E-01  0.1094282E-10
 0.4170000E-01  0.1362680E-10
 0.4280000E-01  0.1340769E-10
 0.4390000E-01  0.9834328E-11
 0.4500000E-01  0.3259916E-11
 0.4610000E-01 -0.5116597E-11
 0.4720000E-01 -0.1344207E-10
 0.4830000E-01 -0.1961619E-10
 0.4940000E-01 -0.2182704E-10
 0.5050000E-01 -0.1907516E-10
 0.5160000E-01 -0.1153100E-10
 0.5270000E-01 -0.6026262E-12
 0.5380000E-01  0.1133358E-10
 0.5490000E-01  0.2148878E-10
 0.5600000E-01  0.2736367E-10
 0.5710000E-01  0.2740423E-10
 0.5820000E-01  0.2142533E-10
 0.5930000E-01  0.1067918E-10
 0.6040000E-01 -0.2451380E-11
 0.6150000E-01 -0.1504752E-10
 0.6260000E-01 -0.2437041E-10
 0.6370000E-01 -0.2850623E-10
 0.6480000E-01 -0.2677914E-10
 0.6590000E-01 -0.1984586E-10
 0.6700000E-01 -0.9474438E-11
 0.6810000E-01  0.1914262E-11
 0.6920000E-01  0.1182168E-10
 0.7030000E-01  0.1823545E-10
 0.7140000E-01  0.2007321E-10
 0.7250000E-01  0.1742631E-10
 0.7360000E-01  0.1155191E-10
 0.7470000E-01  0.4590641E-11
 0.7580000E-01 -0.9736953E-12
 0.7690000E-01 -0.3037035E-11
 0.7800000E-01 -0.6292576E-12
 0.7910000E-01  0.5521623E-11
 0.8020000E-01  0.1286114E-10
 0.8130000E-01  0.1750117E-10
 0.8240000E-01  0.1535636E-10
 0.8350000E-01  0.3708245E-11
 0.8460000E-01 -0.1725990E-10
 0.8570000E-01 -0.4355453E-10
 0.8680000E-01 -0.6763153E-10
 0.8790000E-01 -0.8007618E-10
 0.8900000E-01 -0.7247948E-10
 0.9010000E-01 -0.4076613E-10
 0.9120000E-01  0.1213925E-10
 0.9230000E-01  0.7545383E-10
 0.9340000E-01  0.1322372E-09
 0.9450000E-01  0.1636358E-09
 0.9560000E-01  0.1547323E-09
 0.9670000E-01  0.1002980E-09
 0.9780000E-01  0.8450083E-11
 0.9890000E-01 -0.9941513E-10
 0.1000000E+00 -0.1930456E-09
 0.1011000E+00 -0.2413738E-09
 0.1022000E+00 -0.2221242E-09
 0.1033000E+00 -0.1301459E-09
 0.1044000E+00  0.1831533E-10
 0.1055000E+00  0.1872305E-09
 0.1066000E+00  0.3284769E-09
 0.1077000E+00  0.3939849E-09
 0.1088000E+00  0.3492874E-09
 0.1099000E+00  0.1848270E-09
 0.1110000E+00 -0.7818257E-10
 0.1121000E+00 -0.3892074E-09
 0.1132000E+00 -0.6771851E-09
 0.1143000E+00 -0.8648967E-09
 0.1154000E+00 -0.8858703E-09
 0.1165000E+00 -0.7002678E-09
 0.1176000E+00 -0.3064959E-09
 0.1187000E+00  0.2538328E-09
 0.1198000E+00  0.8987702E-09
 0.1209000E+00  0.1516664E-08
 0.1220000E+00  0.1983306E-08
 0.1231000E+00  0.2183273E-08
 0.1242000E+00  0.2032250E-08
 0.1253000E+00  0.1496376E-08
 0.1264000E+00  0.6045346E-09
 0.1275000E+00 -0.5499481E-09
 0.1286000E+00 -0.1820062E-08
 0.1297000E+00 -0.3027640E-08
 0.1308000E+00 -0.3993881E-08
 0.1319000E+00 -0.4571392E-08
 0.1330000E+00 -0.4669970E-08
 0.1341000E+00 -0.4269172E-08
 0.1352000E+00 -0.3413916E-08
 0.1363000E+00 -0.2194280E-08
 0.1374000E+00 -0.7158613E-09
 0.1385000E+00  0.9291722E-09
 0.1396000E+00  0.2679502E-08
 0.1407000E+00  0.4502662E-08
 0.1418000E+00  0.6371871E-08
 0.1429000E+00  0.8227477E-08
 0.1440000E+00  0.9935227E-08
 0.1451000E+00  0.1125662E-07
 0.1462000E+00  0.1184496E-07
 0.1473000E+00  0.1127427E-07
 0.1484000E+00  0.9099668E-08
 0.1495000E+00  0.4938382E-08
 0.1506000E+00 -0.1444522E-08
 0.1517000E+00 -0.1006280E-07
 0.1528000E+00 -0.2066023E-07
 0.1539000E+00 -0.3269010E-07
 0.1550000E+00 -0.4531734E-07
 0.1561000E+00 -0.5743011E-07
 0.1572000E+00 -0.6764493E-07
 0.1583000E+00 -0.7429075E-07
 0.1594000E+00 -0.7536428E-07
 0.1605000E+00 -0.6845483E-07
 0.1616000E+00 -0.5064429E-07
 0.1627000E+00 -0.1838993E-07
 0.1638000E+00  0.3260358E-07
 0.1649000E+00  0.1075212E-06
 0.1660000E+00  0.2125885E-06
 0.1671000E+00  0.3552493E-06
 0.1682000E+00  0.5443861E-06
 0.1693000E+00  0.7906056E-06
 0.1704000E+00  0.1106612E-05
 0.1715000E+00  0.1507694E-05
 0.1726000E+00  0.2012344E-05
 0.1737000E+00  0.2643044E-05
 0.1748000E+00  0.3427228E-05
 0.1759000E+00  0.4398440E-05
 0.1770000E+00  0.5597699E-05
 0.1781000E+00  0.7075072E-05
 0.1792000E+00  0.8891441E-05
 0.1803000E+00  0.1112048E-04
 0.1814000E+00  0.1385085E-04
 0.1825000E+00  0.1718859E-04
 0.1836000E+00  0.2125990E-04
 0.1847000E+00  0.2621410E-04
 0.1858000E+00  0.3222725E-04
 0.1869000E+00  0.3950602E-04
 0.1880000E+00  0.4829238E-04
 0.1891000E+00  0.5886869E-04
 0.1902000E+00  0.7156348E-04
 0.1913000E+00  0.8675783E-04
 0.1924000E+00  0.1048921E-03
 0.1935000E+00  0.1264735E-03
 0.1946000E+00  0.1520834E-03
 0.1957000E+00  0.1823861E-03
 0.1968000E+00  0.2181368E-03
 0.1979000E+00  0.2601909E-03
 0.1990000E+00  0.3095128E-03
 0.2001000E+00  0.3671861E-03
 0.2012000E+00  0.4344221E-03
 0.2023000E+00  0.5125703E-03
 0.2034000E+00  0.6031259E-03
 0.2045000E+00  0.7077393E-03
 0.2056000E+00  0.8282221E-03
 0.2067000E+00  0.9665531E-03
 0.2078000E+00  0.1124882E-02
 0.2089000E+00  0.1305529E-02
 0.2100000E+00  0.1510988E-02
 0.2111000E+00  0.1743915E-02
 0.2122000E+00  0.2007130E-02
 0.2133000E+00  0.2303593E-02
 0.2144000E+00  0.2636399E-02
 0.2155000E+00  0.3008749E-02
 0.2166000E+00  0.3423924E-02
 0.2177000E+00  0.3885252E-02
 0.2188000E+00  0.4396072E-02
 0.2199000E+00  0.4959680E-02
 0.2210000E+00  0.5579286E-02
 0.2221000E+00  0.6257946E-02
 0.2232000E+00  0.6998499E-02
 0.2243000E+00  0.7803495E-02
 0.2254000E+00  0.8675117E-02
 0.2265000E+00  0.9615093E-02
 0.2276000E+00  0.1062461E-01
 0.2287000E+00  0.1170423E-01
 0.2298000E+00  0.1285378E-01
 0.2309000E+00  0.1407227E-01
 0.2320000E+00  0.1535779E-01
 0.2331000E+00  0.1670744E-01
 0.2342000E+00  0.1811722E-01
 0.2353000E+00  0.1958198E-01
 0.2364000E+00  0.2109532E-01
 0.2375000E+00  0.2264956E-01
 0.2386000E+00  0.2423571E-01
 0.2397000E+00  0.2584339E-01
 0.2408000E+00  0.2746089E-01
 0.2419000E+00  0.2907517E-01
 0.2430000E+00  0.3067187E-01
 0.2441000E+00  0.3223542E-01
 0.2452000E+00  0.3374913E-01
 0.2463000E+00  0.3519528E-01
 0.2474000E+00  0.3655529E-01
 0.2485000E+00  0.3780990E-01
 0.2496000E+00  0.3893937E-01
 0.2507000E+00  0.3992371E-01
 0.2518000E+00  0.4074291E-01
 0.2529000E+00  0.4137725E-01
 0.2540000E+00  0.4180758E-01
 0.2551000E+00  0.4201559E-01
 0.2562000E+00  0.4198417E-01
 0.2573000E+00  0.4169769E-01
 0.2584000E+00  0.4114231E-01
 0.2595000E+00  0.4030630E-01
 0.2606000E+00  0.3918032E-01
 0.2617000E+00  0.3775769E-01
 0.2628000E+00  0.3603461E-01
 0.2639000E+00  0.3401040E-01
 0.2650000E+00  0.3168767E-01
 0.2661000E+00  0.2907239E-01
 0.2672000E+00  0.2617406E-01
 0.2683000E+00  0.2300565E-01
 0.2694000E+00  0.1958362E-01
 0.2705000E+00  0.1592782E-01
 0.2716000E+00  0.1206134E-01
 0.2727000E+00  0.8010319E-02
 0.2738000E+00  0.3803714E-02
 0.2749000E+00 -0.5270276E-03
 0.2760000E+00 -0.4948310E-02
 0.2771000E+00 -0.9424781E-02
 0.2782000E+00 -0.1391977E-01
 0.2793000E+00 -0.1839574E-01
 0.2804000E+00 -0.2281478E-01
 0.2815000E+00 -0.2713911E-01
 0.2826000E+00 -0.3133154E-01
 0.2837000E+00 -0.3535603E-01
 0.2848000E+00 -0.3917811E-01
 0.2859000E+00 -0.4276538E-01
 0.2870000E+00 -0.4608793E-01
 0.2881000E+00 -0.4911873E-01
 0.2892000E+00 -0.5183398E-01
 0.2903000E+00 -0.5421341E-01
 0.2914000E+00 -0.5624051E-01
 0.2925000E+00 -0.5790275E-01
 0.2936000E+00 -0.5919163E-01
 0.2947000E+00 -0.6010279E-01
 0.2958000E+00 -0.6063595E-01
 0.2969000E+00 -0.6079491E-01
 0.2980000E+00 -0.6058732E-01
 0.2991000E+00 -0.6002455E-01
 0.3002000E+00 -0.5912144E-01
 0.3013000E+00 -0.5789598E-01
 0.3024000E+00 -0.5636900E-01
 0.3035000E+00 -0.5456380E-01
 0.3046000E+00 -0.5250577E-01
 0.3057000E+00 -0.5022199E-01
 0.3068000E+00 -0.4774079E-01
 0.3079000E+00 -0.4509134E-01
 0.3090000E+00 -0.4230325E-01
 0.3101000E+00 -0.3940616E-01
 0.3112000E+00 -0.3642935E-01
 0.3123000E+00 -0.3340138E-01
 0.3134000E+00 -0.3034980E-01
 0.3145000E+00 -0.2730080E-01
 0.3156000E+00 -0.2427902E-01
 0.3167000E+00 -0.2130727E-01
 0.3178000E+00 -0.1840641E-01
 0.3189000E+00 -0.1559515E-01
 0.3200000E+00 -0.1289002E-01
 0.3211000E+00 -0.1030527E-01
 0.3222000E+00 -0.7852898E-02
 0.3233000E+00 -0.5542606E-02
 0.3244000E+00 -0.3381905E-02
 0.3255000E+00 -0.1376175E-02
 0.3266000E+00  0.4712301E-03
 0.3277000E+00  0.2158857E-02
 0.3288000E+00  0.3687008E-02
 0.3299000E+00  0.5057584E-02
 0.3310000E+00  0.6273921E-02
 0.3321000E+00  0.7340610E-02
 0.3332000E+00  0.8263325E-02
 0.3343000E+00  0.9048655E-02
 0.3354000E+00  0.9703918E-02
 0.3365000E+00  0.1023702E-01
 0.3376000E+00  0.1065628E-01
 0.3387000E+00  0.1097029E-01
 0.3398000E+00  0.1118782E-01
 0.3409000E+00  0.1131761E-01
 0.3420000E+00  0.1136836E-01
 0.3431000E+00  0.1134857E-01
 0.3442000E+00  0.1126648E-01
 0.3453000E+00  0.1112999E-01
 0.3464000E+00  0.1094663E-01
 0.3475000E+00  0.1072348E-01
 0.3486000E+00  0.1046720E-01
 0.3497000E+00  0.1018392E-01
 0.3508000E+00  0.9879320E-02
 0.3519000E+00  0.9558554E-02
 0.3530000E+00  0.9226292E-02
 0.3541000E+00  0.8886718E-02
 0.3552000E+00  0.8543542E-02
 0.3563000E+00  0.8200017E-02
 0.3574000E+00  0.7858965E-02
 0.3585000E+00  0.7522802E-02
 0.3596000E+00  0.7193561E-02
 0.3607000E+00  0.6872921E-02
 0.3618000E+00  0.6562236E-02
 0.3629000E+00  0.6262564E-02
 0.3640000E+00  0.5974689E-02
 0.3651000E+00  0.5699158E-02
 0.3662000E+00  0.5436299E-02
 0.3673000E+00  0.5186249E-02
 0.3684000E+00  0.4948978E-02
 0.3695000E+00  0.4724315E-02
 0.3706000E+00  0.4511967E-02
 0.3717000E+00  0.4311541E-02
 0.3728000E+00  0.4122566E-02
 0.3739000E+00  0.3944509E-02
 0.3750000E+00  0.3776796E-02
 0.3761000E+00  0.3618822E-02
 0.3772000E+00  0.3469970E-02
 0.3783000E+00  0.3329616E-02
 0.3794000E+00  0.3197145E-02
 0.3805000E+00  0.3071961E-02
 0.3816000E+00  0.2953489E-02
 0.3827000E+00  0.2841195E-02
 0.3838000E+00  0.2734579E-02
 0.3849000E+00  0.2633191E-02
 0.3860000E+00  0.2536625E-02
 0.3871000E+00  0.2444525E-02
 0.3882000E+00  0.2356581E-02
 0.3893000E+00  0.2272532E-02
 0.3904000E+00  0.2192158E-02
 0.3915000E+00  0.2115285E-02
 0.3926000E+00  0.2041773E-02
 0.3937000E+00  0.1971519E-02
 0.3948000E+00  0.1904448E-02
 0.3959000E+00  0.1840508E-02
 0.3970000E+00  0.1779667E-02
 0.3981000E+00  0.1721904E-02
 0.3992000E+00  0.1667213E-02
 0.4003000E+00  0.1615590E-02
 0.4014000E+00  0.1567034E-02
 0.4025000E+00  0.1521542E-02
 0.4036000E+00  0.1479103E-02
 0.4047000E+00  0.1439697E-02
 0.4058000E+00  0.1403295E-02
 0.4069000E+00  0.1369856E-02
 0.4080000E+00  0.1339332E-02
 0.4091000E+00  0.1311675E-02
 0.4102000E+00  0.1286836E-02
 0.4113000E+00  0.1264771E-02
 0.4124000E+00  0.1245446E-02
 0.4135000E+00  0.1228836E-02
 0.4146000E+00  0.1214929E-02
 0.4157000E+00  0.1203731E-02
 0.4168000E+00  0.1195269E-02
 0.4179000E+00  0.1189596E-02
 0.4190000E+00  0.1186796E-02
 0.4201000E+00  0.1186990E-02
 0.4212000E+00  0.1190337E-02
 0.4223000E+00  0.1197034E-02
 0.4234000E+00  0.1207318E-02
 0.4245000E+00  0.1221458E-02
 0.4256000E+00  0.1239751E-02
 0.4267000E+00  0.1262511E-02
 0.4278000E+00  0.1290065E-02
 0.4289000E+00  0.1322737E-02
 0.4300000E+00  0.1360845E-02
 0.4311000E+00  0.1404683E-02
 0.4322000E+00  0.1454518E-02
 0.4333000E+00  0.1510567E-02
 0.4344000E+00  0.1572990E-02
 0.4355000E+00  0.1641864E-02
 0.4366000E+00  0.1717171E-02
 0.4377000E+00  0.1798772E-02
 0.4388000E+00  0.1886398E-02
 0.4399000E+00  0.1979626E-02
 0.4410000E+00  0.2077878E-02
 0.4421000E+00  0.2180401E-02
 0.4432000E+00  0.2286269E-02
 0.4443000E+00  0.2394374E-02
 0.4454000E+00  0.2503425E-02
 0.4465000E+00  0.2611941E-02
 0.4476000E+00  0.2718261E-02
 0.4487000E+00  0.2820541E-02
 0.4498000E+00  0.2916772E-02
 0.4509000E+00  0.3004790E-02
 0.4520000E+00  0.3082301E-02
 0.4531000E+00  0.3146906E-02
 0.4542000E+00  0.3196134E-02
 0.4553000E+00  0.3227468E-02
 0.4564000E+00  0.3238386E-02
 0.4575000E+00  0.3226394E-02
 0.4586000E+00  0.3189061E-02
 0.4597000E+00  0.3124062E-02
 0.4608000E+00  0.3029213E-02
 0.4619000E+00  0.2902518E-02
 0.4630000E+00  0.2742209E-02
 0.4641000E+00  0.2546787E-02
 0.4652000E+00  0.2315067E-02
 0.4663000E+00  0.2046213E-02
 0.4674000E+00  0.1739769E-02
 0.4685000E+00  0.1395685E-02
 0.4696000E+00  0.1014340E-02
 0.4707000E+00  0.5965558E-03
 0.4718000E+00  0.1436084E-03
 0.4729000E+00 -0.3427678E-03
 0.4740000E+00 -0.8603801E-03
 0.4751000E+00 -0.1406585E-02
 0.4762000E+00 -0.1978301E-02
 0.4773000E+00 -0.2572035E-02
 0.4784000E+00 -0.3183907E-02
 0.4795000E+00 -0.3809693E-02
 0.4806000E+00 -0.4444865E-02
 0.4817000E+00 -0.5084643E-02
 0.4828000E+00 -0.5724043E-02
 0.4839000E+00 -0.6357937E-02
 0.4850000E+00 -0.6981111E-02
 0.4861000E+00 -0.7588326E-02
 0.4872000E+00 -0.8174385E-02
 0.4883000E+00 -0.8734191E-02
 0.4894000E+00 -0.9262815E-02
 0.4905000E+00 -0.9755560E-02
 0.4916000E+00 -0.1020802E-01
 0.4927000E+00 -0.1061613E-01
 0.4938000E+00 -0.1097622E-01
 0.4949000E+00 -0.1128508E-01
 0.4960000E+00 -0.1153996E-01
 0.4971000E+00 -0.1173863E-01
 0.4982000E+00 -0.1187941E-01
 0.4993000E+00 -0.1196115E-01
 0.5004000E+00 -0.1198330E-01
 0.5015000E+00 -0.1194585E-01
 0.5026000E+00 -0.1184938E-01
 0.5037000E+00 -0.1169501E-01
 0.5048000E+00 -0.1148439E-01
 0.5059000E+00 -0.1121970E-01
 0.5070000E+00 -0.1090357E-01
 0.5081000E+00 -0.1053909E-01
 0.5092000E+00 -0.1012973E-01
 0.5103000E+00 -0.9679283E-02
 0.5114000E+00 -0.9191865E-02
 0.5125000E+00 -0.8671814E-02
 0.5136000E+00 -0.8123650E-02
 0.5147000E+00 -0.7552025E-02
 0.5158000E+00 -0.6961665E-02
 0.5169000E+00 -0.6357313E-02
 0.5180000E+00 -0.5743681E-02
 0.5191000E+00 -0.5125396E-02
 0.5202000E+00 -0.4506949E-02
 0.5213000E+00 -0.3892656E-02
 0.5224000E+00 -0.3286612E-02
 0.5235000E+00 -0.2692663E-02
 0.5246000E+00 -0.2114368E-02
 0.5257000E+00 -0.1554980E-02
 0.5268000E+00 -0.1017422E-02
 0.5279000E+00 -0.5042733E-03
 0.5290000E+00 -0.1775754E-04
 0.5301000E+00  0.4402611E-03
 0.5312000E+00  0.8682787E-03
 0.5323000E+00  0.1265148E-02
 0.5334000E+00  0.1630068E-02
 0.5345000E+00  0.1962577E-02
 0.5356000E+00  0.2262531E-02
 0.5367000E+00  0.2530092E-02
 0.5378000E+00  0.2765705E-02
 0.5389000E+00  0.2970075E-02
 0.5400000E+00  0.3144142E-02
 0.5411000E+00  0.3289055E-02
 0.5422000E+00  0.3406144E-02
 0.5433000E+00  0.3496895E-02
 0.5444000E+00  0.3562920E-02
 0.5455000E+00  0.3605936E-02
 0.5466000E+00  0.3627735E-02
 0.5477000E+00  0.3630158E-02
 0.5488000E+00  0.3615070E-02
 0.5499000E+00  0.3584334E-02
 0.5510000E+00  0.3539789E-02
 0.5521000E+00  0.3483231E-02
 0.5532000E+00  0.3416395E-02
 0.5543000E+00  0.3340945E-02
 0.5554000E+00  0.3258460E-02
 0.5565000E+00  0.3170424E-02
 0.5576000E+00  0.3078223E-02
 0.5587000E+00  0.2983125E-02
 0.5598000E+00  0.2886282E-02
 0.5609000E+00  0.2788719E-02
 0.5620000E+00  0.2691333E-02
 0.5631000E+00  0.2594895E-02
 0.5642000E+00  0.2500054E-02
 0.5653000E+00  0.2407343E-02
 0.5664000E+00  0.2317189E-02
 0.5675000E+00  0.2229921E-02
 0.5686000E+00  0.2145776E-02
 0.5697000E+00  0.2064912E-02
 0.5708000E+00  0.1987410E-02
 0.5719000E+00  0.1913283E-02
 0.5730000E+00  0.1842487E-02
 0.5741000E+00  0.1774927E-02
 0.5752000E+00  0.1710470E-02
 0.5763000E+00  0.1648952E-02
 0.5774000E+00  0.1590190E-02
 0.5785000E+00  0.1533992E-02
 0.5796000E+00  0.1480160E-02
 0.5807000E+00  0.1428499E-02
 0.5818000E+00  0.1378821E-02
 0.5829000E+00  0.1330947E-02
 0.5840000E+00  0.1284709E-02
 0.5851000E+00  0.1239951E-02
 0.5862000E+00  0.1196532E-02
 0.5873000E+00  0.1154321E-02
 0.5884000E+00  0.1113200E-02
 0.5895000E+00  0.1073061E-02
 0.5906000E+00  0.1033805E-02
 0.5917000E+00  0.9953406E-03
 0.5928000E+00  0.9575778E-03
 0.5939000E+00  0.9204255E-03
 0.5950000E+00  0.8837863E-03
 0.5961000E+00  0.8475523E-03
 0.5972000E+00  0.8116023E-03
 0.5983000E+00  0.7758002E-03
 0.5994000E+00  0.7399948E-03
 0.6005000E+00  0.7040206E-03
 0.6016000E+00  0.6676981E-03
 0.6027000E+00  0.6308342E-03
 0.6038000E+00  0.5932212E-03
 0.6049000E+00  0.5546365E-03
 0.6060000E+00  0.5148437E-03
 0.6071000E+00  0.4735945E-03
 0.6082000E+00  0.4306342E-03
 0.6093000E+00  0.3857086E-03
 0.6104000E+00  0.3385722E-03
 0.6115000E+00  0.2889970E-03
 0.6126000E+00  0.2367805E-03
 0.6137000E+00  0.1817517E-03
 0.6148000E+00  0.1237775E-03
 0.6159000E+00  0.6276778E-04
 0.6170000E+00 -0.1319304E-05
 0.6181000E+00 -0.6847140E-04
 0.6192000E+00 -0.1386156E-03
 0.6203000E+00 -0.2116117E-03
 0.6214000E+00 -0.2872461E-03
 0.6225000E+00 -0.3652256E-03
 0.6236000E+00 -0.4451727E-03
 0.6247000E+00 -0.5266223E-03
 0.6258000E+00 -0.6090195E-03
 0.6269000E+00 -0.6917195E-03
 0.6280000E+00 -0.7739894E-03
 0.6291000E+00 -0.8550115E-03
 0.6302000E+00 -0.9338892E-03
 0.6313000E+00 -0.1009653E-02
 0.6324000E+00 -0.1081268E-02
 0.6335000E+00 -0.1147644E-02
 0.6346000E+00 -0.1207643E-02
 0.6357000E+00 -0.1260095E-02
 0.6368000E+00 -0.1303806E-02
 0.6379000E+00 -0.1337576E-02
 0.6390000E+00 -0.1360218E-02
 0.6401000E+00 -0.1370571E-02
 0.6412000E+00 -0.1367529E-02
 0.6423000E+00 -0.1350050E-02
 0.6434000E+00 -0.1317184E-02
 0.6445000E+00 -0.1268088E-02
 0.6456000E+00 -0.1202041E-02
 0.6467000E+00 -0.1118468E-02
 0.6478000E+00 -0.1016948E-02
 0.6489000E+00 -0.8972371E-03
 0.6500000E+00 -0.7592816E-03
 0.6511000E+00 -0.6032307E-03
 0.6522000E+00 -0.4294481E-03
 0.6533000E+00 -0.2385193E-03
 0.6544000E+00 -0.3125367E-04
 0.6555000E+00  0.1913175E-03
 0.6566000E+00  0.4279475E-03
 0.6577000E+00  0.6771834E-03
 0.6588000E+00  0.9373787E-03
 0.6599000E+00  0.1206707E-02
 0.6610000E+00  0.1483180E-02
 0.6621000E+00  0.1764665E-02
 0.6632000E+00  0.2048908E-02
 0.6643000E+00  0.2333565E-02
 0.6654000E+00  0.2616222E-02
 0.6665000E+00  0.2894439E-02
 0.6676000E+00  0.3165774E-02
 0.6687000E+00  0.3427821E-02
 0.6698000E+00  0.3678243E-02
 0.6709000E+00  0.3914801E-02
 0.6720000E+00  0.4135387E-02
 0.6731000E+00  0.4338045E-02
 0.6742000E+00  0.4521008E-02
 0.6753000E+00  0.4682710E-02
 0.6764000E+00  0.4821816E-02
 0.6775000E+00  0.4937233E-02
 0.6786000E+00  0.5028126E-02
 0.6797000E+00  0.5093926E-02
 0.6808000E+00  0.5134333E-02
 0.6819000E+00  0.5149321E-02
 0.6830000E+00  0.5139129E-02
 0.6841000E+00  0.5104257E-02
 0.6852000E+00  0.5045454E-02
 0.6863000E+00  0.4963696E-02
 0.6874000E+00  0.4860180E-02
 0.6885000E+00  0.4736292E-02
 0.6896000E+00  0.4593588E-02
 0.6907000E+00  0.4433776E-02
 0.6918000E+00  0.4258684E-02
 0.6929000E+00  0.4070235E-02
 0.6940000E+00  0.3870422E-02
 0.6951000E+00  0.3661277E-02
 0.6962000E+00  0.3444843E-02
 0.6973000E+00  0.3223148E-02
 0.6984000E+00  0.2998179E-02
 0.6995000E+00  0.2771857E-02
 0.7006000E+00  0.2546020E-02
 0.7017000E+00  0.2322403E-02
 0.7028000E+00  0.2102626E-02
 0.7039000E+00  0.1888174E-02
 0.7050000E+00  0.1680394E-02
 0.7061000E+00  0.1480480E-02
 0.7072000E+00  0.1289468E-02
 0.7083000E+00  0.1108230E-02
 0.7094000E+00  0.9374753E-03
 0.7105000E+00  0.7777452E-03
 0.7116000E+00  0.6294196E-03
 0.7127000E+00  0.4927214E-03
 0.7138000E+00  0.3677249E-03
 0.7149000E+00  0.2543670E-03
 0.7160000E+00  0.1524584E-03
 0.7171000E+00  0.6169646E-04
 0.7182000E+00 -0.1832211E-04
 0.7193000E+00 -0.8808862E-04
 0.7204000E+00 -0.1481697E-03
 0.7215000E+00 -0.1991942E-03
 0.7226000E+00 -0.2418397E-03
 0.7237000E+00 -0.2768190E-03
 0.7248000E+00 -0.3048657E-03
 0.7259000E+00 -0.3267217E-03
 0.7270000E+00 -0.3431240E-03
 0.7281000E+00 -0.3547945E-03
 0.7292000E+00 -0.3624297E-03
 0.7303000E+00 -0.3666929E-03
 0.7314000E+00 -0.3682078E-03
 0.7325000E+00 -0.3675532E-03
 0.7336000E+00 -0.3652592E-03
 0.7347000E+00 -0.3618048E-03
 0.7358000E+00 -0.3576158E-03
 0.7369000E+00 -0.3530646E-03
 0.7380000E+00 -0.3484689E-03
 0.7391000E+00 -0.3440932E-03
 0.7402000E+00 -0.3401512E-03
 0.7413000E+00 -0.3368087E-03
 0.7424000E+00 -0.3341900E-03
 0.7435000E+00 -0.3323839E-03
 0.7446000E+00 -0.3314501E-03
 0.7457000E+00 -0.3314246E-03
 0.7468000E+00 -0.3323240E-03
 0.7479000E+00 -0.3341468E-03
 0.7490000E+00 -0.3368758E-03
 0.7501000E+00 -0.3404789E-03
 0.7512000E+00 -0.3449120E-03
 0.7523000E+00 -0.3501236E-03
 0.7534000E+00 -0.3560593E-03
 0.7545000E+00 -0.3626669E-03
 0.7556000E+00 -0.3698999E-03
 0.7567000E+00 -0.3777193E-03
 0.7578000E+00 -0.3860923E-03
 0.7589000E+00 -0.3949910E-03
 0.7600000E+00 -0.4043899E-03
 0.7611000E+00 -0.4142644E-03
 0.7622000E+00 -0.4245912E-03
 0.7633000E+00 -0.4353487E-03
 0.7644000E+00 -0.4465195E-03
 0.7655000E+00 -0.4580907E-03
 0.7666000E+00 -0.4700550E-03
 0.7677000E+00 -0.4824092E-03
 0.7688000E+00 -0.4951528E-03
 0.7699000E+00 -0.5082869E-03
 0.7710000E+00 -0.5218122E-03
 0.7721000E+00 -0.5357301E-03
 0.7732000E+00 -0.5500424E-03
 0.7743000E+00 -0.5647527E-03
 0.7754000E+00 -0.5798669E-03
 0.7765000E+00 -0.5953926E-03
 0.7776000E+00 -0.6113374E-03
 0.7787000E+00 -0.6277071E-03
 0.7798000E+00 -0.6445032E-03
 0.7809000E+00 -0.6617204E-03
 0.7820000E+00 -0.6793455E-03
 0.7831000E+00 -0.6973558E-03
 0.7842000E+00 -0.7157178E-03
 0.7853000E+00 -0.7343866E-03
 0.7864000E+00 -0.7533038E-03
 0.7875000E+00 -0.7723969E-03
 0.7886000E+00 -0.7915772E-03
 0.7897000E+00 -0.8107389E-03
 0.7908000E+00 -0.8297587E-03
 0.7919000E+00 -0.8484942E-03
 0.7930000E+00 -0.8667842E-03
 0.7941000E+00 -0.8844484E-03
 0.7952000E+00 -0.9012880E-03
 0.7963000E+00 -0.9170880E-03
 0.7974000E+00 -0.9316198E-03
 0.7985000E+00 -0.9446465E-03
 0.7996000E+00 -0.9559275E-03
 0.8007000E+00 -0.9652233E-03
 0.8018000E+00 -0.9723003E-03
 0.8029000E+00 -0.9769330E-03
 0.8040000E+00 -0.9789073E-03
 0.8051000E+00 -0.9780228E-03
 0.8062000E+00 -0.9740971E-03
 0.8073000E+00 -0.9669706E-03
 0.8084000E+00 -0.9565122E-03
 0.8095000E+00 -0.9426244E-03
 0.8106000E+00 -0.9252470E-03
 0.8117000E+00 -0.9043585E-03
 0.8128000E+00 -0.8799754E-03
 0.8139000E+00 -0.8521513E-03
 0.8150000E+00 -0.8209742E-03
 0.8161000E+00 -0.7865662E-03
 0.8172000E+00 -0.7490822E-03
 0.8183000E+00 -0.7087095E-03
 0.8194000E+00 -0.6656658E-03
 0.8205000E+00 -0.6201958E-03
 0.8216000E+00 -0.5725661E-03
 0.8227000E+00 -0.5230600E-03
 0.8238000E+00 -0.4719710E-03
 0.8249000E+00 -0.4195981E-03
 0.8260000E+00 -0.3662413E-03
 0.8271000E+00 -0.3121984E-03
 0.8282000E+00 -0.2577614E-03
 0.8293000E+00 -0.2032128E-03
 0.8304000E+00 -0.1488225E-03
 0.8315000E+00 -0.9484433E-04
 0.8326000E+00 -0.4151386E-04
 0.8337000E+00  0.1095246E-04
 0.8348000E+00  0.6235745E-04
 0.8359000E+00  0.1125228E-03
 0.8370000E+00  0.1612890E-03
 0.8381000E+00  0.2085163E-03
 0.8392000E+00  0.2540859E-03
 0.8403000E+00  0.2979009E-03
 0.8414000E+00  0.3398872E-03
 0.8425000E+00  0.3799923E-03
 0.8436000E+00  0.4181832E-03
 0.8447000E+00  0.4544443E-03
 0.8458000E+00  0.4887752E-03
 0.8469000E+00  0.5211901E-03
 0.8480000E+00  0.5517188E-03
 0.8491000E+00  0.5804088E-03
 0.8502000E+00  0.6073276E-03
 0.8513000E+00  0.6325643E-03
 0.8524000E+00  0.6562303E-03
 0.8535000E+00  0.6784584E-03
 0.8546000E+00  0.6994025E-03
 0.8557000E+00  0.7192357E-03
 0.8568000E+00  0.7381511E-03
 0.8579000E+00  0.7563619E-03
 0.8590000E+00  0.7741026E-03
 0.8601000E+00  0.7916294E-03
 0.8612000E+00  0.8092182E-03
 0.8623000E+00  0.8271626E-03
 0.8634000E+00  0.8457687E-03
 0.8645000E+00  0.8653493E-03
 0.8656000E+00  0.8862179E-03
 0.8667000E+00  0.9086823E-03
 0.8678000E+00  0.9330387E-03
 0.8689000E+00  0.9595658E-03
 0.8700000E+00  0.9885198E-03
 0.8711000E+00  0.1020128E-02
 0.8722000E+00  0.1054581E-02
 0.8733000E+00  0.1092032E-02
 0.8744000E+00  0.1132579E-02
 0.8755000E+00  0.1176269E-02
 0.8766000E+00  0.1223085E-02
 0.8777000E+00  0.1272940E-02
 0.8788000E+00  0.1325674E-02
 0.8799000E+00  0.1381048E-02
 0.8810000E+00  0.1438747E-02
 0.8821000E+00  0.1498377E-02
 0.8832000E+00  0.1559469E-02
 0.8843000E+00  0.1621488E-02
 0.8854000E+00  0.1683830E-02
 0.8865000E+00  0.1745834E-02
 0.8876000E+00  0.1806782E-02
 0.8887000E+00  0.1865909E-02
 0.8898000E+00  0.1922406E-02
 0.8909000E+00  0.1975430E-02
 0.8920000E+00  0.2024119E-02
 0.8931000E+00  0.2067599E-02
 0.8942000E+00  0.2105003E-02
 0.8953000E+00  0.2135478E-02
 0.8964000E+00  0.2158205E-02
 0.8975000E+00  0.2172402E-02
 0.8986000E+00  0.2177336E-02
 0.8997000E+00  0.2172336E-02
 0.9008000E+00  0.2156798E-02
 0.9019000E+00  0.2130199E-02
 0.9030000E+00  0.2092107E-02
 0.9041000E+00  0.2042190E-02
 0.9052000E+00  0.1980224E-02
 0.9063000E+00  0.1906097E-02
 0.9074000E+00  0.1819814E-02
 0.9085000E+00  0.1721501E-02
 0.9096000E+00  0.1611403E-02
 0.9107000E+00  0.1489890E-02
 0.9118000E+00  0.1357452E-02
 0.9129000E+00  0.1214701E-02
 0.9140000E+00  0.1062369E-02
 0.9151000E+00  0.9013014E-03
 0.9162000E+00  0.7324509E-03
 0.9173000E+00  0.5568695E-03
 0.9184000E+00  0.3757000E-03
 0.9195000E+00  0.1901646E-03
 0.9206000E+00  0.1555007E-05
 0.9217000E+00 -0.1887803E-03
 0.9228000E+00 -0.3794486E-03
 0.9239000E+00 -0.5690274E-03
 0.9250000E+00 -0.7560794E-03
 0.9261000E+00 -0.9391696E-03
 0.9272000E+00 -0.1116881E-02
 0.9283000E+00 -0.1287835E-02
 0.9294000E+00 -0.1450705E-02
 0.9305000E+00 -0.1604238E-02
 0.9316000E+00 -0.1747269E-02
 0.9327000E+00 -0.1878733E-02
 0.9338000E+00 -0.1997684E-02
 0.9349000E+00 -0.2103300E-02
 0.9360000E+00 -0.2194898E-02
 0.9371000E+00 -0.2271943E-02
 0.9382000E+00 -0.2334055E-02
 0.9393000E+00 -0.2381018E-02
 0.9404000E+00 -0.2412782E-02
 0.9415000E+00 -0.2429466E-02
 0.9426000E+00 -0.2431358E-02
 0.9437000E+00 -0.2418898E-02
 0.9448000E+00 -0.2392682E-02
 0.9459000E+00 -0.2353436E-02
 0.9470000E+00 -0.2302014E-02
 0.9481000E+00 -0.2239377E-02
 0.9492000E+00 -0.2166584E-02
 0.9503000E+00 -0.2084775E-02
 0.9514000E+00 -0.1995155E-02
 0.9525000E+00 -0.1898974E-02
 0.9536000E+00 -0.1797507E-02
 0.9547000E+00 -0.1692029E-02
 0.9558000E+00 -0.1583799E-02
 0.9569000E+00 -0.1474033E-02
 0.9580000E+00 -0.1363898E-02
 0.9591000E+00 -0.1254490E-02
 0.9602000E+00 -0.1146832E-02
 0.9613000E+00 -0.1041864E-02
 0.9624000E+00 -0.9404346E-03
 0.9635000E+00 -0.8432950E-03
 0.9646000E+00 -0.7510947E-03
 0.9657000E+00 -0.6643775E-03
 0.9668000E+00 -0.5835809E-03
 0.9679000E+00 -0.5090400E-03
 0.9690000E+00 -0.4409938E-03
 0.9701000E+00 -0.3795949E-03
 0.9712000E+00 -0.3249199E-03
 0.9723000E+00 -0.2769806E-03
 0.9734000E+00 -0.2357343E-03
 0.9745000E+00 -0.2010936E-03
 0.9756000E+00 -0.1729354E-03
 0.9767000E+00 -0.1511088E-03
 0.9778000E+00 -0.1354421E-03
 0.9789000E+00 -0.1257490E-03