-0.1200000E+00  0.0000000E+00
-0.1189000E+00  0.0000000E+00
-0.1178000E+00  0.0000000E+00
-0.1167000E+00  0.0000000E+00
-0.1156000E+00  0.0000000E+00
-0.1145000E+00  0.0000000E+00
-0.1134000E+00  0.0000000E+00
-0.1123000E+00  0.0000000E+00
-0.1112000E+00  0.0000000E+00
-0.1101000E+00  0.0000000E+00
-0.1090000E+00  0.0000000E+00
-0.1079000E+00  0.0000000E+00
-0.1068000E+00  0.0000000E+00
-0.1057000E+00  0.0000000E+00
-0.1046000E+00  0.0000000E+00
-0.1035000E+00  0.0000000E+00
-0.1024000E+00  0.0000000E+00
-0.1013000E+00  0.0000000E+00
-0.1002000E+00  0.0000000E+00
-0.9910000E-01  0.0000000E+00
-0.9800000E-01  0.0000000E+00
-0.9690000E-01  0.0000000E+00
-0.9580000E-01  0.0000000E+00
-0.9470000E-01  0.0000000E+00
-0.9360000E-01  0.0000000E+00
-0.9250000E-01  0.0000000E+00
-0.9140000E-01  0.0000000E+00
-0.9030000E-01  0.0000000E+00
-0.8920000E-01  0.0000000E+00
-0.8810000E-01  0.0000000E+00
-0.8700000E-01  0.0000000E+00
-0.8590000E-01  0.0000000E+00
-0.8480000E-01  0.0000000E+00
-0.8370000E-01  0.0000000E+00
-0.8260000E-01  0.0000000E+00
-0.8150000E-01  0.0000000E+00
-0.8040000E-01  0.0000000E+00
-0.7930000E-01  0.0000000E+00
-0.7820000E-01 -0.0000000E+00
-0.7710000E-01 -0.0000000E+00
-0.7600000E-01 -0.0000000E+00
-0.7490000E-01  0.0000000E+00
-0.7380000E-01  0.1713903E-37
-0.7270000E-01  0.7123213E-37
-0.7160000E-01  0.2016132E-36
-0.7050000E-01  0.2899281E-36
-0.6940000E-01 -0.6389176E-37
-0.6830000E-01 -0.1530644E-35
-0.6720000E-01 -0.4300491E-35
-0.6610000E-01 -0.6324018E-35
-0.6500000E-01 -0.1067940E-35
-0.6390000E-01  0.2179984E-34
-0.6280000E-01  0.6644584E-34
-0.6170000E-01  0.1067598E-33
-0.6060000E-01  0.5715367E-34
-0.5950000E-01 -0.2221503E-33
-0.5840000E-01 -0.8139794E-33
-0.5730000E-01 -0.1473043E-32
-0.5620000E-01 -0.1282629E-32
-0.5510000E-01  0.1372778E-32
-0.5400000E-01  0.7817240E-32
-0.5290000E-01  0.1649131E-31
-0.5180000E-01  0.1937505E-31
-0.5070000E-01  0.6291192E-33
-0.4960000E-01 -0.5646688E-31
-0.4850000E-01 -0.1484533E-30
-0.4740000E-01 -0.2191659E-30
-0.4630000E-01 -0.1380009E-30
-0.4520000E-01  0.2647575E-30
-0.4410000E-01  0.1053835E-29
-0.4300000E-01  0.1933812E-29
-0.4190000E-01  0.2010725E-29
-0.4080000E-01 -0.1223246E-30
-0.3970000E-01 -0.5574758E-29
-0.3860000E-01 -0.1344799E-28
-0.3750000E-01 -0.1879898E-28
-0.3640000E-01 -0.1203596E-28
-0.3530000E-01  0.1756416E-28
-0.3420000E-01  0.7218683E-28
-0.3310000E-01  0.1313053E-27
-0.3200000E-01  0.1414757E-27
-0.3090000E-01  0.2563682E-28
-0.2980000E-01 -0.2720534E-27
-0.2870000E-01 -0.7045185E-27
-0.2760000E-01 -0.1035916E-26
-0.2650000E-01 -0.8281359E-27
-0.2540000E-01  0.4004227E-27
-0.2430000E-01  0.2786222E-26
-0.2320000E-01  0.5588310E-26
-0.2210000E-01  0.6826256E-26
-0.2100000E-01  0.3601205E-26
-0.1990000E-01 -0.6424111E-26
-0.1880000E-01 -0.2240239E-25
-0.1770000E-01 -0.3754868E-25
-0.1660000E-01 -0.3843993E-25
-0.1550000E-01 -0.9080656E-26
-0.1440000E-01  0.5874110E-25
-0.1330000E-01  0.1509001E-24
-0.1220000E-01  0.2197173E-24
-0.1110000E-01  0.1882355E-24
-0.1000000E-01 -0.1851355E-25
-0.8900000E-02 -0.4140303E-24
-0.7800000E-02 -0.8820757E-24
-0.6700000E-02 -0.1143379E-23
-0.5600000E-02 -0.8138632E-24
-0.4500000E-02  0.4075979E-24
-0.3400000E-02  0.2446595E-23
-0.2300000E-02  0.4578290E-23
-0.1200000E-02  0.5383145E-23
-0.1000000E-03  0.3157668E-23
 0.1000000E-02 -0.3134736E-23
 0.2100000E-02 -0.1259855E-22
 0.3200000E-02 -0.2145029E-22
 0.4300000E-02 -0.2327049E-22
 0.5400000E-02 -0.1123064E-22
 0.6500000E-02  0.1768980E-22
 0.7600000E-02  0.5780265E-22
 0.8700000E-02  0.9184977E-22
 0.9800000E-02  0.9354522E-22
 0.1090000E-01  0.3777540E-22
 0.1200000E-01 -0.8263777E-22
 0.1310000E-01 -0.2396676E-21
 0.1420000E-01 -0.3628408E-21
 0.1530000E-01 -0.3533788E-21
 0.1640000E-01 -0.1253229E-21
 0.1750000E-01  0.3337452E-21
 0.1860000E-01  0.9065681E-21
 0.1970000E-01  0.1331492E-20
 0.2080000E-01  0.1264222E-20
 0.2190000E-01  0.4271798E-21
 0.2300000E-01 -0.1187530E-20
 0.2410000E-01 -0.3147506E-20
 0.2520000E-01 -0.4559977E-20
 0.2630000E-01 -0.4302575E-20
 0.2740000E-01 -0.1519227E-20
 0.2850000E-01  0.3747407E-20
 0.2960000E-01  0.1006472E-19
 0.3070000E-01  0.1461230E-19
 0.3180000E-01  0.1394695E-19
 0.3290000E-01  0.5523480E-20
 0.3400000E-01 -0.1045366E-19
 0.3510000E-01 -0.2967447E-19
 0.3620000E-01 -0.4384713E-19
 0.3730000E-01 -0.4299018E-19
 0.3840000E-01 -0.1977237E-19
 0.3950000E-01  0.2536298E-19
 0.4060000E-01  0.8057588E-19
 0.4170000E-01  0.1231075E-18
 0.4280000E-01  0.1255569E-18
 0.4390000E-01  0.6746377E-19
 0.4500000E-01 -0.5123063E-19
 0.4610000E-01 -0.2007699E-18
 0.4720000E-01 -0.3227373E-18
 0.4830000E-01 -0.3458621E-18
 0.4940000E-01 -0.2150385E-18
 0.5050000E-01  0.7503047E-19
 0.5160000E-01  0.4560198E-18
 0.5270000E-01  0.7876287E-18
 0.5380000E-01  0.8943243E-18
 0.5490000E-01  0.6337493E-18
 0.5600000E-01 -0.2318122E-19
 0.5710000E-01 -0.9338364E-18
 0.5820000E-01 -0.1782960E-17
 0.5930000E-01 -0.2161629E-17
 0.6040000E-01 -0.1719284E-17
 0.6150000E-01 -0.3454242E-18
 0.6260000E-01  0.1691958E-17
 0.6370000E-01  0.3730246E-17
 0.6480000E-01  0.4869068E-17
 0.6590000E-01  0.4289375E-17
 0.6700000E-01  0.1646343E-17
 0.6810000E-01 -0.2615663E-17
 0.6920000E-01 -0.7193340E-17
 0.7030000E-01 -0.1021213E-16
 0.7140000E-01 -0.9860112E-17
 0.7250000E-01 -0.5198893E-17
 0.7360000E-01  0.3149807E-17
 0.7470000E-01  0.1278272E-16
 0.7580000E-01  0.1999981E-16
 0.7690000E-01  0.2100012E-16
 0.7800000E-01  0.1348355E-16
 0.7910000E-01 -0.1914433E-17
 0.8020000E-01 -0.2102488E-16
 0.8130000E-01 -0.3688695E-16
 0.8240000E-01 -0.4189821E-16
 0.8350000E-01 -0.3085613E-16
 0.8460000E-01 -0.3843709E-17
 0.8570000E-01  0.3231451E-16
 0.8680000E-01  0.6504394E-16
 0.8790000E-01  0.7971544E-16
 0.8900000E-01  0.6522354E-16
 0.9010000E-01  0.1960776E-16
 0.9120000E-01 -0.4663571E-16
 0.9230000E-01 -0.1115597E-15
 0.9340000E-01 -0.1478182E-15
 0.9450000E-01 -0.1325759E-15
 0.9560000E-01 -0.5817103E-16
 0.9670000E-01  0.6068718E-16
 0.9780000E-01  0.1870543E-15
 0.9890000E-01  0.2710485E-15
 0.1000000E+00  0.2668422E-15
 0.1011000E+00  0.1523664E-15
 0.1022000E+00 -0.5559010E-16
 0.1033000E+00 -0.2981393E-15
 0.1044000E+00 -0.4871443E-15
 0.1055000E+00 -0.5329550E-15
 0.1066000E+00 -0.3795913E-15
 0.1077000E+00 -0.3521757E-16
 0.1088000E+00  0.4152149E-15
 0.1099000E+00  0.8242920E-15
 0.1110000E+00  0.1024080E-14
 0.1121000E+00  0.8857422E-15
 0.1132000E+00  0.3778479E-15
 0.1143000E+00 -0.3992368E-15
 0.1154000E+00 -0.1221154E-14
 0.1165000E+00 -0.1795627E-14
 0.1176000E+00 -0.1855846E-14
 0.1187000E+00 -0.1263972E-14
 0.1198000E+00 -0.8837860E-16
 0.1209000E+00  0.1379015E-14
 0.1220000E+00  0.2683180E-14
 0.1231000E+00  0.3336682E-14
 0.1242000E+00  0.2986117E-14
 0.1253000E+00  0.1560613E-14
 0.1264000E+00 -0.6538729E-15
 0.1275000E+00 -0.3053262E-14
 0.1286000E+00 -0.4871481E-14
 0.1297000E+00 -0.5417043E-14
 0.1308000E+00 -0.4318901E-14
 0.1319000E+00 -0.1696815E-14
 0.1330000E+00  0.1813566E-14
 0.1341000E+00  0.5208565E-14
 0.1352000E+00  0.7407400E-14
 0.1363000E+00  0.7602075E-14
 0.1374000E+00  0.5551443E-14
 0.1385000E+00  0.1711439E-14
 0.1396000E+00 -0.2860093E-14
 0.1407000E+00 -0.6811800E-14
 0.1418000E+00 -0.8930984E-14
 0.1429000E+00 -0.8556986E-14
 0.1440000E+00 -0.5826812E-14
 0.1451000E+00 -0.1651461E-14
 0.1462000E+00  0.2588682E-14
 0.1473000E+00  0.5537560E-14
 0.1484000E+00  0.6374508E-14
 0.1495000E+00  0.5147227E-14
 0.1506000E+00  0.2779193E-14
 0.1517000E+00  0.7141494E-15
 0.1528000E+00  0.2983932E-15
 0.1539000E+00  0.2118904E-14
 0.1550000E+00  0.5564645E-14
 0.1561000E+00  0.8831747E-14
 0.1572000E+00  0.9454912E-14
 0.1583000E+00  0.5255778E-14
 0.1594000E+00 -0.4582465E-14
 0.1605000E+00 -0.1870817E-13
 0.1616000E+00 -0.3343189E-13
 0.1627000E+00 -0.4340275E-13
 0.1638000E+00 -0.4307588E-13
 0.1649000E+00 -0.2862904E-13
 0.1660000E+00  0.2313073E-15
 0.1671000E+00  0.3919978E-13
 0.1682000E+00  0.7953503E-13
 0.1693000E+00  0.1096481E-12
 0.1704000E+00  0.1179001E-12
 0.1715000E+00  0.9599573E-13
 0.1726000E+00  0.4209246E-13
 0.1737000E+00 -0.3730160E-13
 0.1748000E+00 -0.1273581E-12
 0.1759000E+00 -0.2071808E-12
 0.1770000E+00 -0.2540272E-12
 0.1781000E+00 -0.2487184E-12
 0.1792000E+00 -0.1810702E-12
 0.1803000E+00 -0.5404165E-13
 0.1814000E+00  0.1145541E-12
 0.1825000E+00  0.2935161E-12
 0.1836000E+00  0.4430284E-12
 0.1847000E+00  0.5221824E-12
 0.1858000E+00  0.4980401E-12
 0.1869000E+00  0.3545444E-12
 0.1880000E+00  0.9935076E-13
 0.1891000E+00 -0.2332398E-12
 0.1902000E+00 -0.5845999E-12
 0.1913000E+00 -0.8798693E-12
 0.1924000E+00 -0.1041241E-11
 0.1935000E+00 -0.1004623E-11
 0.1946000E+00 -0.7367243E-12
 0.1957000E+00 -0.2488589E-12
 0.1968000E+00  0.3963256E-12
 0.1979000E+00  0.1088250E-11
 0.1990000E+00  0.1683317E-11
 0.2001000E+00  0.2030361E-11
 0.2012000E+00  0.2002975E-11
 0.2023000E+00  0.1532702E-11
 0.2034000E+00  0.6356260E-12
 0.2045000E+00 -0.5750170E-12
 0.2056000E+00 -0.1895701E-11
 0.2067000E+00 -0.3060957E-11
 0.2078000E+00 -0.3790584E-11
 0.2089000E+00 -0.3848332E-11
 0.2100000E+00 -0.3100869E-11
 0.2111000E+00 -0.1564030E-11
 0.2122000E+00  0.5758013E-12
 0.2133000E+00  0.2973563E-11
 0.2144000E+00  0.5173010E-11
 0.2155000E+00  0.6684831E-11
 0.2166000E+00  0.7083272E-11
 0.2177000E+00  0.6103710E-11
 0.2188000E+00  0.3721228E-11
 0.2199000E+00  0.1916669E-12
 0.2210000E+00 -0.3958137E-11
 0.2221000E+00 -0.7995734E-11
 0.2232000E+00 -0.1109856E-10
 0.2243000E+00 -0.1250364E-10
 0.2254000E+00 -0.1166685E-10
 0.2265000E+00 -0.8402328E-11
 0.2276000E+00 -0.2972132E-11
 0.2287000E+00  0.3898128E-11
 0.2298000E+00  0.1109130E-10
 0.2309000E+00  0.1725736E-10
 0.2320000E+00  0.2104080E-10
 0.2331000E+00  0.2134325E-10
 0.2342000E+00  0.1757549E-10
 0.2353000E+00  0.9848391E-11
 0.2364000E+00 -0.9436905E-12
 0.2375000E+00 -0.1317982E-10
 0.2386000E+00 -0.2471965E-10
 0.2397000E+00 -0.3324276E-10
 0.2408000E+00 -0.3667307E-10
 0.2419000E+00 -0.3361735E-10
 0.2430000E+00 -0.2373327E-10
 0.2441000E+00 -0.7944568E-11
 0.2452000E+00  0.1156087E-10
 0.2463000E+00  0.3157971E-10
 0.2474000E+00  0.4837366E-10
 0.2485000E+00  0.5831869E-10
 0.2496000E+00  0.5861830E-10
 0.2507000E+00  0.4794988E-10
 0.2518000E+00  0.2690961E-10
 0.2529000E+00 -0.1856489E-11
 0.2540000E+00 -0.3390005E-10
 0.2551000E+00 -0.6359580E-10
 0.2562000E+00 -0.8507057E-10
 0.2573000E+00 -0.9329368E-10
 0.2584000E+00 -0.8513788E-10
 0.2595000E+00 -0.6020261E-10
 0.2606000E+00 -0.2121231E-10
 0.2617000E+00  0.2613781E-10
 0.2628000E+00  0.7392419E-10
 0.2639000E+00  0.1132511E-09
 0.2650000E+00  0.1358374E-09
 0.2661000E+00  0.1356631E-09
 0.2672000E+00  0.1103641E-09
 0.2683000E+00  0.6207321E-10
 0.2694000E+00 -0.2516678E-11
 0.2705000E+00 -0.7296428E-10
 0.2716000E+00 -0.1366992E-09
 0.2727000E+00 -0.1812142E-09
 0.2738000E+00 -0.1964566E-09
 0.2749000E+00 -0.1769680E-09
 0.2760000E+00 -0.1233270E-09
 0.2771000E+00 -0.4255228E-10
 0.2782000E+00  0.5270258E-10
 0.2793000E+00  0.1460981E-09
 0.2804000E+00  0.2204073E-09
 0.2815000E+00  0.2606749E-09
 0.2826000E+00  0.2571501E-09
 0.2837000E+00  0.2074117E-09
 0.2848000E+00  0.1172395E-09
 0.2859000E+00  0.7128089E-14
 0.2870000E+00 -0.1253440E-09
 0.2881000E+00 -0.2374205E-09
 0.2892000E+00 -0.3160346E-09
 0.2903000E+00 -0.3457533E-09
 0.2914000E+00 -0.3187039E-09
 0.2925000E+00 -0.2361458E-09
 0.2936000E+00 -0.1085432E-09
 0.2947000E+00  0.4585733E-10
 0.2958000E+00  0.2036916E-09
 0.2969000E+00  0.3399440E-09
 0.2980000E+00  0.4316776E-09
 0.2991000E+00  0.4614916E-09
 0.3002000E+00  0.4202437E-09
 0.3013000E+00  0.3087071E-09
 0.3024000E+00  0.1379769E-09
 0.3035000E+00 -0.7141911E-10
 0.3046000E+00 -0.2916291E-09
 0.3057000E+00 -0.4906264E-09
 0.3068000E+00 -0.6361286E-09
 0.3079000E+00 -0.6999238E-09
 0.3090000E+00 -0.6621598E-09
 0.3101000E+00 -0.5150769E-09
 0.3112000E+00 -0.2656386E-09
 0.3123000E+00  0.6345302E-10
 0.3134000E+00  0.4347420E-09
 0.3145000E+00  0.7991753E-09
 0.3156000E+00  0.1101309E-08
 0.3167000E+00  0.1286122E-08
 0.3178000E+00  0.1306683E-08
 0.3189000E+00  0.1131720E-08
 0.3200000E+00  0.7520362E-09
 0.3211000E+00  0.1848101E-09
 0.3222000E+00 -0.5249664E-09
 0.3233000E+00 -0.1306325E-08
 0.3244000E+00 -0.2067454E-08
 0.3255000E+00 -0.2703792E-08
 0.3266000E+00 -0.3108424E-08
 0.3277000E+00 -0.3183928E-08
 0.3288000E+00 -0.2854700E-08
 0.3299000E+00 -0.2078695E-08
 0.3310000E+00 -0.8575625E-09
 0.3321000E+00  0.7558832E-09
 0.3332000E+00  0.2653863E-08
 0.3343000E+00  0.4674396E-08
 0.3354000E+00  0.6607355E-08
 0.3365000E+00  0.8206201E-08
 0.3376000E+00  0.9205351E-08
 0.3387000E+00  0.9342581E-08
 0.3398000E+00  0.8385269E-08
 0.3409000E+00  0.6158747E-08
 0.3420000E+00  0.2574575E-08
 0.3431000E+00 -0.2343600E-08
 0.3442000E+00 -0.8438893E-08
 0.3453000E+00 -0.1540659E-07
 0.3464000E+00 -0.2278720E-07
 0.3475000E+00 -0.2996729E-07
 0.3486000E+00 -0.3618689E-07
 0.3497000E+00 -0.4055118E-07
 0.3508000E+00 -0.4204291E-07
 0.3519000E+00 -0.3953091E-07
 0.3530000E+00 -0.3176968E-07
 0.3541000E+00 -0.1738445E-07
 0.3552000E+00  0.5163661E-08
 0.3563000E+00  0.3763696E-07
 0.3574000E+00  0.8210884E-07
 0.3585000E+00  0.1410820E-06
 0.3596000E+00  0.2176379E-06
 0.3607000E+00  0.3156179E-06
 0.3618000E+00  0.4398336E-06
 0.3629000E+00  0.5963074E-06
 0.3640000E+00  0.7925428E-06
 0.3651000E+00  0.1037830E-05
 0.3662000E+00  0.1343591E-05
 0.3673000E+00  0.1723783E-05
 0.3684000E+00  0.2195363E-05
 0.3695000E+00  0.2778845E-05
 0.3706000E+00  0.3498951E-05
 0.3717000E+00  0.4385390E-05
 0.3728000E+00  0.5473768E-05
 0.3739000E+00  0.6806643E-05
 0.3750000E+00  0.8434736E-05
 0.3761000E+00  0.1041831E-04
 0.3772000E+00  0.1282871E-04
 0.3783000E+00  0.1575008E-04
 0.3794000E+00  0.1928128E-04
 0.3805000E+00  0.2353799E-04
 0.3816000E+00  0.2865496E-04
 0.3827000E+00  0.3478860E-04
 0.3838000E+00  0.4211965E-04
 0.3849000E+00  0.5085617E-04
 0.3860000E+00  0.6123674E-04
 0.3871000E+00  0.7353384E-04
 0.3882000E+00  0.8805747E-04
 0.3893000E+00  0.1051589E-03
 0.3904000E+00  0.1252345E-03
 0.3915000E+00  0.1487298E-03
 0.3926000E+00  0.1761431E-03
 0.3937000E+00  0.2080295E-03
 0.3948000E+00  0.2450045E-03
 0.3959000E+00  0.2877468E-03
 0.3970000E+00  0.3370017E-03
 0.3981000E+00  0.3935825E-03
 0.3992000E+00  0.4583722E-03
 0.4003000E+00  0.5323240E-03
 0.4014000E+00  0.6164602E-03
 0.4025000E+00  0.7118701E-03
 0.4036000E+00  0.8197066E-03
 0.4047000E+00  0.9411804E-03
 0.4058000E+00  0.1077553E-02
 0.4069000E+00  0.1230127E-02
 0.4080000E+00  0.1400235E-02
 0.4091000E+00  0.1589223E-02
 0.4102000E+00  0.1798438E-02
 0.4113000E+00  0.2029203E-02
 0.4124000E+00  0.2282799E-02
 0.4135000E+00  0.2560437E-02
 0.4146000E+00  0.2863233E-02
 0.4157000E+00  0.3192171E-02
 0.4168000E+00  0.3548080E-02
 0.4179000E+00  0.3931589E-02
 0.4190000E+00  0.4343095E-02
 0.4201000E+00  0.4782726E-02
 0.4212000E+00  0.5250299E-02
 0.4223000E+00  0.5745283E-02
 0.4234000E+00  0.6266762E-02
 0.4245000E+00  0.6813395E-02
 0.4256000E+00  0.7383387E-02
 0.4267000E+00  0.7974452E-02
 0.4278000E+00  0.8583795E-02
 0.4289000E+00  0.9208080E-02
 0.4300000E+00  0.9843427E-02
 0.4311000E+00  0.1048540E-01
 0.4322000E+00  0.1112899E-01
 0.4333000E+00  0.1176868E-01
 0.4344000E+00  0.1239838E-01
 0.4355000E+00  0.1301155E-01
 0.4366000E+00  0.1360118E-01
 0.4377000E+00  0.1415985E-01
 0.4388000E+00  0.1467984E-01
 0.4399000E+00  0.1515314E-01
 0.4410000E+00  0.1557161E-01
 0.4421000E+00  0.1592700E-01
 0.4432000E+00  0.1621113E-01
 0.4443000E+00  0.1641597E-01
 0.4454000E+00  0.1653375E-01
 0.4465000E+00  0.1655710E-01
 0.4476000E+00  0.1647921E-01
 0.4487000E+00  0.1629390E-01
 0.4498000E+00  0.1599578E-01
 0.4509000E+00  0.1558039E-01
 0.4520000E+00  0.1504428E-01
 0.4531000E+00  0.1438514E-01
 0.4542000E+00  0.1360189E-01
 0.4553000E+00  0.1269477E-01
 0.4564000E+00  0.1166538E-01
 0.4575000E+00  0.1051676E-01
 0.4586000E+00  0.9253397E-02
 0.4597000E+00  0.7881212E-02
 0.4608000E+00  0.6407575E-02
 0.4619000E+00  0.4841242E-02
 0.4630000E+00  0.3192292E-02
 0.4641000E+00  0.1472039E-02
 0.4652000E+00 -0.3070832E-03
 0.4663000E+00 -0.2131647E-02
 0.4674000E+00 -0.3987391E-02
 0.4685000E+00 -0.5859379E-02
 0.4696000E+00 -0.7732195E-02
 0.4707000E+00 -0.9590128E-02
 0.4718000E+00 -0.1141738E-01
 0.4729000E+00 -0.1319826E-01
 0.4740000E+00 -0.1491741E-01
 0.4751000E+00 -0.1656002E-01
 0.4762000E+00 -0.1811197E-01
 0.4773000E+00 -0.1956010E-01
 0.4784000E+00 -0.2089231E-01
 0.4795000E+00 -0.2209777E-01
 0.4806000E+00 -0.2316704E-01
 0.4817000E+00 -0.2409218E-01
 0.4828000E+00 -0.2486686E-01
 0.4839000E+00 -0.2548641E-01
 0.4850000E+00 -0.2594788E-01
 0.4861000E+00 -0.2625001E-01
 0.4872000E+00 -0.2639329E-01
 0.4883000E+00 -0.2637987E-01
 0.4894000E+00 -0.2621350E-01
 0.4905000E+00 -0.2589945E-01
 0.4916000E+00 -0.2544442E-01
 0.4927000E+00 -0.2485639E-01
 0.4938000E+00 -0.2414448E-01
 0.4949000E+00 -0.2331882E-01
 0.4960000E+00 -0.2239034E-01
 0.4971000E+00 -0.2137064E-01
 0.4982000E+00 -0.2027181E-01
 0.4993000E+00 -0.1910621E-01
 0.5004000E+00 -0.1788637E-01
 0.5015000E+00 -0.1662476E-01
 0.5026000E+00 -0.1533367E-01
 0.5037000E+00 -0.1402505E-01
 0.5048000E+00 -0.1271039E-01
 0.5059000E+00 -0.1140057E-01
 0.5070000E+00 -0.1010580E-01
 0.5081000E+00 -0.8835484E-02
 0.5092000E+00 -0.7598190E-02
 0.5103000E+00 -0.6401575E-02
 0.5114000E+00 -0.5252356E-02
 0.5125000E+00 -0.4156292E-02
 0.5136000E+00 -0.3118180E-02
 0.5147000E+00 -0.2141865E-02
 0.5158000E+00 -0.1230269E-02
 0.5169000E+00 -0.3854219E-03
 0.5180000E+00  0.3914877E-03
 0.5191000E+00  0.1100061E-02
 0.5202000E+00  0.1740626E-02
 0.5213000E+00  0.2314167E-02
 0.5224000E+00  0.2822259E-02
 0.5235000E+00  0.3266988E-02
 0.5246000E+00  0.3650879E-02
 0.5257000E+00  0.3976826E-02
 0.5268000E+00  0.4248012E-02
 0.5279000E+00  0.4467850E-02
 0.5290000E+00  0.4639909E-02
 0.5301000E+00  0.4767856E-02
 0.5312000E+00  0.4855402E-02
 0.5323000E+00  0.4906249E-02
 0.5334000E+00  0.4924045E-02
 0.5345000E+00  0.4912346E-02
 0.5356000E+00  0.4874586E-02
 0.5367000E+00  0.4814043E-02
 0.5378000E+00  0.4733824E-02
 0.5389000E+00  0.4636846E-02
 0.5400000E+00  0.4525823E-02
 0.5411000E+00  0.4403260E-02
 0.5422000E+00  0.4271448E-02
 0.5433000E+00  0.4132466E-02
 0.5444000E+00  0.3988185E-02
 0.5455000E+00  0.3840273E-02
 0.5466000E+00  0.3690202E-02
 0.5477000E+00  0.3539262E-02
 0.5488000E+00  0.3388572E-02
 0.5499000E+00  0.3239089E-02
 0.5510000E+00  0.3091628E-02
 0.5521000E+00  0.2946870E-02
 0.5532000E+00  0.2805380E-02
 0.5543000E+00  0.2667618E-02
 0.5554000E+00  0.2533951E-02
 0.5565000E+00  0.2404670E-02
 0.5576000E+00  0.2279996E-02
 0.5587000E+00  0.2160091E-02
 0.5598000E+00  0.2045069E-02
 0.5609000E+00  0.1935004E-02
 0.5620000E+00  0.1829934E-02
 0.5631000E+00  0.1729870E-02
 0.5642000E+00  0.1634798E-02
 0.5653000E+00  0.1544684E-02
 0.5664000E+00  0.1459476E-02
 0.5675000E+00  0.1379105E-02
 0.5686000E+00  0.1303488E-02
 0.5697000E+00  0.1232528E-02
 0.5708000E+00  0.1166114E-02
 0.5719000E+00  0.1104120E-02
 0.5730000E+00  0.1046409E-02
 0.5741000E+00  0.9928257E-03
 0.5752000E+00  0.9432029E-03
 0.5763000E+00  0.8973568E-03
 0.5774000E+00  0.8550892E-03
 0.5785000E+00  0.8161895E-03
 0.5796000E+00  0.7804353E-03
 0.5807000E+00  0.7475959E-03
 0.5818000E+00  0.7174331E-03
 0.5829000E+00  0.6897046E-03
 0.5840000E+00  0.6641651E-03
 0.5851000E+00  0.6405689E-03
 0.5862000E+00  0.6186720E-03
 0.5873000E+00  0.5982348E-03
 0.5884000E+00  0.5790258E-03
 0.5895000E+00  0.5608248E-03
 0.5906000E+00  0.5434274E-03
 0.5917000E+00  0.5266479E-03
 0.5928000E+00  0.5103234E-03
 0.5939000E+00  0.4943156E-03
 0.5950000E+00  0.4785128E-03
 0.5961000E+00  0.4628302E-03
 0.5972000E+00  0.4472107E-03
 0.5983000E+00  0.4316235E-03
 0.5994000E+00  0.4160633E-03
 0.6005000E+00  0.4005491E-03
 0.6016000E+00  0.3851219E-03
 0.6027000E+00  0.3698429E-03
 0.6038000E+00  0.3547907E-03
 0.6049000E+00  0.3400592E-03
 0.6060000E+00  0.3257543E-03
 0.6071000E+00  0.3119912E-03
 0.6082000E+00  0.2988904E-03
 0.6093000E+00  0.2865747E-03
 0.6104000E+00  0.2751644E-03
 0.6115000E+00  0.2647735E-03
 0.6126000E+00  0.2555053E-03
 0.6137000E+00  0.2474483E-03
 0.6148000E+00  0.2406729E-03
 0.6159000E+00  0.2352284E-03
 0.6170000E+00  0.2311410E-03
 0.6181000E+00  0.2284129E-03
 0.6192000E+00  0.2270215E-03
 0.6203000E+00  0.2269199E-03
 0.6214000E+00  0.2280378E-03
 0.6225000E+00  0.2302827E-03
 0.6236000E+00  0.2335419E-03
 0.6247000E+00  0.2376853E-03
 0.6258000E+00  0.2425674E-03
 0.6269000E+00  0.2480315E-03
 0.6280000E+00  0.2539123E-03
 0.6291000E+00  0.2600405E-03
 0.6302000E+00  0.2662470E-03
 0.6313000E+00  0.2723674E-03
 0.6324000E+00  0.2782467E-03
 0.6335000E+00  0.2837438E-03
 0.6346000E+00  0.2887351E-03
 0.6357000E+00  0.2931182E-03
 0.6368000E+00  0.2968138E-03
 0.6379000E+00  0.2997672E-03
 0.6390000E+00  0.3019488E-03
 0.6401000E+00  0.3033542E-03
 0.6412000E+00  0.3040029E-03
 0.6423000E+00  0.3039375E-03
 0.6434000E+00  0.3032214E-03
 0.6445000E+00  0.3019359E-03
 0.6456000E+00  0.3001769E-03
 0.6467000E+00  0.2980509E-03
 0.6478000E+00  0.2956707E-03
 0.6489000E+00  0.2931508E-03
 0.6500000E+00  0.2906031E-03
 0.6511000E+00  0.2881329E-03
 0.6522000E+00  0.2858345E-03
 0.6533000E+00  0.2837880E-03
 0.6544000E+00  0.2820558E-03
 0.6555000E+00  0.2806795E-03
 0.6566000E+00  0.2796781E-03
 0.6577000E+00  0.2790464E-03
 0.6588000E+00  0.2787542E-03
 0.6599000E+00  0.2787470E-03
 0.6610000E+00  0.2789470E-03
 0.6621000E+00  0.2792550E-03
 0.6632000E+00  0.2795533E-03
 0.6643000E+00  0.2797078E-03
 0.6654000E+00  0.2795720E-03
 0.6665000E+00  0.2789899E-03
 0.6676000E+00  0.2777994E-03
 0.6687000E+00  0.2758353E-03
 0.6698000E+00  0.2729324E-03
 0.6709000E+00  0.2689284E-03
 0.6720000E+00  0.2636658E-03
 0.6731000E+00  0.2569944E-03
 0.6742000E+00  0.2487727E-03
 0.6753000E+00  0.2388687E-03
 0.6764000E+00  0.2271599E-03
 0.6775000E+00  0.2135329E-03
 0.6786000E+00  0.1978820E-03
 0.6797000E+00  0.1801079E-03
 0.6808000E+00  0.1601157E-03
 0.6819000E+00  0.1378135E-03
 0.6830000E+00  0.1131113E-03
 0.6841000E+00  0.8591869E-04
 0.6852000E+00  0.5614381E-04
 0.6863000E+00  0.2369076E-04
 0.6874000E+00 -0.1154281E-04
 0.6885000E+00 -0.4966848E-04
 0.6896000E+00 -0.9080947E-04
 0.6907000E+00 -0.1351026E-03
 0.6918000E+00 -0.1826992E-03
 0.6929000E+00 -0.2337652E-03
 0.6940000E+00 -0.2884800E-03
 0.6951000E+00 -0.3470348E-03
 0.6962000E+00 -0.4096294E-03
 0.6973000E+00 -0.4764688E-03
 0.6984000E+00 -0.5477582E-03
 0.6995000E+00 -0.6236966E-03
 0.7006000E+00 -0.7044695E-03
 0.7017000E+00 -0.7902395E-03
 0.7028000E+00 -0.8811369E-03
 0.7039000E+00 -0.9772474E-03
 0.7050000E+00 -0.1078600E-02
 0.7061000E+00 -0.1185154E-02
 0.7072000E+00 -0.1296782E-02
 0.7083000E+00 -0.1413254E-02
 0.7094000E+00 -0.1534226E-02
 0.7105000E+00 -0.1659216E-02
 0.7116000E+00 -0.1787592E-02
 0.7127000E+00 -0.1918561E-02
 0.7138000E+00 -0.2051150E-02
 0.7149000E+00 -0.2184203E-02
 0.7160000E+00 -0.2316370E-02
 0.7171000E+00 -0.2446107E-02
 0.7182000E+00 -0.2571678E-02
 0.7193000E+00 -0.2691161E-02
 0.7204000E+00 -0.2802458E-02
 0.7215000E+00 -0.2903318E-02
 0.7226000E+00 -0.2991353E-02
 0.7237000E+00 -0.3064075E-02
 0.7248000E+00 -0.3118923E-02
 0.7259000E+00 -0.3153310E-02
 0.7270000E+00 -0.3164658E-02
 0.7281000E+00 -0.3150455E-02
 0.7292000E+00 -0.3108304E-02
 0.7303000E+00 -0.3035972E-02
 0.7314000E+00 -0.2931454E-02
 0.7325000E+00 -0.2793017E-02
 0.7336000E+00 -0.2619255E-02
 0.7347000E+00 -0.2409134E-02
 0.7358000E+00 -0.2162031E-02
 0.7369000E+00 -0.1877763E-02
 0.7380000E+00 -0.1556613E-02
 0.7391000E+00 -0.1199341E-02
 0.7402000E+00 -0.8071874E-03
 0.7413000E+00 -0.3818584E-03
 0.7424000E+00  0.7449364E-04
 0.7435000E+00  0.5593087E-03
 0.7446000E+00  0.1069669E-02
 0.7457000E+00  0.1602358E-02
 0.7468000E+00  0.2153938E-02
 0.7479000E+00  0.2720824E-02
 0.7490000E+00  0.3299380E-02
 0.7501000E+00  0.3886007E-02
 0.7512000E+00  0.4477245E-02
 0.7523000E+00  0.5069867E-02
 0.7534000E+00  0.5660976E-02
 0.7545000E+00  0.6248096E-02
 0.7556000E+00  0.6829252E-02
 0.7567000E+00  0.7403036E-02
 0.7578000E+00  0.7968670E-02
 0.7589000E+00  0.8526034E-02
 0.7600000E+00  0.9075697E-02
 0.7611000E+00  0.9618905E-02
 0.7622000E+00  0.1015757E-01
 0.7633000E+00  0.1069420E-01
 0.7644000E+00  0.1123188E-01
 0.7655000E+00  0.1177411E-01
 0.7666000E+00  0.1232478E-01
 0.7677000E+00  0.1288798E-01
 0.7688000E+00  0.1346788E-01
 0.7699000E+00  0.1406857E-01
 0.7710000E+00  0.1469389E-01
 0.7721000E+00  0.1534730E-01
 0.7732000E+00  0.1603164E-01
 0.7743000E+00  0.1674904E-01
 0.7754000E+00  0.1750071E-01
 0.7765000E+00  0.1828680E-01
 0.7776000E+00  0.1910630E-01
 0.7787000E+00  0.1995692E-01
 0.7798000E+00  0.2083501E-01
 0.7809000E+00  0.2173552E-01
 0.7820000E+00  0.2265194E-01
 0.7831000E+00  0.2357639E-01
 0.7842000E+00  0.2449959E-01
 0.7853000E+00  0.2541099E-01
 0.7864000E+00  0.2629887E-01
 0.7875000E+00  0.2715050E-01
 0.7886000E+00  0.2795230E-01
 0.7897000E+00  0.2869009E-01
 0.7908000E+00  0.2934924E-01
 0.7919000E+00  0.2991501E-01
 0.7930000E+00  0.3037275E-01
 0.7941000E+00  0.3070820E-01
 0.7952000E+00  0.3090776E-01
 0.7963000E+00  0.3095873E-01
 0.7974000E+00  0.3084965E-01
 0.7985000E+00  0.3057045E-01
 0.7996000E+00  0.3011275E-01
 0.8007000E+00  0.2947003E-01
 0.8018000E+00  0.2863782E-01
 0.8029000E+00  0.2761380E-01
 0.8040000E+00  0.2639797E-01
 0.8051000E+00  0.2499264E-01
 0.8062000E+00  0.2340250E-01
 0.8073000E+00  0.2163458E-01
 0.8084000E+00  0.1969820E-01
 0.8095000E+00  0.1760487E-01
 0.8106000E+00  0.1536815E-01
 0.8117000E+00  0.1300346E-01
 0.8128000E+00  0.1052789E-01
 0.8139000E+00  0.7959994E-02
 0.8150000E+00  0.5319463E-02
 0.8161000E+00  0.2626921E-02
 0.8172000E+00 -0.9639664E-04
 0.8183000E+00 -0.2828924E-02
 0.8194000E+00 -0.5549063E-02
 0.8205000E+00 -0.8235469E-02
 0.8216000E+00 -0.1086734E-01
 0.8227000E+00 -0.1342468E-01
 0.8238000E+00 -0.1588854E-01
 0.8249000E+00 -0.1824130E-01
 0.8260000E+00 -0.2046679E-01
 0.8271000E+00 -0.2255052E-01
 0.8282000E+00 -0.2447982E-01
 0.8293000E+00 -0.2624393E-01
 0.8304000E+00 -0.2783411E-01
 0.8315000E+00 -0.2924366E-01
 0.8326000E+00 -0.3046794E-01
 0.8337000E+00 -0.3150437E-01
 0.8348000E+00 -0.3235235E-01
 0.8359000E+00 -0.3301324E-01
 0.8370000E+00 -0.3349022E-01
 0.8381000E+00 -0.3378818E-01
 0.8392000E+00 -0.3391359E-01
 0.8403000E+00 -0.3387437E-01
 0.8414000E+00 -0.3367964E-01
 0.8425000E+00 -0.3333964E-01
 0.8436000E+00 -0.3286550E-01
 0.8447000E+00 -0.3226904E-01
 0.8458000E+00 -0.3156263E-01
 0.8469000E+00 -0.3075894E-01
 0.8480000E+00 -0.2987085E-01
 0.8491000E+00 -0.2891121E-01
 0.8502000E+00 -0.2789271E-01
 0.8513000E+00 -0.2682776E-01
 0.8524000E+00 -0.2572829E-01
 0.8535000E+00 -0.2460570E-01
 0.8546000E+00 -0.2347072E-01
 0.8557000E+00 -0.2233332E-01
 0.8568000E+00 -0.2120265E-01
 0.8579000E+00 -0.2008700E-01
 0.8590000E+00 -0.1899371E-01
 0.8601000E+00 -0.1792920E-01
 0.8612000E+00 -0.1689892E-01
 0.8623000E+00 -0.1590740E-01
 0.8634000E+00 -0.1495820E-01
 0.8645000E+00 -0.1405402E-01
 0.8656000E+00 -0.1319665E-01
 0.8667000E+00 -0.1238711E-01
 0.8678000E+00 -0.1162566E-01
 0.8689000E+00 -0.1091186E-01
 0.8700000E+00 -0.1024465E-01
 0.8711000E+00 -0.9622430E-02
 0.8722000E+00 -0.9043141E-02
 0.8733000E+00 -0.8504326E-02
 0.8744000E+00 -0.8003222E-02
 0.8755000E+00 -0.7536838E-02
 0.8766000E+00 -0.7102029E-02
 0.8777000E+00 -0.6695566E-02
 0.8788000E+00 -0.6314207E-02
 0.8799000E+00 -0.5954752E-02
 0.8810000E+00 -0.5614105E-02
 0.8821000E+00 -0.5289320E-02
 0.8832000E+00 -0.4977645E-02
 0.8843000E+00 -0.4676556E-02
 0.8854000E+00 -0.4383787E-02
 0.8865000E+00 -0.4097348E-02
 0.8876000E+00 -0.3815542E-02
 0.8887000E+00 -0.3536971E-02
 0.8898000E+00 -0.3260529E-02
 0.8909000E+00 -0.2985405E-02
 0.8920000E+00 -0.2711063E-02
 0.8931000E+00 -0.2437229E-02
 0.8942000E+00 -0.2163865E-02
 0.8953000E+00 -0.1891149E-02
 0.8964000E+00 -0.1619444E-02
 0.8975000E+00 -0.1349269E-02
 0.8986000E+00 -0.1081270E-02
 0.8997000E+00 -0.8161894E-03
 0.9008000E+00 -0.5548380E-03
 0.9019000E+00 -0.2980675E-03
 0.9030000E+00 -0.4674533E-04
 0.9041000E+00  0.1982682E-03
 0.9052000E+00  0.4361402E-03
 0.9063000E+00  0.6660827E-03
 0.9074000E+00  0.8873675E-03
 0.9085000E+00  0.1099338E-02
 0.9096000E+00  0.1301416E-02
 0.9107000E+00  0.1493112E-02
 0.9118000E+00  0.1674022E-02
 0.9129000E+00  0.1843829E-02
 0.9140000E+00  0.2002302E-02
 0.9151000E+00  0.2149288E-02
 0.9162000E+00  0.2284707E-02
 0.9173000E+00  0.2408545E-02
 0.9184000E+00  0.2520841E-02
 0.9195000E+00  0.2621685E-02
 0.9206000E+00  0.2711210E-02
 0.9217000E+00  0.2789581E-02
 0.9228000E+00  0.2856996E-02
 0.9239000E+00  0.2913677E-02
 0.9250000E+00  0.2959868E-02
 0.9261000E+00  0.2995833E-02
 0.9272000E+00  0.3021851E-02
 0.9283000E+00  0.3038217E-02
 0.9294000E+00  0.3045239E-02
 0.9305000E+00  0.3043243E-02
 0.9316000E+00  0.3032571E-02
 0.9327000E+00  0.3013586E-02
 0.9338000E+00  0.2986675E-02
 0.9349000E+00  0.2952251E-02
 0.9360000E+00  0.2910758E-02
 0.9371000E+00  0.2862672E-02
 0.9382000E+00  0.2808502E-02
 0.9393000E+00  0.2748791E-02
 0.9404000E+00  0.2684115E-02
 0.9415000E+00  0.2615080E-02
 0.9426000E+00  0.2542322E-02
 0.9437000E+00  0.2466497E-02
 0.9448000E+00  0.2388279E-02
 0.9459000E+00  0.2308351E-02
 0.9470000E+00  0.2227400E-02
 0.9481000E+00  0.2146106E-02
 0.9492000E+00  0.2065138E-02
 0.9503000E+00  0.1985142E-02
 0.9514000E+00  0.1906738E-02
 0.9525000E+00  0.1830506E-02
 0.9536000E+00  0.1756981E-02
 0.9547000E+00  0.1686644E-02
 0.9558000E+00  0.1619916E-02
 0.9569000E+00  0.1557151E-02
 0.9580000E+00  0.1498631E-02
 0.9591000E+00  0.1444570E-02
 0.9602000E+00  0.1395107E-02
 0.9613000E+00  0.1350308E-02
 0.9624000E+00  0.1310174E-02
 0.9635000E+00  0.1274637E-02
 0.9646000E+00  0.1243569E-02
 0.9657000E+00  0.1216787E-02
 0.9668000E+00  0.1194059E-02
 0.9679000E+00  0.1175110E-02
 0.9690000E+00  0.1159631E-02
 0.9701000E+00  0.1147286E-02
 0.9712000E+00  0.1137720E-02
 0.9723000E+00  0.1130570E-02
 0.9734000E+00  0.1125468E-02
 0.9745000E+00  0.1122051E-02
 0.9756000E+00  0.1119969E-02
 0.9767000E+00  0.1118887E-02
 0.9778000E+00  0.1118493E-02
 0.9789000E+00  0.1118498E-02