 -0.119999997         0.00000000    
 -0.119000003         0.00000000    
 -0.118000001         0.00000000    
 -0.116999999         0.00000000    
 -0.115999997         0.00000000    
 -0.115000002         0.00000000    
 -0.114000000         0.00000000    
 -0.112999998         0.00000000    
 -0.112000003         0.00000000    
 -0.111000001         0.00000000    
 -0.109999999         0.00000000    
 -0.108999997         0.00000000    
 -0.108000003         0.00000000    
 -0.107000001         0.00000000    
 -0.105999999         0.00000000    
 -0.104999997         0.00000000    
 -0.104000002        -0.00000000    
 -0.103000000        -6.47935299E-38
 -0.101999998        -3.23775548E-37
 -0.101000004        -1.22718150E-36
 -0.100000001        -4.06789240E-36
  -9.89999995E-02    -1.18086328E-35
  -9.79999974E-02    -2.98931399E-35
  -9.70000029E-02    -6.60175765E-35
  -9.60000008E-02    -1.26665554E-34
  -9.49999988E-02    -2.06591594E-34
  -9.39999968E-02    -2.65760906E-34
  -9.30000022E-02    -1.91064060E-34
  -9.20000002E-02     2.36958103E-34
  -9.09999982E-02     1.28496658E-33
  -9.00000036E-02     2.92843285E-33
  -8.90000015E-02     4.07072739E-33
  -8.79999995E-02     1.67884489E-33
  -8.69999975E-02    -8.43953149E-33
  -8.60000029E-02    -2.59119539E-32
  -8.50000009E-02    -3.29874160E-32
  -8.39999989E-02     1.84275432E-32
  -8.29999968E-02     1.93613171E-31
  -8.20000023E-02     4.92166178E-31
  -8.10000002E-02     6.74531055E-31
  -7.99999982E-02     9.24739659E-32
  -7.90000036E-02    -2.16754801E-30
  -7.80000016E-02    -6.35443282E-30
  -7.69999996E-02    -1.01215450E-29
  -7.59999976E-02    -6.51314374E-30
  -7.50000030E-02     1.52308197E-29
  -7.40000010E-02     6.16433842E-29
  -7.29999989E-02     1.17362752E-28
  -7.19999969E-02     1.24349533E-28
  -7.10000023E-02    -1.97864611E-29
  -7.00000003E-02    -4.08988364E-28
  -6.89999983E-02    -9.96457568E-28
  -6.80000037E-02    -1.41558258E-27
  -6.70000017E-02    -8.94176340E-28
  -6.59999996E-02     1.49442582E-27
  -6.49999976E-02     6.02545826E-27
  -6.40000030E-02     1.10510654E-26
  -6.30000010E-02     1.19860173E-26
  -6.19999990E-02     1.98515248E-27
  -6.10000007E-02    -2.41189800E-26
  -5.99999987E-02    -6.23660305E-26
  -5.90000004E-02    -9.16777536E-26
  -5.79999983E-02    -7.25173946E-26
  -5.70000000E-02     3.83786531E-26
  -5.60000017E-02     2.51994714E-25
  -5.49999997E-02     4.98550379E-25
  -5.40000014E-02     5.96876665E-25
  -5.29999994E-02     2.89435753E-25
  -5.20000011E-02    -6.16158299E-25
  -5.09999990E-02    -2.00894789E-24
  -5.00000007E-02    -3.24434805E-24
  -4.89999987E-02    -3.12712923E-24
  -4.80000004E-02    -3.39150187E-25
  -4.69999984E-02     5.60030382E-24
  -4.60000001E-02     1.31094791E-23
  -4.50000018E-02     1.77955897E-23
  -4.39999998E-02     1.32367515E-23
  -4.30000015E-02    -5.89853071E-24
  -4.19999994E-02    -3.86985026E-23
  -4.10000011E-02    -7.29869950E-23
  -3.99999991E-02    -8.44079086E-23
  -3.90000008E-02    -4.39045112E-23
  -3.79999988E-02     6.47932104E-23
  -3.70000005E-02     2.22185186E-22
  -3.59999985E-02     3.56844600E-22
  -3.50000001E-02     3.53483195E-22
  -3.40000018E-02     9.90833973E-23
  -3.29999998E-02    -4.35395028E-22
  -3.20000015E-02    -1.10745519E-21
  -3.09999995E-02    -1.56640957E-21
  -2.99999993E-02    -1.33205331E-21
  -2.89999992E-02    -2.17433589E-23
  -2.80000009E-02     2.31807269E-21
  -2.70000007E-02     4.92261928E-21
  -2.60000005E-02     6.28560775E-21
  -2.50000004E-02     4.60746104E-21
  -2.40000002E-02    -1.24686299E-21
  -2.30000000E-02    -1.05487217E-20
  -2.19999999E-02    -1.98720659E-20
  -2.09999997E-02    -2.34040964E-20
  -1.99999996E-02    -1.49664939E-20
  -1.89999994E-02     8.39571035E-21
  -1.79999992E-02     4.24720118E-20
  -1.70000009E-02     7.37944045E-20
  -1.60000008E-02     8.18404226E-20
  -1.49999997E-02     4.68681278E-20
  -1.40000004E-02    -3.78687420E-20
  -1.30000003E-02    -1.54152500E-19
  -1.20000001E-02    -2.54298119E-19
  -1.09999999E-02    -2.71145669E-19
  -9.99999978E-03    -1.45150849E-19
  -8.99999961E-03     1.37262041E-19
  -8.00000038E-03     5.09666662E-19
  -7.00000022E-03     8.17631640E-19
  -6.00000005E-03     8.55526334E-19
  -4.99999989E-03     4.51800260E-19
  -4.00000019E-03    -4.18692563E-19
  -3.00000003E-03    -1.54289109E-18
  -2.00000009E-03    -2.45896870E-18
  -1.00000005E-03    -2.57418648E-18
   0.00000000        -1.41236830E-18
   1.00000005E-03     1.07683385E-18
   2.00000009E-03     4.28052608E-18
   3.00000003E-03     6.91637805E-18
   4.00000019E-03     7.37040094E-18
   4.99999989E-03     4.36410110E-18
   6.00000005E-03    -2.24095532E-18
   7.00000022E-03    -1.08500702E-17
   8.00000038E-03    -1.81489498E-17
   8.99999961E-03    -1.99828985E-17
   9.99999978E-03    -1.30352291E-17
   1.09999999E-02     3.19004892E-18
   1.20000001E-02     2.49330087E-17
   1.30000003E-02     4.42189150E-17
   1.40000004E-02     5.09522115E-17
   1.49999997E-02     3.68655010E-17
   1.60000008E-02     1.48655613E-19
   1.70000009E-02    -5.11932949E-17
   1.79999992E-02    -9.93282582E-17
   1.89999994E-02    -1.21176864E-16
   1.99999996E-02    -9.71063717E-17
   2.09999997E-02    -2.11533244E-17
   2.19999999E-02     9.14298811E-17
   2.30000000E-02     2.03706223E-16
   2.40000002E-02     2.66268698E-16
   2.50000004E-02     2.35142725E-16
   2.60000005E-02     9.30742765E-17
   2.70000007E-02    -1.34328374E-16
   2.80000009E-02    -3.76455508E-16
   2.89999992E-02    -5.34791510E-16
   2.99999993E-02    -5.17386835E-16
   3.09999995E-02    -2.80515422E-16
   3.20000015E-02     1.38809576E-16
   3.29999998E-02     6.16317054E-16
   3.40000018E-02     9.69925358E-16
   3.50000001E-02     1.02191931E-15
   3.59999985E-02     6.75339157E-16
   3.70000005E-02    -2.49677338E-17
   3.79999988E-02    -8.76914258E-16
   3.90000008E-02    -1.56915903E-15
   3.99999991E-02    -1.78686471E-15
   4.10000011E-02    -1.34299774E-15
   4.19999994E-02    -2.84282812E-16
   4.30000015E-02     1.07960088E-15
   4.39999998E-02     2.25294014E-15
   4.50000018E-02     2.72638497E-15
   4.60000001E-02     2.19002465E-15
   4.69999984E-02     7.02760314E-16
   4.80000004E-02    -1.26496716E-15
   4.89999987E-02    -2.95945307E-15
   5.00000007E-02    -3.62080708E-15
   5.09999990E-02    -2.81589115E-15
   5.20000011E-02    -6.90056407E-16
   5.29999994E-02     1.99139500E-15
   5.40000014E-02     4.07347843E-15
   5.49999997E-02     4.46547257E-15
   5.60000017E-02     2.65940838E-15
   5.70000000E-02    -9.08997748E-16
   5.79999983E-02    -4.85547322E-15
   5.90000004E-02    -7.27887599E-15
   5.99999987E-02    -6.53044911E-15
   6.10000007E-02    -2.04796409E-15
   6.19999990E-02     5.10713772E-15
   6.30000010E-02     1.23187254E-14
   6.40000030E-02     1.61993798E-14
   6.49999976E-02     1.39054866E-14
   6.59999996E-02     4.52942483E-15
   6.70000017E-02    -1.00160816E-14
   6.80000037E-02    -2.51104662E-14
   6.89999983E-02    -3.46994264E-14
   7.00000003E-02    -3.34387127E-14
   7.10000023E-02    -1.89970923E-14
   7.19999969E-02     6.38816536E-15
   7.29999989E-02     3.58627211E-14
   7.40000010E-02     5.96880265E-14
   7.50000030E-02     6.83571513E-14
   7.59999976E-02     5.60871743E-14
   7.69999996E-02     2.33999916E-14
   7.80000016E-02    -2.22902870E-14
   7.90000036E-02    -6.84981518E-14
   7.99999982E-02    -1.01407394E-13
   8.10000002E-02    -1.10259227E-13
   8.20000023E-02    -9.07938682E-14
   8.29999968E-02    -4.64728963E-14
   8.39999989E-02     1.29128860E-14
   8.50000009E-02     7.45589910E-14
   8.60000029E-02     1.26381896E-13
   8.69999975E-02     1.59538330E-13
   8.79999995E-02     1.68778620E-13
   8.90000015E-02     1.50928478E-13
   9.00000036E-02     1.03016987E-13
   9.09999982E-02     2.20957777E-14
   9.20000002E-02    -9.18328388E-14
   9.30000022E-02    -2.30091445E-13
   9.39999968E-02    -3.69312924E-13
   9.49999988E-02    -4.69228660E-13
   9.60000008E-02    -4.78268087E-13
   9.70000029E-02    -3.48671802E-13
   9.79999974E-02    -5.86804436E-14
   9.89999995E-02     3.65230659E-13
  0.100000001         8.36112104E-13
  0.101000004         1.21385909E-12
  0.101999998         1.33676848E-12
  0.103000000         1.07347952E-12
  0.104000002         3.81795778E-13
  0.104999997        -6.46190349E-13
  0.105999999        -1.77414962E-12
  0.107000001        -2.66094677E-12
  0.108000003        -2.94894035E-12
  0.108999997        -2.38236254E-12
  0.109999999        -9.21223384E-13
  0.111000001         1.19057737E-12
  0.112000003         3.43754279E-12
  0.112999998         5.13933904E-12
  0.114000000         5.63630392E-12
  0.115000002         4.50774921E-12
  0.115999997         1.75697510E-12
  0.116999999        -2.10434296E-12
  0.118000001        -6.11851412E-12
  0.119000003        -9.09686475E-12
  0.119999997        -9.94483315E-12
  0.120999999        -8.01249345E-12
  0.122000001        -3.36509640E-12
  0.123000003         3.12165810E-12
  0.123999998         9.89528598E-12
  0.125000000         1.50791758E-11
  0.126000002         1.69663294E-11
  0.127000004         1.45248865E-11
  0.128000006         7.76901720E-12
  0.128999993        -2.12557511E-12
  0.129999995        -1.30178594E-11
  0.130999997        -2.22791594E-11
  0.131999999        -2.74379755E-11
  0.133000001        -2.68219162E-11
  0.134000003        -2.00182856E-11
  0.135000005        -8.01950954E-12
  0.136000007         6.99321243E-12
  0.136999995         2.21690825E-11
  0.137999997         3.46589667E-11
  0.138999999         4.22397985E-11
  0.140000001         4.37073676E-11
  0.141000003         3.89291897E-11
  0.142000005         2.85676309E-11
  0.143000007         1.36073947E-11
  0.143999994        -5.09224130E-12
  0.144999996        -2.69872440E-11
  0.145999998        -5.16247392E-11
  0.147000000        -7.80039505E-11
  0.148000002        -1.03712552E-10
  0.149000004        -1.24194155E-10
  0.150000006        -1.32576422E-10
  0.150999993        -1.20422103E-10
  0.151999995        -7.95464805E-11
  0.152999997        -4.71164861E-12
  0.153999999         1.03355602E-10
  0.155000001         2.35456488E-10
  0.156000003         3.72846976E-10
  0.157000005         4.88348473E-10
  0.158000007         5.49955081E-10
  0.158999994         5.26630961E-10
  0.159999996         3.95344091E-10
  0.160999998         1.47893281E-10
  0.162000000        -2.04078490E-10
  0.163000003        -6.27242813E-10
  0.164000005        -1.06863940E-09
  0.165000007        -1.46148194E-09
  0.165999994        -1.73371584E-09
  0.166999996        -1.81773874E-09
  0.167999998        -1.65957581E-09
  0.169000000        -1.22618549E-09
  0.170000002        -5.10361808E-10
  0.171000004         4.66415073E-10
  0.172000006         1.65218361E-09
  0.172999993         2.96266078E-09
  0.173999995         4.27885816E-09
  0.174999997         5.44482459E-09
  0.175999999         6.26757535E-09
  0.177000001         6.52237020E-09
  0.178000003         5.96676841E-09
  0.179000005         4.36599867E-09
  0.180000007         1.53014068E-09
  0.180999994        -2.63917821E-09
  0.181999996        -8.09771183E-09
  0.182999998        -1.46102366E-08
  0.184000000        -2.17123688E-08
  0.185000002        -2.86884081E-08
  0.186000004        -3.45676803E-08
  0.187000006        -3.81374079E-08
  0.187999994        -3.79657905E-08
  0.188999996        -3.24259801E-08
  0.189999998        -1.97106012E-08
  0.191000000         2.17165153E-09
  0.192000002         3.54227190E-08
  0.193000004         8.25058208E-08
  0.194000006         1.46217317E-07
  0.194999993         2.29775338E-07
  0.195999995         3.36922000E-07
  0.196999997         4.72039574E-07
  0.197999999         6.40287396E-07
  0.199000001         8.47769797E-07
  0.200000003         1.10175142E-06
  0.201000005         1.41093278E-06
  0.202000007         1.78579796E-06
  0.202999994         2.23903794E-06
  0.203999996         2.78604580E-06
  0.204999998         3.44547220E-06
  0.206000000         4.23982601E-06
  0.207000002         5.19611513E-06
  0.208000004         6.34651497E-06
  0.209000006         7.72907970E-06
  0.209999993         9.38851099E-06
  0.210999995         1.13770157E-05
  0.211999997         1.37552834E-05
  0.213000000         1.65936126E-05
  0.214000002         1.99732167E-05
  0.215000004         2.39876954E-05
  0.216000006         2.87447074E-05
  0.216999993         3.43677930E-05
  0.217999995         4.09983368E-05
  0.218999997         4.87976868E-05
  0.219999999         5.79494008E-05
  0.221000001         6.86616040E-05
  0.222000003         8.11695354E-05
  0.223000005         9.57382072E-05
  0.224000007         1.12665250E-04
  0.224999994         1.32283880E-04
  0.225999996         1.54966023E-04
  0.226999998         1.81125390E-04
  0.228000000         2.11220642E-04
  0.229000002         2.45758332E-04
  0.230000004         2.85295711E-04
  0.231000006         3.30443290E-04
  0.231999993         3.81867052E-04
  0.232999995         4.40290110E-04
  0.233999997         5.06494311E-04
  0.234999999         5.81320899E-04
  0.236000001         6.65671076E-04
  0.237000003         7.60505151E-04
  0.238000005         8.66841467E-04
  0.238999993         9.85754072E-04
  0.239999995         1.11836893E-03
  0.240999997         1.26585935E-03
  0.241999999         1.42943906E-03
  0.243000001         1.61035452E-03
  0.244000003         1.80987478E-03
  0.245000005         2.02928018E-03
  0.246000007         2.26984872E-03
  0.246999994         2.53284117E-03
  0.247999996         2.81948294E-03
  0.248999998         3.13094584E-03
  0.250000000         3.46832699E-03
  0.250999987         3.83262476E-03
  0.252000004         4.22471389E-03
  0.252999991         4.64531872E-03
  0.254000008         5.09498594E-03
  0.254999995         5.57405408E-03
  0.256000012         6.08262280E-03
  0.256999999         6.62052305E-03
  0.257999986         7.18728593E-03
  0.259000003         7.78211234E-03
  0.259999990         8.40384606E-03
  0.261000007         9.05094389E-03
  0.261999995         9.72145144E-03
  0.263000011         1.04129827E-02
  0.263999999         1.11226933E-02
  0.264999986         1.18472744E-02
  0.266000003         1.25829317E-02
  0.266999990         1.33253848E-02
  0.268000007         1.40698710E-02
  0.268999994         1.48111461E-02
  0.270000011         1.55435046E-02
  0.270999998         1.62608009E-02
  0.272000015         1.69564784E-02
  0.273000002         1.76236108E-02
  0.273999989         1.82549432E-02
  0.275000006         1.88429523E-02
  0.275999993         1.93799082E-02
  0.277000010         1.98579468E-02
  0.277999997         2.02691481E-02
  0.279000014         2.06056219E-02
  0.280000001         2.08595935E-02
  0.280999988         2.10235063E-02
  0.282000005         2.10901201E-02
  0.282999992         2.10526139E-02
  0.284000009         2.09046938E-02
  0.284999996         2.06406936E-02
  0.286000013         2.02556737E-02
  0.287000000         1.97455231E-02
  0.287999988         1.91070549E-02
  0.289000005         1.83380768E-02
  0.289999992         1.74374841E-02
  0.291000009         1.64053105E-02
  0.291999996         1.52427936E-02
  0.293000013         1.39524182E-02
  0.294000000         1.25379330E-02
  0.294999987         1.10043688E-02
  0.296000004         9.35803447E-03
  0.296999991         7.60649238E-03
  0.298000008         5.75851975E-03
  0.298999995         3.82404891E-03
  0.300000012         1.81409670E-03
  0.300999999        -2.59325694E-04
  0.301999986        -2.38331989E-03
  0.303000003        -4.54421854E-03
  0.303999990        -6.72771782E-03
  0.305000007        -8.91902205E-03
  0.305999994        -1.11029968E-02
  0.307000011        -1.32643245E-02
  0.307999998        -1.53876739E-02
  0.308999985        -1.74578708E-02
  0.310000002        -1.94600523E-02
  0.310999990        -2.13798489E-02
  0.312000006        -2.32035276E-02
  0.312999994        -2.49181576E-02
  0.314000010        -2.65117437E-02
  0.314999998        -2.79733632E-02
  0.316000015        -2.92932838E-02
  0.317000002        -3.04630548E-02
  0.317999989        -3.14755999E-02
  0.319000006        -3.23252827E-02
  0.319999993        -3.30079570E-02
  0.321000010        -3.35209854E-02
  0.321999997        -3.38632651E-02
  0.323000014        -3.40351984E-02
  0.324000001        -3.40386853E-02
  0.324999988        -3.38770524E-02
  0.326000005        -3.35549973E-02
  0.326999992        -3.30785140E-02
  0.328000009        -3.24547812E-02
  0.328999996        -3.16920727E-02
  0.330000013        -3.07996273E-02
  0.331000000        -2.97875237E-02
  0.331999987        -2.86665596E-02
  0.333000004        -2.74480972E-02
  0.333999991        -2.61439402E-02
  0.335000008        -2.47661732E-02
  0.335999995        -2.33270377E-02
  0.337000012        -2.18387842E-02
  0.338000000        -2.03135516E-02
  0.338999987        -1.87632367E-02
  0.340000004        -1.71993989E-02
  0.340999991        -1.56331416E-02
  0.342000008        -1.40750241E-02
  0.342999995        -1.25349788E-02
  0.344000012        -1.10222390E-02
  0.344999999        -9.54528246E-03
  0.345999986        -8.11178796E-03
  0.347000003        -6.72860164E-03
  0.347999990        -5.40172448E-03
  0.349000007        -4.13629832E-03
  0.349999994        -2.93660769E-03
  0.351000011        -1.80609094E-03
  0.351999998        -7.47360406E-04
  0.352999985         2.37767061E-04
  0.354000002         1.14823214E-03
  0.354999989         1.98368612E-03
  0.356000006         2.74444069E-03
  0.356999993         3.43141193E-03
  0.358000010         4.04606573E-03
  0.358999997         4.59035812E-03
  0.360000014         5.06667653E-03
  0.361000001         5.47778048E-03
  0.361999989         5.82673913E-03
  0.363000005         6.11687731E-03
  0.363999993         6.35171309E-03
  0.365000010         6.53490704E-03
  0.365999997         6.67020911E-03
  0.367000014         6.76141074E-03
  0.368000001         6.81230286E-03
  0.368999988         6.82663778E-03
  0.370000005         6.80809096E-03
  0.370999992         6.76023448E-03
  0.372000009         6.68651005E-03
  0.372999996         6.59020664E-03
  0.374000013         6.47444185E-03
  0.375000000         6.34214655E-03
  0.375999987         6.19605649E-03
  0.377000004         6.03870116E-03
  0.377999991         5.87240560E-03
  0.379000008         5.69928903E-03
  0.379999995         5.52127138E-03
  0.381000012         5.34007652E-03
  0.381999999         5.15724067E-03
  0.382999986         4.97411983E-03
  0.384000003         4.79189632E-03
  0.384999990         4.61158995E-03
  0.386000007         4.43406915E-03
  0.386999995         4.26006271E-03
  0.388000011         4.09017270E-03
  0.388999999         3.92489089E-03
  0.389999986         3.76460864E-03
  0.391000003         3.60962725E-03
  0.391999990         3.46016814E-03
  0.393000007         3.31638288E-03
  0.393999994         3.17836087E-03
  0.395000011         3.04613938E-03
  0.395999998         2.91971210E-03
  0.397000015         2.79903598E-03
  0.398000002         2.68403813E-03
  0.398999989         2.57462007E-03
  0.400000006         2.47066072E-03
  0.400999993         2.37202062E-03
  0.402000010         2.27854261E-03
  0.402999997         2.19005719E-03
  0.404000014         2.10638344E-03
  0.405000001         2.02733325E-03
  0.405999988         1.95271184E-03
  0.407000005         1.88231957E-03
  0.407999992         1.81595283E-03
  0.409000009         1.75340427E-03
  0.409999996         1.69446378E-03
  0.411000013         1.63891935E-03
  0.412000000         1.58655853E-03
  0.412999988         1.53716956E-03
  0.414000005         1.49054325E-03
  0.414999992         1.44647399E-03
  0.416000009         1.40476238E-03
  0.416999996         1.36521517E-03
  0.418000013         1.32764725E-03
  0.419000000         1.29188318E-03
  0.419999987         1.25775766E-03
  0.421000004         1.22511724E-03
  0.421999991         1.19382178E-03
  0.423000008         1.16374530E-03
  0.423999995         1.13477791E-03
  0.425000012         1.10682636E-03
  0.425999999         1.07981486E-03
  0.426999986         1.05368497E-03
  0.428000003         1.02839468E-03
  0.428999990         1.00391696E-03
  0.430000007         9.80238430E-04
  0.430999994         9.57358279E-04
  0.432000011         9.35286866E-04
  0.432999998         9.14046250E-04
  0.433999985         8.93669494E-04
  0.435000002         8.74201534E-04
  0.435999990         8.55698716E-04
  0.437000006         8.38229025E-04
  0.437999994         8.21871043E-04
  0.439000010         8.06713419E-04
  0.439999998         7.92854291E-04
  0.441000015         7.80401344E-04
  0.442000002         7.69472856E-04
  0.442999989         7.60200259E-04
  0.444000006         7.52731808E-04
  0.444999993         7.47235783E-04
  0.446000010         7.43905024E-04
  0.446999997         7.42960023E-04
  0.448000014         7.44652469E-04
  0.449000001         7.49268977E-04
  0.449999988         7.57136149E-04
  0.451000005         7.68626924E-04
  0.451999992         7.84167554E-04
  0.453000009         8.04245938E-04
  0.453999996         8.29419005E-04
  0.455000013         8.60319007E-04
  0.456000000         8.97659396E-04
  0.456999987         9.42239189E-04
  0.458000004         9.94947506E-04
  0.458999991         1.05676951E-03
  0.460000008         1.12879125E-03
  0.460999995         1.21220748E-03
  0.462000012         1.30832638E-03
  0.463000000         1.41857436E-03
  0.463999987         1.54449744E-03
  0.465000004         1.68776186E-03
  0.465999991         1.85015262E-03
  0.467000008         2.03357055E-03
  0.467999995         2.24003056E-03
  0.469000012         2.47165607E-03
  0.469999999         2.73067434E-03
  0.470999986         3.01940669E-03
  0.472000003         3.34025640E-03
  0.472999990         3.69569194E-03
  0.474000007         4.08822671E-03
  0.474999994         4.52039717E-03
  0.476000011         4.99473605E-03
  0.476999998         5.51374583E-03
  0.477999985         6.07986655E-03
  0.479000002         6.69543911E-03
  0.479999989         7.36266747E-03
  0.481000006         8.08357075E-03
  0.481999993         8.85993894E-03
  0.483000010         9.69327241E-03
  0.483999997         1.05847334E-02
  0.485000014         1.15350783E-02
  0.486000001         1.25446049E-02
  0.486999989         1.36130853E-02
  0.488000005         1.47397025E-02
  0.488999993         1.59229971E-02
  0.490000010         1.71607956E-02
  0.490999997         1.84501559E-02
  0.492000014         1.97873097E-02
  0.493000001         2.11676173E-02
  0.493999988         2.25855168E-02
  0.495000005         2.40344927E-02
  0.495999992         2.55070571E-02
  0.497000009         2.69947331E-02
  0.497999996         2.84880549E-02
  0.499000013         2.99765822E-02
  0.500000000         3.14489268E-02
  0.500999987         3.28927971E-02
  0.501999974         3.42950709E-02
  0.503000021         3.56418565E-02
  0.504000008         3.69186103E-02
  0.504999995         3.81102301E-02
  0.505999982         3.92012224E-02
  0.507000029         4.01758142E-02
  0.508000016         4.10181656E-02
  0.509000003         4.17125002E-02
  0.509999990         4.22433242E-02
  0.510999978         4.25956137E-02
  0.512000024         4.27550189E-02
  0.513000011         4.27080840E-02
  0.513999999         4.24424596E-02
  0.514999986         4.19471115E-02
  0.515999973         4.12125289E-02
  0.517000020         4.02309000E-02
  0.518000007         3.89963202E-02
  0.518999994         3.75049077E-02
  0.519999981         3.57550010E-02
  0.521000028         3.37472335E-02
  0.522000015         3.14846560E-02
  0.523000002         2.89728045E-02
  0.523999989         2.62197256E-02
  0.524999976         2.32359748E-02
  0.526000023         2.00345889E-02
  0.527000010         1.66310146E-02
  0.527999997         1.30430097E-02
  0.528999984         9.29051358E-03
  0.529999971         5.39547810E-03
  0.531000018         1.38167827E-03
  0.532000005        -2.72551551E-03
  0.532999992        -6.89938245E-03
  0.533999979        -1.11121302E-02
  0.535000026        -1.53351836E-02
  0.536000013        -1.95394903E-02
  0.537000000        -2.36958396E-02
  0.537999988        -2.77751684E-02
  0.538999975        -3.17488909E-02
  0.540000021        -3.55891995E-02
  0.541000009        -3.92693840E-02
  0.541999996        -4.27641049E-02
  0.542999983        -4.60496880E-02
  0.544000030        -4.91043665E-02
  0.545000017        -5.19085154E-02
  0.546000004        -5.44448420E-02
  0.546999991        -5.66985570E-02
  0.547999978        -5.86575195E-02
  0.549000025        -6.03123121E-02
  0.550000012        -6.16563223E-02
  0.550999999        -6.26857728E-02
  0.551999986        -6.33997023E-02
  0.552999973        -6.37999251E-02
  0.554000020        -6.38909638E-02
  0.555000007        -6.36799335E-02
  0.555999994        -6.31764010E-02
  0.556999981        -6.23922348E-02
  0.558000028        -6.13414049E-02
  0.559000015        -6.00397661E-02
  0.560000002        -5.85048348E-02
  0.560999990        -5.67555577E-02
  0.561999977        -5.48120774E-02
  0.563000023        -5.26954494E-02
  0.564000010        -5.04274070E-02
  0.564999998        -4.80301008E-02
  0.565999985        -4.55258451E-02
  0.566999972        -4.29368764E-02
  0.568000019        -4.02851403E-02
  0.569000006        -3.75920348E-02
  0.569999993        -3.48782539E-02
  0.570999980        -3.21635716E-02
  0.572000027        -2.94666868E-02
  0.573000014        -2.68050842E-02
  0.574000001        -2.41949093E-02
  0.574999988        -2.16508713E-02
  0.575999975        -1.91861577E-02
  0.577000022        -1.68123767E-02
  0.578000009        -1.45395342E-02
  0.578999996        -1.23759983E-02
  0.579999983        -1.03285220E-02
  0.580999970        -8.40226002E-03
  0.582000017        -6.60081161E-03
  0.583000004        -4.92627686E-03
  0.583999991        -3.37932818E-03
  0.584999979        -1.95929082E-03
  0.586000025        -6.64239225E-04
  0.587000012         5.08898578E-04
  0.588000000         1.56423089E-03
  0.588999987         2.50678579E-03
  0.589999974         3.34238703E-03
  0.591000021         4.07753373E-03
  0.592000008         4.71927458E-03
  0.592999995         5.27508324E-03
  0.593999982         5.75273903E-03
  0.595000029         6.16020756E-03
  0.596000016         6.50552521E-03
  0.597000003         6.79669296E-03
  0.597999990         7.04157259E-03
  0.598999977         7.24779069E-03
  0.600000024         7.42265349E-03
  0.601000011         7.57307000E-03
  0.601999998         7.70548219E-03
  0.602999985         7.82580767E-03
  0.603999972         7.93938618E-03
  0.605000019         8.05094279E-03
  0.606000006         8.16455670E-03
  0.606999993         8.28363840E-03
  0.607999980         8.41092598E-03
  0.609000027         8.54848418E-03
  0.610000014         8.69771093E-03
  0.611000001         8.85936432E-03
  0.611999989         9.03358404E-03
  0.612999976         9.21992492E-03
  0.614000022         9.41739418E-03
  0.615000010         9.62450169E-03
  0.615999997         9.83930472E-03
  0.616999984         1.00594684E-02
  0.617999971         1.02823265E-02
  0.619000018         1.05049489E-02
  0.620000005         1.07242027E-02
  0.620999992         1.09368199E-02
  0.621999979         1.11394599E-02
  0.623000026         1.13287643E-02
  0.624000013         1.15014277E-02
  0.625000000         1.16542447E-02
  0.625999987         1.17841754E-02
  0.626999974         1.18883885E-02
  0.628000021         1.19643137E-02
  0.629000008         1.20096756E-02
  0.629999995         1.20225325E-02
  0.630999982         1.20012974E-02
  0.632000029         1.19447634E-02
  0.633000016         1.18521126E-02
  0.634000003         1.17229288E-02
  0.634999990         1.15572028E-02
  0.635999978         1.13553219E-02
  0.637000024         1.11180730E-02
  0.638000011         1.08466130E-02
  0.638999999         1.05424542E-02
  0.639999986         1.02074388E-02
  0.640999973         9.84370522E-03
  0.642000020         9.45366267E-03
  0.643000007         9.03994869E-03
  0.643999994         8.60539917E-03
  0.644999981         8.15300643E-03
  0.646000028         7.68587878E-03
  0.647000015         7.20719947E-03
  0.648000002         6.72018854E-03
  0.648999989         6.22806326E-03
  0.649999976         5.73400315E-03
  0.651000023         5.24111278E-03
  0.652000010         4.75239428E-03
  0.652999997         4.27071471E-03
  0.653999984         3.79878073E-03
  0.654999971         3.33911413E-03
  0.656000018         2.89402972E-03
  0.657000005         2.46561924E-03
  0.657999992         2.05573766E-03
  0.658999979         1.66599487E-03
  0.660000026         1.29775051E-03
  0.661000013         9.52114817E-04
  0.662000000         6.29949966E-04
  0.662999988         3.31875286E-04
  0.663999975         5.82726534E-05
  0.665000021        -1.90704974E-04
  0.666000009        -4.15122922E-04
  0.666999996        -6.15251018E-04
  0.667999983        -7.91547063E-04
  0.669000030        -9.44637868E-04
  0.670000017        -1.07529981E-03
  0.671000004        -1.18443894E-03
  0.671999991        -1.27307267E-03
  0.672999978        -1.34231232E-03
  0.674000025        -1.39334495E-03
  0.675000012        -1.42741622E-03
  0.675999999        -1.44581194E-03
  0.676999986        -1.44983921E-03
  0.677999973        -1.44080899E-03
  0.679000020        -1.42002024E-03
  0.680000007        -1.38874666E-03
  0.680999994        -1.34822575E-03
  0.681999981        -1.29964948E-03
  0.683000028        -1.24415453E-03
  0.684000015        -1.18281506E-03
  0.685000002        -1.11663376E-03
  0.685999990        -1.04653533E-03
  0.686999977        -9.73362650E-04
  0.688000023        -8.97873368E-04
  0.689000010        -8.20739602E-04