 -0.119999997         0.00000000    
 -0.119000003         0.00000000    
 -0.118000001         0.00000000    
 -0.116999999         0.00000000    
 -0.115999997         0.00000000    
 -0.115000002         0.00000000    
 -0.114000000         0.00000000    
 -0.112999998         0.00000000    
 -0.112000003         0.00000000    
 -0.111000001         0.00000000    
 -0.109999999         0.00000000    
 -0.108999997         0.00000000    
 -0.108000003         0.00000000    
 -0.107000001         0.00000000    
 -0.105999999         0.00000000    
 -0.104999997         0.00000000    
 -0.104000002         0.00000000    
 -0.103000000         0.00000000    
 -0.101999998         0.00000000    
 -0.101000004         0.00000000    
 -0.100000001         0.00000000    
  -9.89999995E-02     0.00000000    
  -9.79999974E-02     0.00000000    
  -9.70000029E-02     0.00000000    
  -9.60000008E-02     0.00000000    
  -9.49999988E-02     0.00000000    
  -9.39999968E-02     0.00000000    
  -9.30000022E-02     0.00000000    
  -9.20000002E-02     0.00000000    
  -9.09999982E-02     0.00000000    
  -9.00000036E-02     0.00000000    
  -8.90000015E-02     0.00000000    
  -8.79999995E-02     0.00000000    
  -8.69999975E-02     0.00000000    
  -8.60000029E-02     0.00000000    
  -8.50000009E-02     0.00000000    
  -8.39999989E-02     0.00000000    
  -8.29999968E-02     0.00000000    
  -8.20000023E-02     0.00000000    
  -8.10000002E-02     0.00000000    
  -7.99999982E-02     0.00000000    
  -7.90000036E-02     0.00000000    
  -7.80000016E-02     0.00000000    
  -7.69999996E-02     0.00000000    
  -7.59999976E-02     0.00000000    
  -7.50000030E-02     0.00000000    
  -7.40000010E-02     0.00000000    
  -7.29999989E-02     0.00000000    
  -7.19999969E-02     0.00000000    
  -7.10000023E-02     0.00000000    
  -7.00000003E-02     0.00000000    
  -6.89999983E-02     0.00000000    
  -6.80000037E-02     0.00000000    
  -6.70000017E-02     0.00000000    
  -6.59999996E-02     0.00000000    
  -6.49999976E-02     0.00000000    
  -6.40000030E-02     0.00000000    
  -6.30000010E-02     0.00000000    
  -6.19999990E-02     0.00000000    
  -6.10000007E-02     0.00000000    
  -5.99999987E-02     0.00000000    
  -5.90000004E-02     0.00000000    
  -5.79999983E-02     0.00000000    
  -5.70000000E-02     0.00000000    
  -5.60000017E-02     0.00000000    
  -5.49999997E-02     0.00000000    
  -5.40000014E-02     0.00000000    
  -5.29999994E-02     0.00000000    
  -5.20000011E-02     0.00000000    
  -5.09999990E-02     0.00000000    
  -5.00000007E-02     0.00000000    
  -4.89999987E-02     0.00000000    
  -4.80000004E-02     0.00000000    
  -4.69999984E-02     0.00000000    
  -4.60000001E-02     0.00000000    
  -4.50000018E-02     0.00000000    
  -4.39999998E-02     0.00000000    
  -4.30000015E-02     0.00000000    
  -4.19999994E-02     0.00000000    
  -4.10000011E-02     0.00000000    
  -3.99999991E-02     0.00000000    
  -3.90000008E-02     0.00000000    
  -3.79999988E-02     0.00000000    
  -3.70000005E-02     0.00000000    
  -3.59999985E-02     0.00000000    
  -3.50000001E-02     0.00000000    
  -3.40000018E-02     0.00000000    
  -3.29999998E-02     0.00000000    
  -3.20000015E-02     0.00000000    
  -3.09999995E-02     0.00000000    
  -2.99999993E-02     0.00000000    
  -2.89999992E-02     0.00000000    
  -2.80000009E-02     0.00000000    
  -2.70000007E-02     0.00000000    
  -2.60000005E-02     0.00000000    
  -2.50000004E-02     0.00000000    
  -2.40000002E-02     0.00000000    
  -2.30000000E-02     0.00000000    
  -2.19999999E-02     0.00000000    
  -2.09999997E-02     0.00000000    
  -1.99999996E-02     0.00000000    
  -1.89999994E-02     0.00000000    
  -1.79999992E-02     0.00000000    
  -1.70000009E-02     0.00000000    
  -1.60000008E-02     0.00000000    
  -1.49999997E-02     0.00000000    
  -1.40000004E-02     0.00000000    
  -1.30000003E-02     0.00000000    
  -1.20000001E-02     0.00000000    
  -1.09999999E-02     0.00000000    
  -9.99999978E-03     0.00000000    
  -8.99999961E-03     0.00000000    
  -8.00000038E-03     0.00000000    
  -7.00000022E-03     0.00000000    
  -6.00000005E-03     0.00000000    
  -4.99999989E-03     0.00000000    
  -4.00000019E-03     0.00000000    
  -3.00000003E-03     0.00000000    
  -2.00000009E-03     0.00000000    
  -1.00000005E-03     0.00000000    
   0.00000000         0.00000000    
   1.00000005E-03     0.00000000    
   2.00000009E-03     0.00000000    
   3.00000003E-03     0.00000000    
   4.00000019E-03     0.00000000    
   4.99999989E-03     0.00000000    
   6.00000005E-03     0.00000000    
   7.00000022E-03     0.00000000    
   8.00000038E-03     0.00000000    
   8.99999961E-03     0.00000000    
   9.99999978E-03     0.00000000    
   1.09999999E-02     0.00000000    
   1.20000001E-02     0.00000000    
   1.30000003E-02     0.00000000    
   1.40000004E-02     0.00000000    
   1.49999997E-02     0.00000000    
   1.60000008E-02     0.00000000    
   1.70000009E-02     0.00000000    
   1.79999992E-02     0.00000000    
   1.89999994E-02     0.00000000    
   1.99999996E-02     0.00000000    
   2.09999997E-02     0.00000000    
   2.19999999E-02     0.00000000    
   2.30000000E-02     0.00000000    
   2.40000002E-02     0.00000000    
   2.50000004E-02     0.00000000    
   2.60000005E-02     0.00000000    
   2.70000007E-02     0.00000000    
   2.80000009E-02     0.00000000    
   2.89999992E-02     0.00000000    
   2.99999993E-02     0.00000000    
   3.09999995E-02     0.00000000    
   3.20000015E-02     0.00000000    
   3.29999998E-02     0.00000000    
   3.40000018E-02     0.00000000    
   3.50000001E-02     0.00000000    
   3.59999985E-02     0.00000000    
   3.70000005E-02     0.00000000    
   3.79999988E-02     0.00000000    
   3.90000008E-02     0.00000000    
   3.99999991E-02     0.00000000    
   4.10000011E-02     0.00000000    
   4.19999994E-02     0.00000000    
   4.30000015E-02     0.00000000    
   4.39999998E-02     0.00000000    
   4.50000018E-02     0.00000000    
   4.60000001E-02     0.00000000    
   4.69999984E-02     0.00000000    
   4.80000004E-02     0.00000000    
   4.89999987E-02     0.00000000    
   5.00000007E-02     0.00000000    
   5.09999990E-02     0.00000000    
   5.20000011E-02     0.00000000    
   5.29999994E-02     0.00000000    
   5.40000014E-02     0.00000000    
   5.49999997E-02     0.00000000    
   5.60000017E-02     0.00000000    
   5.70000000E-02     0.00000000    
   5.79999983E-02     0.00000000    
   5.90000004E-02     0.00000000    
   5.99999987E-02     0.00000000    
   6.10000007E-02     0.00000000    
   6.19999990E-02     0.00000000    
   6.30000010E-02     0.00000000    
   6.40000030E-02     0.00000000    
   6.49999976E-02     0.00000000    
   6.59999996E-02     0.00000000    
   6.70000017E-02     0.00000000    
   6.80000037E-02     0.00000000    
   6.89999983E-02     0.00000000    
   7.00000003E-02     0.00000000    
   7.10000023E-02     0.00000000    
   7.19999969E-02     0.00000000    
   7.29999989E-02     0.00000000    
   7.40000010E-02     0.00000000    
   7.50000030E-02     0.00000000    
   7.59999976E-02     0.00000000    
   7.69999996E-02     0.00000000    
   7.80000016E-02     0.00000000    
   7.90000036E-02     0.00000000    
   7.99999982E-02     0.00000000    
   8.10000002E-02     0.00000000    
   8.20000023E-02     0.00000000    
   8.29999968E-02     0.00000000    
   8.39999989E-02     0.00000000    
   8.50000009E-02     0.00000000    
   8.60000029E-02     0.00000000    
   8.69999975E-02     0.00000000    
   8.79999995E-02     0.00000000    
   8.90000015E-02     0.00000000    
   9.00000036E-02     0.00000000    
   9.09999982E-02     0.00000000    
   9.20000002E-02     0.00000000    
   9.30000022E-02     0.00000000    
   9.39999968E-02     0.00000000    
   9.49999988E-02     0.00000000    
   9.60000008E-02     0.00000000    
   9.70000029E-02     0.00000000    
   9.79999974E-02     0.00000000    
   9.89999995E-02     0.00000000    
  0.100000001         0.00000000    
  0.101000004         0.00000000    
  0.101999998         0.00000000    
  0.103000000         0.00000000    
  0.104000002         0.00000000    
  0.104999997         0.00000000    
  0.105999999         0.00000000    
  0.107000001        -0.00000000    
  0.108000003        -0.00000000    
  0.108999997         0.00000000    
  0.109999999         0.00000000    
  0.111000001         0.00000000    
  0.112000003         0.00000000    
  0.112999998         0.00000000    
  0.114000000        -0.00000000    
  0.115000002        -1.49096517E-38
  0.115999997        -0.00000000    
  0.116999999         5.15809557E-38
  0.118000001         1.44170003E-37
  0.119000003         2.33378614E-37
  0.119999997         2.41711138E-37
  0.120999999         9.69730039E-38
  0.122000001        -1.92797728E-37
  0.123000003        -5.43061045E-37
  0.123999998        -7.95548303E-37
  0.125000000        -7.55307854E-37
  0.126000002        -2.45759770E-37
  0.127000004         7.41028555E-37
  0.128000006         1.97216495E-36
  0.128999993         2.93818845E-36
  0.129999995         2.96473052E-36
  0.130999997         1.47026504E-36
  0.131999999        -1.66174375E-36
  0.133000001        -5.79453067E-36
  0.134000003        -9.41543568E-36
  0.135000005        -1.04024283E-35
  0.136000007        -6.76192005E-36
  0.136999995         2.31079758E-36
  0.137999997         1.53540254E-35
  0.138999999         2.81146939E-35
  0.140000001         3.41332651E-35
  0.141000003         2.67733963E-35
  0.142000005         2.37935385E-36
  0.143000007        -3.62958734E-35
  0.143999994        -7.80496795E-35
  0.144999996        -1.04284796E-34
  0.145999998        -9.42556542E-35
  0.147000000        -3.40752997E-35
  0.148000002         7.30305482E-35
  0.149000004         1.99626446E-34
  0.150000006         2.95183414E-34
  0.150999993         2.98944652E-34
  0.151999995         1.64064963E-34
  0.152999997        -1.13187869E-34
  0.153999999        -4.70847476E-34
  0.155000001        -7.79341367E-34
  0.156000003        -8.70993008E-34
  0.157000005        -6.01555285E-34
  0.158000007         7.07413246E-35
  0.158999994         1.01826831E-33
  0.159999996         1.92664259E-33
  0.160999998         2.35769673E-33
  0.162000000         1.89910461E-33
  0.163000003         3.68561353E-34
  0.164000005        -1.99972215E-33
  0.165000007        -4.48187233E-33
  0.165999994        -5.98833299E-33
  0.166999996        -5.41196424E-33
  0.167999998        -2.13322617E-33
  0.169000000         3.48702979E-33
  0.170000002         9.86248136E-33
  0.171000004         1.44018938E-32
  0.172000006         1.42861517E-32
  0.172999993         7.67022994E-33
  0.173999995        -5.07350084E-33
  0.174999997        -2.06295659E-32
  0.175999999        -3.30755105E-32
  0.177000001        -3.55497380E-32
  0.178000003        -2.30115421E-32
  0.179000005         4.74591885E-33
  0.180000007         4.11151983E-32
  0.180999994         7.30372080E-32
  0.181999996         8.44462094E-32
  0.182999998         6.24040505E-32
  0.184000000         4.14654236E-33
  0.185000002        -7.78266480E-32
  0.186000004        -1.55672715E-31
  0.187000006        -1.93044619E-31
  0.187999994        -1.58310078E-31
  0.188999996        -4.05089312E-32
  0.189999998         1.38172484E-31
  0.191000000         3.20315581E-31
  0.192000002         4.26267683E-31
  0.193000004         3.81781757E-31
  0.194000006         1.53081714E-31
  0.194999993        -2.23768539E-31
  0.195999995        -6.34373253E-31
  0.196999997        -9.09492016E-31
  0.197999999        -8.81112009E-31
  0.199000001        -4.57308868E-31
  0.200000003         3.11039778E-31
  0.201000005         1.20416795E-30
  0.202000007         1.87330974E-30
  0.202999994         1.95103794E-30
  0.203999996         1.20668069E-30
  0.204999998        -3.07017495E-31
  0.206000000        -2.18371115E-30
  0.207000002        -3.72580288E-30
  0.208000004        -4.15502458E-30
  0.209000006        -2.92654929E-30
  0.209999993        -4.18684610E-32
  0.210999995         3.77733994E-30
  0.211999997         7.17480450E-30
  0.213000000         8.54929029E-30
  0.214000002         6.67348719E-30
  0.215000004         1.34353277E-30
  0.216000006        -6.21456629E-30
  0.216999993        -1.34338112E-29
  0.217999995        -1.71040153E-29
  0.218999997        -1.45616915E-29
  0.219999999        -5.00558860E-30
  0.221000001         9.59385150E-30
  0.222000003         2.45065828E-29
  0.223000005         3.34471950E-29
  0.224000007         3.08069557E-29
  0.224999994         1.42571960E-29
  0.225999996        -1.32853973E-29
  0.226999998        -4.33615784E-29
  0.228000000        -6.39534950E-29
  0.229000002        -6.35619414E-29
  0.230000004        -3.62395256E-29
  0.231000006         1.42912052E-29
  0.231999993         7.34462773E-29
  0.232999995         1.18849245E-28
  0.233999997         1.27558048E-28
  0.234999999         8.55550924E-29
  0.236000001        -3.87778321E-30
  0.237000003        -1.16736476E-28
  0.238000005        -2.12622570E-28
  0.238999993        -2.47117419E-28
  0.239999995        -1.89194282E-28
  0.240999997        -3.77387748E-29
  0.241999999         1.69963221E-28
  0.243000001         3.63445201E-28
  0.244000003         4.59434970E-28
  0.245000005         3.92893777E-28
  0.246000007         1.48618826E-28
  0.246999994        -2.19541810E-28
  0.247999996        -5.93008178E-28
  0.248999998        -8.20571727E-28
  0.250000000        -7.72120963E-28
  0.250999987        -3.97341375E-28
  0.252000004         2.33506439E-28
  0.252999991         9.27974677E-28
  0.254000008         1.41942000E-27
  0.254999995         1.45726308E-27
  0.256000012         9.13052764E-28
  0.256999999        -1.37077775E-28
  0.257999986        -1.39294405E-27
  0.259000003        -2.39708367E-27
  0.259999990        -2.68153447E-27
  0.261000007        -1.95438633E-27
  0.261999995        -2.60145396E-28
  0.263000011         1.95709014E-27
  0.263999999         3.93615515E-27
  0.264999986         4.82818542E-27
  0.266000003         4.01516450E-27
  0.266999990         1.41082602E-27
  0.268000007        -2.38044710E-27
  0.268999994        -6.14273931E-27
  0.270000011        -8.38858817E-27
  0.270999998        -7.88396679E-27
  0.272000015        -4.19184700E-27
  0.273000002         1.97645498E-27
  0.273999989         8.78344695E-27
  0.275000006         1.37345876E-26
  0.275999993         1.45075003E-26
  0.277000010         9.89385958E-27
  0.277999997         5.09089681E-28
  0.279000014        -1.10572992E-26
  0.280000001        -2.08279355E-26
  0.280999988        -2.46865485E-26
  0.282000005        -1.99413498E-26
  0.282999992        -6.65959689E-27
  0.284000009         1.17927903E-26
  0.284999996         2.93790567E-26
  0.286000013         3.91811804E-26
  0.287000000         3.58928230E-26
  0.287999988         1.81917534E-26
  0.289000005        -9.95096186E-27
  0.289999992        -3.97443716E-26
  0.291000009        -6.00065845E-26
  0.291999996        -6.10007218E-26
  0.293000013        -3.84777692E-26
  0.294000000         3.58960216E-27
  0.294999987         5.28919774E-26
  0.296000004         9.18461014E-26
  0.296999991         1.03284677E-25
  0.298000008         7.71095511E-26
  0.298999995         1.55561398E-26
  0.300000012        -6.52049067E-26
  0.300999999        -1.38442266E-25
  0.301999986        -1.74888244E-25
  0.303000003        -1.53263705E-25
  0.303999990        -6.98086681E-26
  0.305000007         5.69492493E-26
  0.305999994         1.88857294E-25
  0.307000011         2.78596854E-25
  0.307999998         2.85453337E-25
  0.308999985         1.91481945E-25
  0.310000002         1.21417095E-26
  0.310999990        -2.03506676E-25
  0.312000006        -3.84910159E-25
  0.312999994        -4.62062604E-25
  0.314000010        -3.91012614E-25
  0.314999998        -1.74014408E-25
  0.316000015         1.33981418E-25
  0.317000002         4.37101862E-25
  0.317999989         6.27180559E-25
  0.319000006         6.21358815E-25
  0.319999993         3.96183474E-25
  0.321000010         5.03046931E-27
  0.321999997        -4.30228122E-25
  0.323000014        -7.54270242E-25
  0.324000001        -8.31255967E-25
  0.324999988        -5.98748681E-25
  0.326000005        -1.02654137E-25
  0.326999992         5.02936347E-25
  0.328000009         9.96637599E-25
  0.328999996         1.16278275E-24
  0.330000013         8.74583560E-25
  0.331000000         1.58100902E-25
  0.331999987        -7.90019495E-25
  0.333000004        -1.64543891E-24
  0.333999991        -2.05405910E-24
  0.335000008        -1.75827689E-24
  0.335999995        -7.10121839E-25
  0.337000012         8.72099634E-25
  0.338000000         2.53350568E-24
  0.338999987         3.70211555E-24
  0.340000004         3.86984000E-24
  0.340999991         2.78042684E-24
  0.342000008         5.59160683E-25
  0.342999995        -2.26976523E-24
  0.344000012        -4.90035030E-24
  0.344999999        -6.47426073E-24
  0.345999986        -6.35819129E-24
  0.347000003        -4.37948832E-24
  0.347999990        -9.33808081E-25
  0.349000007         3.08703597E-24
  0.349999994         6.54182272E-24
  0.351000011         8.39396676E-24
  0.351999998         8.06009795E-24
  0.352999985         5.63007819E-24
  0.354000002         1.86815989E-24
  0.354999989        -2.02556702E-24
  0.356000006        -4.82903530E-24
  0.356999993        -5.75105514E-24
  0.358000010        -4.75645182E-24
  0.358999997        -2.62448324E-24
  0.360000014        -6.84849841E-25
  0.361000001        -2.91254620E-25
  0.361999989        -2.20205848E-24
  0.363000005        -6.09962595E-24
  0.363999993        -1.04645460E-23
  0.365000010        -1.29221593E-23
  0.365999997        -1.10204981E-23
  0.367000014        -3.22949952E-24
  0.368000001         1.01689062E-23
  0.368999988         2.66508926E-23
  0.370000005         4.17305052E-23
  0.370999992         4.99926147E-23
  0.372000009         4.66689891E-23
  0.372999996         2.93277690E-23
  0.374000013        -8.59253330E-25
  0.375000000        -3.87475287E-23
  0.375999987        -7.59996863E-23
  0.377000004        -1.02930034E-22
  0.377999991        -1.10983452E-22
  0.379000008        -9.51763143E-23
  0.379999995        -5.57779438E-23
  0.381000012         1.31097836E-24
  0.381999999         6.56627181E-23
  0.382999986         1.24646182E-22
  0.384000003         1.66327333E-22
  0.384999990         1.82118839E-22
  0.386000007         1.68435397E-22
  0.386999995         1.26945453E-22
  0.388000011         6.34910661E-23
  0.388999999        -1.37945756E-23
  0.389999986        -9.63770427E-23
  0.391000003        -1.76463603E-22
  0.391999990        -2.46999241E-22
  0.393000007        -3.00670005E-22
  0.393999994        -3.28618703E-22
  0.395000011        -3.19897082E-22
  0.395999998        -2.62593923E-22
  0.397000015        -1.47054426E-22
  0.398000002         2.92358036E-23
  0.398999989         2.56419174E-22
  0.400000006         5.08609852E-22
  0.400999993         7.43774715E-22
  0.402000010         9.08454743E-22
  0.402999997         9.47371309E-22
  0.404000014         8.16421257E-22
  0.405000001         4.96211331E-22
  0.405999988         2.57495480E-24
  0.407000005        -6.09226902E-22
  0.407999992        -1.24866276E-21
  0.409000009        -1.80251824E-21
  0.409999996        -2.15383614E-21
  0.411000013        -2.20344093E-21
  0.412000000        -1.88957779E-21
  0.412999988        -1.20171339E-21
  0.414000005        -1.86130229E-22
  0.414999992         1.05693538E-21
  0.416000009         2.38293629E-21
  0.416999996         3.61672121E-21
  0.418000013         4.56779878E-21
  0.419000000         5.04603075E-21
  0.419999987         4.87851859E-21
  0.421000004         3.92998800E-21
  0.421999991         2.12906475E-21
  0.423000008        -4.99003571E-22
  0.423999995        -3.79645528E-21
  0.425000012        -7.44209389E-21
  0.425999999        -1.09378868E-20
  0.426999986        -1.36276326E-20
  0.428000003        -1.47602577E-20
  0.428999990        -1.36033648E-20
  0.430000007        -9.60129459E-21
  0.430999994        -2.55783128E-21
  0.432000011         7.19014550E-21
  0.432999998         1.86516093E-20
  0.433999985         3.01589696E-20
  0.435000002         3.94827297E-20
  0.435999990         4.41032346E-20
  0.437000006         4.16315899E-20
  0.437999994         3.03377505E-20
  0.439000010         9.70910756E-21
  0.439999998        -1.90657586E-20
  0.441000015        -5.28089875E-20
  0.442000002        -8.63780899E-20
  0.442999989        -1.13092612E-19
  0.444000006        -1.25598820E-19
  0.444999993        -1.17132756E-19
  0.446000010        -8.30510338E-20
  0.446999997        -2.24052839E-20
  0.448000014         6.07412812E-20
  0.449000001         1.56599468E-19
  0.449999988         2.49872445E-19
  0.451000005         3.21152123E-19
  0.451999992         3.49576427E-19
  0.453000009         3.16597874E-19
  0.453999996         2.10438935E-19
  0.455000013         3.05340411E-20
  0.456000000        -2.08955994E-19
  0.456999987        -4.77564403E-19
  0.458000004        -7.29788729E-19
  0.458999991        -9.09816059E-19
  0.460000008        -9.59776631E-19
  0.460999995        -8.30890052E-19
  0.462000012        -4.96084253E-19
  0.463000000         3.80610745E-20
  0.463999987         7.22684023E-19
  0.465000004         1.46405654E-18
  0.465999991         2.12933702E-18
  0.467000008         2.56191608E-18
  0.467999995         2.60602838E-18
  0.469000012         2.13833426E-18
  0.469999999         1.10212966E-18
  0.470999986        -4.61926088E-19
  0.472000003        -2.39568793E-18
  0.472999990        -4.42103470E-18
  0.474000007        -6.16050702E-18
  0.474999994        -7.18352926E-18
  0.476000011        -7.07633575E-18
  0.476999998        -5.52852904E-18
  0.477999985        -2.42398165E-18
  0.479000002         2.08046326E-18
  0.479999989         7.50726707E-18
  0.481000006         1.30594192E-17
  0.481999993         1.76841008E-17
  0.483000010         2.02039874E-17
  0.483999997         1.95098174E-17
  0.485000014         1.47943800E-17
  0.486000001         5.79466117E-18
  0.486999989        -7.00184400E-18
  0.488000005        -2.22359284E-17
  0.488999993        -3.76873082E-17
  0.490000010        -5.04518267E-17
  0.490999997        -5.72980466E-17
  0.492000014        -5.51860196E-17
  0.493000001        -4.18959536E-17
  0.493999988        -1.66796471E-17
  0.495000005         1.91802835E-17
  0.495999992         6.20328086E-17
  0.497000009         1.05866175E-16
  0.497999996         1.42754698E-16
  0.499000013         1.63783654E-16
  0.500000000         1.60414210E-16
  0.500999987         1.26160369E-16
  0.501999974         5.83587437E-17
  0.503000021        -4.02646244E-17
  0.504000008        -1.60568476E-16
  0.504999995        -2.86844611E-16
  0.505999982        -3.97806403E-16
  0.507000029        -4.68852271E-16
  0.508000016        -4.75548596E-16
  0.509000003        -3.98047252E-16
  0.509999990        -2.25910066E-16
  0.510999978         3.73978579E-17
  0.512000024         3.71225689E-16
  0.513000011         7.36567304E-16
  0.513999999         1.07778177E-15
  0.514999986         1.32768571E-15
  0.515999973         1.41605179E-15
  0.517000020         1.28096359E-15
  0.518000007         8.81849601E-16
  0.518999994         2.12417202E-16
  0.519999981        -6.88747636E-16
  0.521000028        -1.73234204E-15
  0.522000015        -2.77953608E-15
  0.523000002        -3.65187371E-15
  0.523999989        -4.15055165E-15
  0.524999976        -4.08434883E-15
  0.526000023        -3.30386450E-15
  0.527000010        -1.73803717E-15
  0.527999997         5.72481511E-16
  0.528999984         3.45145004E-15
  0.529999971         6.57909252E-15
  0.531000018         9.50560956E-15
  0.532000005         1.16895976E-14
  0.532999992         1.25617078E-14
  0.533999979         1.16098639E-14
  0.535000026         8.47798411E-15
  0.536000013         3.06584994E-15
  0.537000000        -4.38551563E-15
  0.537999988        -1.32403862E-14
  0.538999975        -2.24635526E-14
  0.540000021        -3.06776597E-14
  0.541000009        -3.62897172E-14
  0.541999996        -3.76848584E-14
  0.542999983        -3.34743999E-14
  0.544000030        -2.27737005E-14
  0.545000017        -5.47431210E-15
  0.546000004         1.75329095E-14
  0.546999991         4.42306070E-14
  0.547999978         7.14875208E-14
  0.549000025         9.52445452E-14
  0.550000012         1.10889942E-13
  0.550999999         1.13815099E-13
  0.551999986         1.00112633E-13
  0.552999973         6.73483418E-14
  0.554000020         1.53105068E-14
  0.555000007        -5.33802908E-14
  0.555999994        -1.32925490E-13
  0.556999981        -2.14383700E-13
  0.558000028        -2.86175489E-13
  0.559000015        -3.35100952E-13
  0.560000002        -3.47848595E-13
  0.560999990        -3.12898795E-13
  0.561999977        -2.22645538E-13
  0.563000023        -7.54866953E-14
  0.564000010         1.22421753E-13
  0.564999998         3.56076822E-13
  0.565999985         6.01518889E-13
  0.566999972         8.26952385E-13
  0.568000019         9.95235578E-13
  0.569000006         1.06772284E-12
  0.569999993         1.00924998E-12
  0.570999980         7.93853590E-13
  0.572000027         4.10616013E-13
  0.573000014        -1.31125403E-13
  0.574000001        -7.98056066E-13
  0.574999988        -1.53149444E-12
  0.575999975        -2.24906292E-12
  0.577000022        -2.84990608E-12
  0.578000009        -3.22358850E-12
  0.578999996        -3.26234959E-12
  0.579999983        -2.87588920E-12
  0.580999970        -2.00734741E-12
  0.582000017        -6.48692038E-13
  0.583000004         1.14658608E-12
  0.583999991         3.25568847E-12
  0.584999979         5.48571475E-12
  0.586000025         7.58151267E-12
  0.587000012         9.24311062E-12
  0.588000000         1.01526738E-11
  0.588999987         1.00097647E-11
  0.589999974         8.57240060E-12
  0.591000021         5.70019422E-12
  0.592000008         1.39481330E-12
  0.592999995        -4.16763282E-12
  0.593999982        -1.06178538E-11
  0.595000029        -1.73933819E-11
  0.596000016        -2.37612621E-11
  0.597000003        -2.88655246E-11
  0.597999990        -3.17991536E-11
  0.598999977        -3.16973427E-11
  0.600000024        -2.78458871E-11
  0.601000011        -1.97955315E-11
  0.601999998        -7.47082691E-12
  0.602999985         8.73973029E-12
  0.603999972         2.79257988E-11
  0.605000019         4.86422326E-11
  0.606000006         6.89512683E-11
  0.606999993         8.65259878E-11
  0.607999980         9.88160040E-11
  0.609000027         1.03269907E-10
  0.610000014         9.76021070E-11
  0.611000001         8.00850775E-11
  0.611999989         4.98421270E-11
  0.612999976         7.11124258E-12
  0.614000022        -4.65513461E-11
  0.615000010        -1.08158787E-10
  0.615999997        -1.73299750E-10
  0.616999984        -2.36283354E-10
  0.617999971        -2.90433760E-10
  0.619000018        -3.28532590E-10
  0.620000005        -3.43394341E-10
  0.620999992        -3.28544497E-10
  0.621999979        -2.78957607E-10
  0.623000026        -1.91800423E-10
  0.624000013        -6.71170342E-11
  0.625000000         9.16107190E-11
  0.625999987         2.77092738E-10
  0.626999974         4.78108442E-10
  0.628000021         6.79678425E-10
  0.629000008         8.63558836E-10
  0.629999995         1.00906561E-09
  0.630999982         1.09421239E-09
  0.632000029         1.09712317E-09
  0.633000016         9.97655514E-10
  0.634000003         7.79155407E-10
  0.634999990         4.30247449E-10
  0.635999978        -5.34372269E-11
  0.637000024        -6.67694899E-10
  0.638000011        -1.39842782E-09
  0.638999999        -2.22063234E-09
  0.639999986        -3.09772941E-09
  0.640999973        -3.98123712E-09
  0.642000020        -4.81074514E-09
  0.643000007        -5.51410961E-09
  0.643999994        -6.00774630E-09
  0.644999981        -6.19685681E-09
  0.646000028        -5.97539662E-09
  0.647000015        -5.22556265E-09
  0.648000002        -3.81654885E-09
  0.648999989        -1.60232649E-09
  0.649999976         1.58182289E-09
  0.651000023         5.92426375E-09
  0.652000010         1.16436913E-08
  0.652999997         1.89977811E-08
  0.653999984         2.82940444E-08
  0.654999971         3.99030711E-08
  0.656000018         5.42743912E-08
  0.657000005         7.19552560E-08
  0.657999992         9.36124565E-08
  0.658999979         1.20057635E-07
  0.660000026         1.52276314E-07
  0.661000013         1.91460927E-07
  0.662000000         2.39048603E-07
  0.662999988         2.96763773E-07
  0.663999975         3.66666796E-07
  0.665000021         4.51208535E-07
  0.666000009         5.53292239E-07
  0.666999996         6.76343404E-07
  0.667999983         8.24388053E-07
  0.669000030         1.00214118E-06
  0.670000017         1.21510539E-06
  0.671000004         1.46968046E-06
  0.671999991         1.77328616E-06
  0.672999978         2.13449766E-06
  0.674000025         2.56319368E-06
  0.675000012         3.07072014E-06
  0.675999999         3.67006851E-06
  0.676999986         4.37606604E-06
  0.677999973         5.20558433E-06
  0.679000020         6.17775640E-06
  0.680000007         7.31421142E-06
  0.680999994         8.63931655E-06
  0.681999981         1.01804289E-05
  0.683000028         1.19681554E-05
  0.684000015         1.40366137E-05
  0.685000002         1.64236972E-05
  0.685999990         1.91713261E-05
  0.686999977         2.23256957E-05
  0.688000023         2.59375011E-05
  0.689000010         3.00621341E-05