 -0.12000000000000000          0.0000000000000000     
 -0.11889999999999999          0.0000000000000000     
 -0.11780000000000000          0.0000000000000000     
 -0.11670000000000000          0.0000000000000000     
 -0.11559999999999999          0.0000000000000000     
 -0.11449999999999999          0.0000000000000000     
 -0.11340000000000000          0.0000000000000000     
 -0.11230000000000000          0.0000000000000000     
 -0.11119999999999999          0.0000000000000000     
 -0.11009999999999999          0.0000000000000000     
 -0.10900000000000000          0.0000000000000000     
 -0.10790000000000000          0.0000000000000000     
 -0.10679999999999999          0.0000000000000000     
 -0.10569999999999999          0.0000000000000000     
 -0.10460000000000000          0.0000000000000000     
 -0.10349999999999999          0.0000000000000000     
 -0.10239999999999999          0.0000000000000000     
 -0.10130000000000000          0.0000000000000000     
 -0.10020000000000000          0.0000000000000000     
  -9.9099999999999994E-002     0.0000000000000000     
  -9.7999999999999990E-002     0.0000000000000000     
  -9.6899999999999986E-002     0.0000000000000000     
  -9.5799999999999996E-002     0.0000000000000000     
  -9.4699999999999993E-002     0.0000000000000000     
  -9.3599999999999989E-002     0.0000000000000000     
  -9.2499999999999999E-002     0.0000000000000000     
  -9.1399999999999995E-002     0.0000000000000000     
  -9.0299999999999991E-002     0.0000000000000000     
  -8.9200000000000002E-002     0.0000000000000000     
  -8.8099999999999984E-002     0.0000000000000000     
  -8.6999999999999994E-002     0.0000000000000000     
  -8.5899999999999990E-002     0.0000000000000000     
  -8.4799999999999986E-002     0.0000000000000000     
  -8.3699999999999997E-002     0.0000000000000000     
  -8.2599999999999993E-002     0.0000000000000000     
  -8.1499999999999989E-002     0.0000000000000000     
  -8.0399999999999999E-002     0.0000000000000000     
  -7.9299999999999995E-002     0.0000000000000000     
  -7.8199999999999992E-002     0.0000000000000000     
  -7.7100000000000002E-002     0.0000000000000000     
  -7.5999999999999984E-002     0.0000000000000000     
  -7.4899999999999994E-002     0.0000000000000000     
  -7.3799999999999991E-002     0.0000000000000000     
  -7.2699999999999987E-002     0.0000000000000000     
  -7.1599999999999997E-002     0.0000000000000000     
  -7.0499999999999993E-002     0.0000000000000000     
  -6.9399999999999989E-002     0.0000000000000000     
  -6.8300000000000000E-002     0.0000000000000000     
  -6.7199999999999996E-002     0.0000000000000000     
  -6.6099999999999992E-002     0.0000000000000000     
  -6.5000000000000002E-002     0.0000000000000000     
  -6.3899999999999985E-002     0.0000000000000000     
  -6.2799999999999995E-002     0.0000000000000000     
  -6.1699999999999991E-002     0.0000000000000000     
  -6.0599999999999994E-002     0.0000000000000000     
  -5.9499999999999990E-002     0.0000000000000000     
  -5.8399999999999994E-002     0.0000000000000000     
  -5.7299999999999990E-002     0.0000000000000000     
  -5.6199999999999986E-002     0.0000000000000000     
  -5.5099999999999996E-002     0.0000000000000000     
  -5.3999999999999992E-002     0.0000000000000000     
  -5.2899999999999989E-002     0.0000000000000000     
  -5.1799999999999985E-002     0.0000000000000000     
  -5.0699999999999995E-002     0.0000000000000000     
  -4.9599999999999991E-002     0.0000000000000000     
  -4.8499999999999988E-002     0.0000000000000000     
  -4.7399999999999998E-002     0.0000000000000000     
  -4.6299999999999994E-002     0.0000000000000000     
  -4.5199999999999990E-002     0.0000000000000000     
  -4.4099999999999986E-002     0.0000000000000000     
  -4.2999999999999997E-002     0.0000000000000000     
  -4.1899999999999993E-002     0.0000000000000000     
  -4.0799999999999989E-002     0.0000000000000000     
  -3.9699999999999985E-002     0.0000000000000000     
  -3.8599999999999995E-002     0.0000000000000000     
  -3.7499999999999992E-002     0.0000000000000000     
  -3.6399999999999988E-002     0.0000000000000000     
  -3.5299999999999984E-002     0.0000000000000000     
  -3.4199999999999994E-002     0.0000000000000000     
  -3.3099999999999991E-002     0.0000000000000000     
  -3.1999999999999987E-002     0.0000000000000000     
  -3.0899999999999997E-002     0.0000000000000000     
  -2.9799999999999993E-002     0.0000000000000000     
  -2.8699999999999989E-002     0.0000000000000000     
  -2.7599999999999986E-002     0.0000000000000000     
  -2.6499999999999996E-002     0.0000000000000000     
  -2.5399999999999992E-002     0.0000000000000000     
  -2.4299999999999988E-002     0.0000000000000000     
  -2.3199999999999985E-002     0.0000000000000000     
  -2.2099999999999995E-002     0.0000000000000000     
  -2.0999999999999991E-002     0.0000000000000000     
  -1.9899999999999987E-002     0.0000000000000000     
  -1.8799999999999983E-002     0.0000000000000000     
  -1.7699999999999994E-002     0.0000000000000000     
  -1.6599999999999990E-002     0.0000000000000000     
  -1.5499999999999986E-002     0.0000000000000000     
  -1.4399999999999996E-002     0.0000000000000000     
  -1.3299999999999992E-002     0.0000000000000000     
  -1.2199999999999989E-002     0.0000000000000000     
  -1.1099999999999985E-002     0.0000000000000000     
  -9.9999999999999950E-003     0.0000000000000000     
  -8.8999999999999913E-003     0.0000000000000000     
  -7.7999999999999875E-003     0.0000000000000000     
  -6.6999999999999837E-003     0.0000000000000000     
  -5.5999999999999939E-003     0.0000000000000000     
  -4.4999999999999901E-003     0.0000000000000000     
  -3.3999999999999864E-003     0.0000000000000000     
  -2.2999999999999826E-003     0.0000000000000000     
  -1.1999999999999927E-003     0.0000000000000000     
  -9.9999999999988987E-005     0.0000000000000000     
   1.0000000000000148E-003     0.0000000000000000     
   2.1000000000000185E-003     0.0000000000000000     
   3.2000000000000084E-003     0.0000000000000000     
   4.3000000000000121E-003     0.0000000000000000     
   5.4000000000000159E-003     0.0000000000000000     
   6.5000000000000058E-003     0.0000000000000000     
   7.6000000000000234E-003     0.0000000000000000     
   8.7000000000000133E-003     0.0000000000000000     
   9.8000000000000032E-003     0.0000000000000000     
   1.0900000000000021E-002     0.0000000000000000     
   1.2000000000000011E-002     0.0000000000000000     
   1.3100000000000001E-002     0.0000000000000000     
   1.4200000000000018E-002     0.0000000000000000     
   1.5300000000000008E-002     0.0000000000000000     
   1.6400000000000026E-002     0.0000000000000000     
   1.7500000000000016E-002     0.0000000000000000     
   1.8600000000000005E-002     0.0000000000000000     
   1.9700000000000023E-002     0.0000000000000000     
   2.0800000000000013E-002     0.0000000000000000     
   2.1900000000000003E-002     0.0000000000000000     
   2.3000000000000020E-002     0.0000000000000000     
   2.4100000000000010E-002     0.0000000000000000     
   2.5200000000000000E-002     0.0000000000000000     
   2.6300000000000018E-002     0.0000000000000000     
   2.7400000000000008E-002     0.0000000000000000     
   2.8500000000000025E-002     0.0000000000000000     
   2.9600000000000015E-002     0.0000000000000000     
   3.0700000000000005E-002    -4.3180801687232621E-044
   3.1800000000000023E-002    -1.8671278054163191E-039
   3.2900000000000013E-002    -6.0938661871163978E-039
   3.4000000000000002E-002    -8.8544671778205668E-039
   3.5100000000000020E-002    -6.2752792122735924E-039
   3.6200000000000010E-002     7.9944436864287868E-039
   3.7300000000000028E-002     2.9418477590350252E-038
   3.8400000000000017E-002     4.2439751367303031E-038
   3.9500000000000007E-002     2.2421158804968962E-038
   4.0600000000000025E-002    -1.2939460809973688E-039
   4.1700000000000015E-002    -6.7619277292690601E-039
   4.2800000000000005E-002    -9.9340919141802530E-039
   4.3900000000000022E-002    -3.5698609907465192E-038
   4.5000000000000012E-002    -9.5877360666261273E-038
   4.6100000000000002E-002    -9.9688309118139150E-038
   4.7200000000000020E-002     8.7373083911858315E-038
   4.8300000000000010E-002     4.9431701967455216E-037
   4.9400000000000027E-002     9.5668329882491462E-037
   5.0500000000000017E-002     1.0926201958280398E-036
   5.1600000000000007E-002     4.4975355801225777E-037
   5.2700000000000025E-002    -1.2397005370268435E-036
   5.3800000000000014E-002    -3.6788848295646714E-036
   5.4900000000000004E-002    -5.7358696203814724E-036
   5.6000000000000022E-002    -5.5538145563770012E-036
   5.7100000000000012E-002    -1.2152733604355812E-036
   5.8200000000000002E-002     7.9434209043485409E-036
   5.9300000000000019E-002     1.9801834840072490E-035
   6.0400000000000009E-002     2.8532976409209195E-035
   6.1500000000000027E-002     2.5439796298448456E-035
   6.2600000000000017E-002     2.4410044840078488E-036
   6.3700000000000007E-002    -4.1924754754469251E-035
   6.4800000000000024E-002    -9.5995745576770152E-035
   6.5900000000000014E-002    -1.3194718584370491E-034
   6.7000000000000004E-002    -1.1107682517197570E-034
   6.8100000000000022E-002    -5.9259295709313274E-037
   6.9200000000000012E-002     2.0007266286971280E-034
   7.0300000000000029E-002     4.3327062521923914E-034
   7.1400000000000019E-002     5.7478194089786639E-034
   7.2500000000000009E-002     4.6219012918884636E-034
   7.3600000000000027E-002    -3.0290402846526245E-035
   7.4700000000000016E-002    -8.8356934422148244E-034
   7.5800000000000006E-002    -1.8363464932124387E-033
   7.6900000000000024E-002    -2.3688579882103255E-033
   7.8000000000000014E-002    -1.8376543871522518E-033
   7.9100000000000004E-002     2.1361233976618909E-034
   8.0200000000000021E-002     3.6354428111922507E-033
   8.1300000000000011E-002     7.3299976192800299E-033
   8.2400000000000029E-002     9.2512640827193625E-033
   8.3500000000000019E-002     6.9873558532613560E-033
   8.4600000000000009E-002    -1.0298129233923259E-033
   8.5700000000000026E-002    -1.3996868807913916E-032
   8.6800000000000016E-002    -2.7606543442609025E-032
   8.7900000000000006E-002    -3.4260584636035180E-032
   8.9000000000000024E-002    -2.5393242976751981E-032
   9.0100000000000013E-002     4.0995399284523102E-033
   9.1200000000000003E-002     5.0596177978223766E-032
   9.2300000000000021E-002     9.8236349421215545E-032
   9.3400000000000011E-002     1.2034778248611599E-031
   9.4500000000000028E-002     8.8086472162887646E-032
   9.5600000000000018E-002    -1.4268364338692394E-032
   9.6700000000000008E-002    -1.7216709913062258E-031
   9.7800000000000026E-002    -3.3060031277815271E-031
   9.8900000000000016E-002    -4.0094651830900734E-031
  0.10000000000000001         -2.9109177763763184E-031
  0.10110000000000002          4.4665745202626566E-032
  0.10220000000000001          5.5279842811251643E-031
  0.10330000000000003          1.0530923553541641E-030
  0.10440000000000002          1.2665483886046776E-030
  0.10550000000000001          9.1422399627672005E-031
  0.10660000000000003         -1.2871122190268721E-031
  0.10770000000000002         -1.6791566696899400E-030
  0.10880000000000001         -3.1781104711058860E-030
  0.10990000000000003         -3.7925639540374419E-030
  0.11100000000000002         -2.7218251922552456E-030
  0.11210000000000001          3.5201378591154337E-031
  0.11320000000000002          4.8407437623619272E-030
  0.11430000000000001          9.0987464559239112E-030
  0.11540000000000003          1.0764905356126928E-029
  0.11650000000000002          7.6616383044875218E-030
  0.11760000000000001         -9.5597392343599934E-031
  0.11870000000000003         -1.3300026261251569E-029
  0.11980000000000002         -2.4761193481613527E-029
  0.12090000000000001         -2.8977807414312228E-029
  0.12200000000000003         -2.0341275397638573E-029
  0.12310000000000001          2.7146987722018356E-030
  0.12420000000000003          3.5017034348013389E-029
  0.12530000000000002          6.4246086395074825E-029
  0.12640000000000001          7.4079014712521983E-029
  0.12750000000000003          5.0838060537616497E-029
  0.12860000000000002         -8.2709432217332084E-030
  0.12970000000000001         -8.8929544452144228E-029
  0.13080000000000003         -1.5961271319609222E-028
  0.13190000000000002         -1.8033706958528481E-028
  0.13300000000000001         -1.1950820789040976E-028
  0.13410000000000000          2.6407936979181270E-029
  0.13520000000000004          2.1935453120706202E-028
  0.13630000000000003          3.8181589680507983E-028
  0.13740000000000002          4.1997472866032321E-028
  0.13850000000000001          2.6461120271558775E-028
  0.13960000000000000         -8.3997137127674166E-029
  0.14070000000000005         -5.2848334908354135E-028
  0.14180000000000004         -8.8503173360586772E-028
  0.14290000000000003         -9.4189469637548607E-028
  0.14400000000000002         -5.5480115460869819E-028
  0.14510000000000001          2.5473928715378552E-028
  0.14620000000000000          1.2467371263382373E-027
  0.14730000000000004          1.9995068127906892E-027
  0.14840000000000003          2.0511864673582760E-027
  0.14950000000000002          1.1142121988351854E-027
  0.15060000000000001         -7.1743865704302849E-028
  0.15170000000000000         -2.8742605298258985E-027
  0.15280000000000005         -4.4185240667803175E-027
  0.15390000000000004         -4.3723825337368105E-027
  0.15500000000000003         -2.1835317637124036E-027
  0.15610000000000002          1.8525282316183586E-027
  0.15720000000000001          6.4367496066189011E-027
  0.15830000000000000          9.5468067448027651E-027
  0.15940000000000004          9.1671343122451104E-027
  0.16050000000000003          4.2667370543398496E-027
  0.16160000000000002         -4.3667930991605077E-027
  0.16270000000000001         -1.3890123590749766E-026
  0.16380000000000000         -2.0077712914230436E-026
  0.16490000000000005         -1.8882172599030191E-026
  0.16600000000000004         -8.4212635562758931E-027
  0.16710000000000003          9.4230273456624139E-027
  0.16820000000000002          2.8682505233927280E-026
  0.16930000000000001          4.0817302303513865E-026
  0.17040000000000000          3.7924567050507073E-026
  0.17150000000000004          1.6646978610101481E-026
  0.17260000000000003         -1.8852263214005218E-026
  0.17370000000000002         -5.6537375370915195E-026
  0.17480000000000001         -7.9729688522856446E-026
  0.17590000000000000         -7.3474152375577677E-026
  0.17700000000000005         -3.1987594369322274E-026
  0.17810000000000004          3.5979411615420931E-026
  0.17920000000000003          1.0697971945887130E-025
  0.18030000000000002          1.4948213487092184E-025
  0.18140000000000001          1.3611903269882759E-025
  0.18250000000000000          5.7472264193787879E-026
  0.18360000000000004         -6.8572410250169997E-026
  0.18470000000000003         -1.9748178570521302E-025
  0.18580000000000002         -2.7121889165577611E-025
  0.18690000000000001         -2.4123713528589061E-025
  0.18800000000000000         -9.3393292208431945E-026
  0.18910000000000005          1.3620673987549387E-025
  0.19020000000000004          3.6420743498810886E-025
  0.19130000000000003          4.8556178094454241E-025
  0.19240000000000002          4.1595318028601530E-025
  0.19350000000000001          1.3609103696200890E-025
  0.19460000000000005         -2.8196821247039437E-025
  0.19570000000000004         -6.8333577805124619E-025
  0.19680000000000003         -8.7898775396368466E-025
  0.19790000000000002         -7.2301367976260969E-025
  0.19900000000000001         -1.9070326823681785E-025
  0.20010000000000000          5.7784231556092018E-025
  0.20120000000000005          1.2973742266565509E-024
  0.20230000000000004          1.6279638868422642E-024
  0.20340000000000003          1.3137316263096076E-024
  0.20450000000000002          3.1979525637255876E-025
  0.20560000000000000         -1.0944400094911291E-024
  0.20670000000000005         -2.4144954361260430E-024
  0.20780000000000004         -3.0332473004767911E-024
  0.20890000000000003         -2.4950405348305290E-024
  0.21000000000000002         -7.3354602959048059E-025
  0.21110000000000001          1.8030034548387934E-024
  0.21220000000000000          4.2212276577744484E-024
  0.21330000000000005          5.4623360654691790E-024
  0.21440000000000003          4.7191724319150264E-024
  0.21550000000000002          1.8405914089296816E-024
  0.21660000000000001         -2.4553175595234624E-024
  0.21770000000000000         -6.6942891391376762E-024
  0.21880000000000005         -9.1081746971315863E-024
  0.21990000000000004         -8.3224956563574430E-024
  0.22100000000000003         -4.0206557596176155E-024
  0.22210000000000002          2.7066552684075173E-024
  0.22320000000000001          9.5431240312598274E-024
  0.22430000000000000          1.3690166272688445E-023
  0.22540000000000004          1.2964820712080568E-023
  0.22650000000000003          6.8482296235761007E-024
  0.22760000000000002         -2.9801721466033560E-024
  0.22870000000000001         -1.2957626156299864E-023
  0.22980000000000000         -1.8833839584505695E-023
  0.23090000000000005         -1.7399637933479698E-023
  0.23200000000000004         -8.0962633692969904E-024
  0.23310000000000003          6.2275539520598550E-024
  0.23420000000000002          1.9918427326448606E-023
  0.23530000000000001          2.6493946464836528E-023
  0.23640000000000000          2.1401075779687861E-023
  0.23750000000000004          4.4982681217861283E-024
  0.23860000000000003         -1.8899389557516434E-023
  0.23970000000000002         -3.9186729196049477E-023
  0.24080000000000001         -4.5815022721188812E-023
  0.24190000000000000         -3.1825281540442211E-023
  0.24300000000000005          2.1573304228274804E-024
  0.24410000000000004          4.6330748860081875E-023
  0.24520000000000003          8.3750413089337598E-023
  0.24630000000000002          9.5919404292165111E-023
  0.24740000000000001          7.0330362681843031E-023
  0.24850000000000005          7.1906951259737634E-024
  0.24960000000000004         -7.7664635036295152E-023
  0.25070000000000003         -1.5568221196039660E-022
  0.25180000000000002         -1.9431336205738296E-022
  0.25290000000000001         -1.6914455937397390E-022
  0.25400000000000000         -7.5179689029174003E-023
  0.25510000000000005          6.7415157127130698E-023
  0.25620000000000004          2.1638181803604635E-022
  0.25730000000000003          3.1954430062158607E-022
  0.25840000000000002          3.3277259332850100E-022
  0.25950000000000001          2.3758997243676346E-022
  0.26060000000000005          5.1497005979488254E-023
  0.26170000000000004         -1.7400522087802122E-022
  0.26280000000000003         -3.6848792623188581E-022
  0.26390000000000002         -4.6643136215534388E-022
  0.26500000000000001         -4.3143669147771739E-022
  0.26610000000000000         -2.7128181825714414E-022
  0.26720000000000005         -3.6934712975909266E-023
  0.26830000000000004          1.9551563472344387E-022
  0.26940000000000003          3.5402371709847238E-022
  0.27050000000000002          3.9948974927106761E-022
  0.27160000000000001          3.4184947941812677E-022
  0.27270000000000005          2.3491744003312507E-022
  0.27380000000000004          1.4996801439132474E-022
  0.27490000000000003          1.3773260094438238E-022
  0.27600000000000002          1.9539741414865666E-022
  0.27710000000000001          2.5577346854431684E-022
  0.27820000000000000          2.0872545773072066E-022
  0.27930000000000005         -4.8081307199488917E-023
  0.28040000000000004         -5.4636054702315154E-022
  0.28150000000000003         -1.1991188309929121E-021
  0.28260000000000002         -1.7938289701444662E-021
  0.28370000000000001         -2.0414475071911105E-021
  0.28480000000000005         -1.6750824257401212E-021
  0.28590000000000004         -5.6955105431921394E-022
  0.28700000000000003          1.1622029125879533E-021
  0.28810000000000002          3.1401972898022677E-021
  0.28920000000000001          4.7828786250381287E-021
  0.29030000000000000          5.4624572729575309E-021
  0.29140000000000005          4.7104521535265817E-021
  0.29250000000000004          2.4081088643785065E-021
  0.29360000000000003         -1.1084450173140026E-021
  0.29470000000000002         -5.0775382943160865E-021
  0.29580000000000001         -8.4831383016575468E-021
  0.29690000000000005         -1.0325826045435932E-020
  0.29800000000000004         -9.9126947347334771E-021
  0.29910000000000003         -7.0729140932681105E-021
  0.30020000000000002         -2.2268660300393459E-021
  0.30130000000000001          3.7141193723109095E-021
  0.30240000000000000          9.5807446266006905E-021
  0.30350000000000005          1.4227720509187497E-020
  0.30460000000000004          1.6766856164422631E-020
  0.30570000000000003          1.6680106507476927E-020
  0.30680000000000002          1.3800128451705434E-020
  0.30790000000000001          8.2124029141689832E-021
  0.30900000000000005          1.7627922047985729E-022
  0.31010000000000004         -9.8426779433713310E-021
  0.31120000000000003         -2.0996701973882910E-020
  0.31230000000000002         -3.1800910246173045E-020
  0.31340000000000001         -3.9958778944349820E-020
  0.31450000000000006         -4.2471202451509282E-020
  0.31560000000000005         -3.6187582801487144E-020
  0.31670000000000004         -1.8815943826596486E-020
  0.31780000000000003          9.7979915806982931E-021
  0.31890000000000002          4.6517979618139586E-020
  0.32000000000000001          8.4403149576190023E-020
  0.32110000000000005          1.1330094251252432E-019
  0.32220000000000004          1.2177814494956077E-019
  0.32330000000000003          1.0022209073720426E-019
  0.32440000000000002          4.4481458935091975E-020
  0.32550000000000001         -4.0968205009668047E-020
  0.32660000000000006         -1.4150381270974739E-019
  0.32770000000000005         -2.3346789023917326E-019
  0.32880000000000004         -2.8836280361815382E-019
  0.32990000000000003         -2.7975196834984650E-019
  0.33100000000000002         -1.9157841891589826E-019
  0.33210000000000001         -2.5844189298531232E-020
  0.33320000000000005          1.9276482056232811E-019
  0.33430000000000004          4.1748581720876571E-019
  0.33540000000000003          5.8658330676945822E-019
  0.33650000000000002          6.3672520300825234E-019
  0.33760000000000001          5.2059037150114673E-019
  0.33870000000000006          2.2493121801257864E-019
  0.33980000000000005         -2.1586115639492063E-019
  0.34090000000000004         -7.1580127514015575E-019
  0.34200000000000003         -1.1468881857572741E-018
  0.34310000000000002         -1.3635336688378559E-018
  0.34420000000000001         -1.2393942377121298E-018
  0.34530000000000005         -7.0991588614152969E-019
  0.34640000000000004          1.8981685484577560E-019
  0.34750000000000003          1.3043102587671864E-018
  0.34860000000000002          2.3654422139755408E-018
  0.34970000000000001          3.0357623105552592E-018
  0.35080000000000006          2.9862403784093733E-018
  0.35190000000000005          1.9969722810401500E-018
  0.35300000000000004          5.8775614603855375E-020
  0.35410000000000003         -2.5540411487786526E-018
  0.35520000000000002         -5.2709090232864078E-018
  0.35630000000000001         -7.2961177909126571E-018
  0.35740000000000005         -7.7708916329992179E-018
  0.35850000000000004         -6.0089253598787484E-018
  0.35960000000000003         -1.7603085883150016E-018
  0.36070000000000002          4.5646592811412860E-018
  0.36180000000000001          1.1791207037862307E-017
  0.36290000000000006          1.8066003688077558E-017
  0.36400000000000005          2.1171467853122138E-017
  0.36510000000000004          1.9052631303431593E-017
  0.36620000000000003          1.0473853987352993E-017
  0.36730000000000002         -4.3417483496665901E-018
  0.36840000000000006         -2.3279850460813962E-017
  0.36950000000000005         -4.2300981826498570E-017
  0.37060000000000004         -5.5944623697117929E-017
  0.37170000000000003         -5.8403143587868178E-017
  0.37280000000000002         -4.5047376852548825E-017
  0.37390000000000001         -1.4122222228503975E-017
  0.37500000000000006          3.1804802618269994E-017
  0.37610000000000005          8.5120852914882988E-017
  0.37720000000000004          1.3359940823060984E-016
  0.37830000000000003          1.6223238371212254E-016
  0.37940000000000002          1.5640532889006769E-016
  0.38050000000000006          1.0597917079947634E-016
  0.38160000000000005          9.4673234078223356E-018
  0.38270000000000004         -1.2277422694018412E-016
  0.38380000000000003         -2.6749128657378076E-016
  0.38490000000000002         -3.9054114625302264E-016
  0.38600000000000001         -4.5237671076566826E-016
  0.38710000000000000         -4.1663486169992345E-016
  0.38819999999999999         -2.6054952380279959E-016
  0.38930000000000009          1.4932591110291062E-017
  0.39040000000000008          3.7799930086487156E-016
  0.39150000000000007          7.6447520599440170E-016
  0.39260000000000006          1.0840261658214502E-015
  0.39370000000000005          1.2347778623458011E-015
  0.39480000000000004          1.1251767528303072E-015
  0.39590000000000003          6.9980001395703166E-016
  0.39700000000000002         -3.6075040224459220E-017
  0.39810000000000001         -9.9948530990150525E-016
  0.39920000000000000         -2.0266637165486146E-015
  0.40029999999999999         -2.8884797454919557E-015
  0.40140000000000009         -3.3259939900752691E-015
  0.40250000000000008         -3.1033449520857379E-015
  0.40360000000000007         -2.0703429876466211E-015
  0.40470000000000006         -2.2281606978777084E-016
  0.40580000000000005          2.2539418633204731E-015
  0.40690000000000004          4.9732911783946718E-015
  0.40800000000000003          7.3782855527994546E-015
  0.40910000000000002          8.8202296209347941E-015
  0.41020000000000001          8.6798517069763408E-015
  0.41130000000000000          6.5153860968849163E-015
  0.41239999999999999          2.2118020609321652E-015
  0.41350000000000009         -3.9014723110380434E-015
  0.41460000000000008         -1.0998481464852272E-014
  0.41570000000000007         -1.7798957545366326E-014
  0.41680000000000006         -2.2720430276120283E-014
  0.41790000000000005         -2.4136372868511110E-014
  0.41900000000000004         -2.0713083725785441E-014
  0.42010000000000003         -1.1774705366095751E-014
  0.42120000000000002          2.3727513136876552E-015
  0.42230000000000001          2.0236154923306307E-014
  0.42340000000000000          3.9121523416435726E-014
  0.42449999999999999          5.5363614791705307E-014
  0.42560000000000009          6.4814394204307762E-014
  0.42670000000000008          6.3558066353527059E-014
  0.42780000000000007          4.8767529167707354E-014
  0.42890000000000006          1.9568541994258616E-014
  0.43000000000000005         -2.2256310448492573E-014
  0.43110000000000004         -7.1901773814517519E-014
  0.43220000000000003         -1.2166870791033823E-013
  0.43330000000000002         -1.6168805894099027E-013
  0.43440000000000001         -1.8125238733575961E-013
  0.43550000000000000         -1.7065691452025113E-013
  0.43659999999999999         -1.2333238953748732E-013
  0.43770000000000009         -3.7945360213409096E-014
  0.43880000000000008          7.9932610410248278E-014
  0.43990000000000007          2.1700467140971298E-013
  0.44100000000000006          3.5264414930084283E-013
  0.44210000000000005          4.6074406822099885E-013
  0.44320000000000004          5.1305737183129396E-013
  0.44430000000000003          4.8380776115234068E-013
  0.44540000000000002          3.5507110747970975E-013
  0.44650000000000001          1.2216625256035591E-013
  0.44760000000000000         -2.0189831378927318E-013
  0.44869999999999999         -5.8394901782067368E-013
  0.44980000000000009         -9.7108756761529709E-013
  0.45090000000000008         -1.2947214896526610E-012
  0.45200000000000007         -1.4784149220154089E-012
  0.45310000000000006         -1.4491895354403269E-012
  0.45420000000000005         -1.1512245744084203E-012
  0.45530000000000004         -5.6023429842548592E-013
  0.45640000000000003          3.0375153556559742E-013
  0.45750000000000002          1.3677811974768105E-012
  0.45860000000000001          2.5040748856197775E-012
  0.45970000000000000          3.5368659296747895E-012
  0.46079999999999999          4.2590990615573547E-012
  0.46190000000000009          4.4587510917103008E-012
  0.46300000000000008          3.9529009708574843E-012
  0.46410000000000007          2.6259477396465232E-012
  0.46520000000000006          4.6681362393372600E-013
  0.46630000000000005         -2.4011460744857221E-012
  0.46740000000000004         -5.7041750212228090E-012
  0.46850000000000003         -9.0221569722034642E-012
  0.46960000000000002         -1.1817050495740383E-011
  0.47070000000000001         -1.3487341083444568E-011
  0.47180000000000000         -1.3446486015032286E-011
  0.47289999999999999         -1.1219137399094837E-011
  0.47400000000000009         -6.5447133158386583E-012
  0.47510000000000008          5.2567366112583673E-013
  0.47620000000000007          9.5552554742387701E-012
  0.47730000000000006          1.9687290749773731E-011
  0.47840000000000005          2.9665133246509704E-011