-0.1200000E+00  0.0000000E+00
-0.1189000E+00  0.0000000E+00
-0.1178000E+00  0.0000000E+00
-0.1167000E+00  0.0000000E+00
-0.1156000E+00  0.0000000E+00
-0.1145000E+00  0.0000000E+00
-0.1134000E+00  0.0000000E+00
-0.1123000E+00  0.0000000E+00
-0.1112000E+00  0.0000000E+00
-0.1101000E+00  0.0000000E+00
-0.1090000E+00  0.0000000E+00
-0.1079000E+00  0.0000000E+00
-0.1068000E+00  0.0000000E+00
-0.1057000E+00  0.0000000E+00
-0.1046000E+00  0.0000000E+00
-0.1035000E+00  0.0000000E+00
-0.1024000E+00  0.0000000E+00
-0.1013000E+00  0.0000000E+00
-0.1002000E+00  0.0000000E+00
-0.9910000E-01  0.0000000E+00
-0.9800000E-01  0.0000000E+00
-0.9690000E-01  0.0000000E+00
-0.9580000E-01  0.0000000E+00
-0.9470000E-01  0.0000000E+00
-0.9360000E-01  0.0000000E+00
-0.9250000E-01  0.0000000E+00
-0.9140000E-01  0.0000000E+00
-0.9030000E-01  0.0000000E+00
-0.8920000E-01  0.0000000E+00
-0.8810000E-01  0.0000000E+00
-0.8700000E-01  0.0000000E+00
-0.8590000E-01  0.0000000E+00
-0.8480000E-01  0.0000000E+00
-0.8370000E-01  0.0000000E+00
-0.8260000E-01  0.0000000E+00
-0.8150000E-01  0.0000000E+00
-0.8040000E-01  0.0000000E+00
-0.7930000E-01  0.0000000E+00
-0.7820000E-01  0.0000000E+00
-0.7710000E-01  0.0000000E+00
-0.7600000E-01  0.0000000E+00
-0.7490000E-01  0.0000000E+00
-0.7380000E-01  0.0000000E+00
-0.7270000E-01  0.0000000E+00
-0.7160000E-01  0.0000000E+00
-0.7050000E-01  0.0000000E+00
-0.6940000E-01  0.0000000E+00
-0.6830000E-01  0.0000000E+00
-0.6720000E-01  0.0000000E+00
-0.6610000E-01  0.0000000E+00
-0.6500000E-01  0.0000000E+00
-0.6390000E-01  0.0000000E+00
-0.6280000E-01  0.0000000E+00
-0.6170000E-01  0.0000000E+00
-0.6060000E-01  0.0000000E+00
-0.5950000E-01  0.0000000E+00
-0.5840000E-01  0.0000000E+00
-0.5730000E-01  0.0000000E+00
-0.5620000E-01  0.0000000E+00
-0.5510000E-01  0.0000000E+00
-0.5400000E-01  0.0000000E+00
-0.5290000E-01  0.0000000E+00
-0.5180000E-01  0.0000000E+00
-0.5070000E-01  0.0000000E+00
-0.4960000E-01  0.0000000E+00
-0.4850000E-01  0.0000000E+00
-0.4740000E-01  0.0000000E+00
-0.4630000E-01  0.0000000E+00
-0.4520000E-01  0.0000000E+00
-0.4410000E-01  0.0000000E+00
-0.4300000E-01  0.0000000E+00
-0.4190000E-01  0.0000000E+00
-0.4080000E-01  0.0000000E+00
-0.3970000E-01  0.0000000E+00
-0.3860000E-01  0.0000000E+00
-0.3750000E-01  0.0000000E+00
-0.3640000E-01  0.0000000E+00
-0.3530000E-01  0.0000000E+00
-0.3420000E-01  0.0000000E+00
-0.3310000E-01  0.0000000E+00
-0.3200000E-01 -0.0000000E+00
-0.3090000E-01 -0.0000000E+00
-0.2980000E-01  0.0000000E+00
-0.2870000E-01  0.0000000E+00
-0.2760000E-01 -0.0000000E+00
-0.2650000E-01 -0.0000000E+00
-0.2540000E-01 -0.0000000E+00
-0.2430000E-01  0.0000000E+00
-0.2320000E-01  0.0000000E+00
-0.2210000E-01 -0.0000000E+00
-0.2100000E-01 -0.0000000E+00
-0.1990000E-01  0.4948936E-37
-0.1880000E-01  0.1427409E-36
-0.1770000E-01  0.1605101E-36
-0.1660000E-01 -0.6085841E-37
-0.1550000E-01 -0.5714770E-36
-0.1440000E-01 -0.1111432E-35
-0.1330000E-01 -0.1024656E-35
-0.1220000E-01  0.4689532E-36
-0.1110000E-01  0.3643597E-35
-0.1000000E-01  0.7178420E-35
-0.8900000E-02  0.7464579E-35
-0.7800000E-02 -0.4565799E-36
-0.6700000E-02 -0.1911781E-34
-0.5600000E-02 -0.4231869E-34
-0.4500000E-02 -0.5017264E-34
-0.3400000E-02 -0.1294689E-34
-0.2300000E-02  0.8890280E-34
-0.1200000E-02  0.2295911E-33
-0.1000000E-03  0.3071330E-33
 0.1000000E-02  0.1560972E-33
 0.2100000E-02 -0.3547293E-33
 0.3200000E-02 -0.1139160E-32
 0.4300000E-02 -0.1715446E-32
 0.5400000E-02 -0.1228035E-32
 0.6500000E-02  0.1113605E-32
 0.7600000E-02  0.5141817E-32
 0.8700000E-02  0.8773783E-32
 0.9800000E-02  0.7896832E-32
 0.1090000E-01 -0.1826229E-32
 0.1200000E-01 -0.2088535E-31
 0.1310000E-01 -0.4112843E-31
 0.1420000E-01 -0.4419871E-31
 0.1530000E-01 -0.8251578E-32
 0.1640000E-01  0.7471293E-31
 0.1750000E-01  0.1764164E-30
 0.1860000E-01  0.2209629E-30
 0.1970000E-01  0.1068830E-30
 0.2080000E-01 -0.2241426E-30
 0.2190000E-01 -0.6892161E-30
 0.2300000E-01 -0.9988977E-30
 0.2410000E-01 -0.7173738E-30
 0.2520000E-01  0.4847316E-30
 0.2630000E-01  0.2429788E-29
 0.2740000E-01  0.4106881E-29
 0.2850000E-01  0.3783340E-29
 0.2960000E-01 -0.1379963E-30
 0.3070000E-01 -0.7590399E-29
 0.3180000E-01 -0.1538092E-28
 0.3290000E-01 -0.1713466E-28
 0.3400000E-01 -0.5944819E-29
 0.3510000E-01  0.2018509E-28
 0.3620000E-01  0.5235850E-28
 0.3730000E-01  0.6890946E-28
 0.3840000E-01  0.4271596E-28
 0.3950000E-01 -0.4074914E-28
 0.4060000E-01 -0.1608565E-27
 0.4170000E-01 -0.2498678E-27
 0.4280000E-01 -0.2101312E-27
 0.4390000E-01  0.3033218E-28
 0.4500000E-01  0.4389442E-27
 0.4610000E-01  0.8224437E-27
 0.4720000E-01  0.8567870E-27
 0.4830000E-01  0.2451196E-27
 0.4940000E-01 -0.1025603E-26
 0.5050000E-01 -0.2460185E-26
 0.5160000E-01 -0.3065425E-26
 0.5270000E-01 -0.1759928E-26
 0.5380000E-01  0.1847847E-26
 0.5490000E-01  0.6657448E-26
 0.5600000E-01  0.9858879E-26
 0.5710000E-01  0.7881888E-26
 0.5820000E-01 -0.1405586E-26
 0.5930000E-01 -0.1607720E-25
 0.6040000E-01 -0.2882550E-25
 0.6150000E-01 -0.2882659E-25
 0.6260000E-01 -0.7515933E-26
 0.6370000E-01  0.3349527E-25
 0.6480000E-01  0.7692105E-25
 0.6590000E-01  0.9242336E-25
 0.6700000E-01  0.5063771E-25
 0.6810000E-01 -0.5455685E-25
 0.6920000E-01 -0.1868300E-24
 0.7030000E-01 -0.2673736E-24
 0.7140000E-01 -0.2059847E-24
 0.7250000E-01  0.4041587E-25
 0.7360000E-01  0.4079014E-24
 0.7470000E-01  0.7070924E-24
 0.7580000E-01  0.6843032E-24
 0.7690000E-01  0.1651828E-24
 0.7800000E-01 -0.7742940E-24
 0.7910000E-01 -0.1716419E-23
 0.8020000E-01 -0.2001181E-23
 0.8130000E-01 -0.1054477E-23
 0.8240000E-01  0.1158988E-23
 0.8350000E-01  0.3809213E-23
 0.8460000E-01  0.5301605E-23
 0.8570000E-01  0.3968816E-23
 0.8680000E-01 -0.8097690E-24
 0.8790000E-01 -0.7613110E-23
 0.8900000E-01 -0.1286845E-22
 0.9010000E-01 -0.1217146E-22
 0.9120000E-01 -0.2872773E-23
 0.9230000E-01  0.1319669E-22
 0.9340000E-01  0.2866644E-22
 0.9450000E-01  0.3281110E-22
 0.9560000E-01  0.1712503E-22
 0.9670000E-01 -0.1781695E-22
 0.9780000E-01 -0.5824096E-22
 0.9890000E-01 -0.7994013E-22
 0.1000000E+00 -0.5941108E-22
 0.1011000E+00  0.1010585E-22
 0.1022000E+00  0.1061218E-21
 0.1033000E+00  0.1779918E-21
 0.1044000E+00  0.1672616E-21
 0.1055000E+00  0.4266338E-22
 0.1066000E+00 -0.1667630E-21
 0.1077000E+00 -0.3632517E-21
 0.1088000E+00 -0.4133580E-21
 0.1099000E+00 -0.2192663E-21
 0.1110000E+00  0.2015701E-21
 0.1121000E+00  0.6770982E-21
 0.1132000E+00  0.9250246E-21
 0.1143000E+00  0.6881168E-21
 0.1154000E+00 -0.8875023E-22
 0.1165000E+00 -0.1137228E-20
 0.1176000E+00 -0.1902083E-20
 0.1187000E+00 -0.1778092E-20
 0.1198000E+00 -0.4772311E-21
 0.1209000E+00  0.1657007E-20
 0.1220000E+00  0.3611877E-20
 0.1231000E+00  0.4080172E-20
 0.1242000E+00  0.2172789E-20
 0.1253000E+00 -0.1851972E-20
 0.1264000E+00 -0.6300575E-20
 0.1275000E+00 -0.8553076E-20
 0.1286000E+00 -0.6353931E-20
 0.1297000E+00  0.6323943E-21
 0.1308000E+00  0.9882525E-20
 0.1319000E+00  0.1651541E-19
 0.1330000E+00  0.1545565E-19
 0.1341000E+00  0.4516868E-20
 0.1352000E+00 -0.1318677E-19
 0.1363000E+00 -0.2924876E-19
 0.1374000E+00 -0.3326176E-19
 0.1385000E+00 -0.1851470E-19
 0.1396000E+00  0.1258873E-19
 0.1407000E+00  0.4683826E-19
 0.1418000E+00  0.6458197E-19
 0.1429000E+00  0.4952835E-19
 0.1440000E+00 -0.2015170E-21
 0.1451000E+00 -0.6613533E-19
 0.1462000E+00 -0.1139590E-18
 0.1473000E+00 -0.1091488E-18
 0.1484000E+00 -0.3780007E-19
 0.1495000E+00  0.7837379E-19
 0.1506000E+00  0.1838699E-18
 0.1517000E+00  0.2122740E-18
 0.1528000E+00  0.1229057E-18
 0.1539000E+00 -0.6671142E-19
 0.1550000E+00 -0.2735269E-18
 0.1561000E+00 -0.3789440E-18
 0.1572000E+00 -0.2893559E-18
 0.1583000E+00  0.6635326E-22
 0.1594000E+00  0.3758215E-18
 0.1605000E+00  0.6387901E-18
 0.1616000E+00  0.5980252E-18
 0.1627000E+00  0.1873428E-18
 0.1638000E+00 -0.4584523E-18
 0.1649000E+00 -0.1024996E-17
 0.1660000E+00 -0.1152827E-17
 0.1671000E+00 -0.6372105E-18
 0.1682000E+00  0.4067169E-18
 0.1693000E+00  0.1520919E-17
 0.1704000E+00  0.2076591E-17
 0.1715000E+00  0.1593766E-17
 0.1726000E+00  0.6093328E-19
 0.1737000E+00 -0.1932209E-17
 0.1748000E+00 -0.3375584E-17
 0.1759000E+00 -0.3309527E-17
 0.1770000E+00 -0.1386699E-17
 0.1781000E+00  0.1777101E-17
 0.1792000E+00  0.4718229E-17
 0.1803000E+00  0.5753796E-17
 0.1814000E+00  0.3884639E-17
 0.1825000E+00 -0.4825482E-18
 0.1836000E+00 -0.5452001E-17
 0.1847000E+00 -0.8389630E-17
 0.1858000E+00 -0.7264338E-17
 0.1869000E+00 -0.1937845E-17
 0.1880000E+00  0.5355838E-17
 0.1891000E+00  0.1080119E-16
 0.1902000E+00  0.1088619E-16
 0.1913000E+00  0.4526438E-17
 0.1924000E+00 -0.5761334E-17
 0.1935000E+00 -0.1454264E-16
 0.1946000E+00 -0.1603279E-16
 0.1957000E+00 -0.7479173E-17
 0.1968000E+00  0.8437206E-17
 0.1979000E+00  0.2382461E-16
 0.1990000E+00  0.2893018E-16
 0.2001000E+00  0.1742335E-16
 0.2012000E+00 -0.8975684E-17
 0.2023000E+00 -0.3934045E-16
 0.2034000E+00 -0.5734524E-16
 0.2045000E+00 -0.4905559E-16
 0.2056000E+00 -0.1126569E-16
 0.2067000E+00  0.4411116E-16
 0.2078000E+00  0.9286768E-16
 0.2089000E+00  0.1085264E-15
 0.2100000E+00  0.7561905E-16
 0.2111000E+00 -0.2360103E-18
 0.2122000E+00 -0.9136518E-16
 0.2133000E+00 -0.1582271E-15
 0.2144000E+00 -0.1671731E-15
 0.2155000E+00 -0.1076017E-15
 0.2166000E+00  0.5348166E-18
 0.2177000E+00  0.1139701E-15
 0.2188000E+00  0.1858922E-15
 0.2199000E+00  0.1889005E-15
 0.2210000E+00  0.1289136E-15
 0.2221000E+00  0.4141128E-16
 0.2232000E+00 -0.2951048E-16
 0.2243000E+00 -0.5859067E-16
 0.2254000E+00 -0.5712922E-16
 0.2265000E+00 -0.6795217E-16
 0.2276000E+00 -0.1362731E-15
 0.2287000E+00 -0.2700531E-15
 0.2298000E+00 -0.4134751E-15
 0.2309000E+00 -0.4552443E-15
 0.2320000E+00 -0.2780556E-15
 0.2331000E+00  0.1674369E-15
 0.2342000E+00  0.8000343E-15
 0.2353000E+00  0.1396433E-14
 0.2364000E+00  0.1653058E-14
 0.2375000E+00  0.1310171E-14
 0.2386000E+00  0.2919215E-15
 0.2397000E+00 -0.1202826E-14
 0.2408000E+00 -0.2713729E-14
 0.2419000E+00 -0.3651836E-14
 0.2430000E+00 -0.3514465E-14
 0.2441000E+00 -0.2101449E-14
 0.2452000E+00  0.3585058E-15
 0.2463000E+00  0.3232514E-14
 0.2474000E+00  0.5660402E-14
 0.2485000E+00  0.6821721E-14
 0.2496000E+00  0.6194186E-14
 0.2507000E+00  0.3712708E-14
 0.2518000E+00 -0.2137490E-15
 0.2529000E+00 -0.4807626E-14
 0.2540000E+00 -0.9087218E-14
 0.2551000E+00 -0.1202610E-13
 0.2562000E+00 -0.1268373E-13
 0.2573000E+00 -0.1033617E-13
 0.2584000E+00 -0.4660484E-14
 0.2595000E+00  0.4006479E-14
 0.2606000E+00  0.1439934E-13
 0.2617000E+00  0.2420465E-13
 0.2628000E+00  0.3028813E-13
 0.2639000E+00  0.2939607E-13
 0.2650000E+00  0.1927328E-13
 0.2661000E+00 -0.9958757E-16
 0.2672000E+00 -0.2563316E-13
 0.2683000E+00 -0.5112529E-13
 0.2694000E+00 -0.6842453E-13
 0.2705000E+00 -0.6966387E-13
 0.2716000E+00 -0.5001194E-13
 0.2727000E+00 -0.1005924E-13
 0.2738000E+00  0.4308783E-13
 0.2749000E+00  0.9663043E-13
 0.2760000E+00  0.1348701E-12
 0.2771000E+00  0.1433707E-12
 0.2782000E+00  0.1133873E-12
 0.2793000E+00  0.4529441E-13
 0.2804000E+00 -0.5004104E-13
 0.2815000E+00 -0.1524767E-12
 0.2826000E+00 -0.2363069E-12
 0.2837000E+00 -0.2758052E-12
 0.2848000E+00 -0.2515510E-12
 0.2859000E+00 -0.1563054E-12
 0.2870000E+00  0.8318071E-15
 0.2881000E+00  0.1931738E-12
 0.2892000E+00  0.3790590E-12
 0.2903000E+00  0.5087791E-12
 0.2914000E+00  0.5354036E-12
 0.2925000E+00  0.4278719E-12
 0.2936000E+00  0.1834264E-12
 0.2947000E+00 -0.1644271E-12
 0.2958000E+00 -0.5461664E-12
 0.2969000E+00 -0.8670138E-12
 0.2980000E+00 -0.1027780E-11
 0.2991000E+00 -0.9519567E-12
 0.3002000E+00 -0.6121982E-12
 0.3013000E+00 -0.4796703E-13
 0.3024000E+00  0.6328266E-12
 0.3035000E+00  0.1271653E-11
 0.3046000E+00  0.1694688E-11
 0.3057000E+00  0.1758003E-11
 0.3068000E+00  0.1390985E-11
 0.3079000E+00  0.6254360E-12
 0.3090000E+00 -0.3994771E-12
 0.3101000E+00 -0.1460449E-11
 0.3112000E+00 -0.2298107E-11
 0.3123000E+00 -0.2679722E-11
 0.3134000E+00 -0.2461719E-11
 0.3145000E+00 -0.1636034E-11
 0.3156000E+00 -0.3469703E-12
 0.3167000E+00  0.1128842E-11
 0.3178000E+00  0.2438726E-11
 0.3189000E+00  0.3237032E-11
 0.3200000E+00  0.3277693E-11
 0.3211000E+00  0.2493777E-11
 0.3222000E+00  0.1040714E-11
 0.3233000E+00 -0.7152803E-12
 0.3244000E+00 -0.2271153E-11
 0.3255000E+00 -0.3115174E-11
 0.3266000E+00 -0.2883543E-11
 0.3277000E+00 -0.1505122E-11
 0.3288000E+00  0.7123285E-12
 0.3299000E+00  0.3094647E-11
 0.3310000E+00  0.4732415E-11
 0.3321000E+00  0.4719194E-11
 0.3332000E+00  0.2449929E-11
 0.3343000E+00 -0.2096602E-11
 0.3354000E+00 -0.8180189E-11
 0.3365000E+00 -0.1430458E-10
 0.3376000E+00 -0.1844840E-10
 0.3387000E+00 -0.1850927E-10
 0.3398000E+00 -0.1288743E-10
 0.3409000E+00 -0.1081515E-11
 0.3420000E+00  0.1585941E-10
 0.3431000E+00  0.3517769E-10
 0.3442000E+00  0.5264814E-10
 0.3453000E+00  0.6324526E-10
 0.3464000E+00  0.6216559E-10
 0.3475000E+00  0.4603630E-10
 0.3486000E+00  0.1406565E-10
 0.3497000E+00 -0.3114116E-10
 0.3508000E+00 -0.8335228E-10
 0.3519000E+00 -0.1332315E-09
 0.3530000E+00 -0.1696417E-09
 0.3541000E+00 -0.1815919E-09
 0.3552000E+00 -0.1605314E-09
 0.3563000E+00 -0.1025693E-09
 0.3574000E+00 -0.1015366E-10
 0.3585000E+00  0.1072104E-09
 0.3596000E+00  0.2334846E-09
 0.3607000E+00  0.3479296E-09
 0.3618000E+00  0.4280625E-09
 0.3629000E+00  0.4533221E-09
 0.3640000E+00  0.4088586E-09
 0.3651000E+00  0.2887904E-09
 0.3662000E+00  0.9832660E-10
 0.3673000E+00 -0.1456906E-09
 0.3684000E+00 -0.4160176E-09
 0.3695000E+00 -0.6779285E-09
 0.3706000E+00 -0.8934510E-09
 0.3717000E+00 -0.1026330E-08
 0.3728000E+00 -0.1047000E-08
 0.3739000E+00 -0.9368473E-09
 0.3750000E+00 -0.6911487E-09
 0.3761000E+00 -0.3203327E-09
 0.3772000E+00  0.1505235E-09
 0.3783000E+00  0.6837080E-09
 0.3794000E+00  0.1231907E-08
 0.3805000E+00  0.1741636E-08
 0.3816000E+00  0.2156485E-08
 0.3827000E+00  0.2419816E-08
 0.3838000E+00  0.2476855E-08
 0.3849000E+00  0.2276527E-08
 0.3860000E+00  0.1773623E-08
 0.3871000E+00  0.9320165E-09
 0.3882000E+00 -0.2704752E-09
 0.3893000E+00 -0.1835391E-08
 0.3904000E+00 -0.3735340E-08
 0.3915000E+00 -0.5904953E-08
 0.3926000E+00 -0.8232210E-08
 0.3937000E+00 -0.1055146E-07
 0.3948000E+00 -0.1263914E-07
 0.3959000E+00 -0.1421277E-07
 0.3970000E+00 -0.1493298E-07
 0.3981000E+00 -0.1440764E-07
 0.3992000E+00 -0.1219621E-07
 0.4003000E+00 -0.7812161E-08
 0.4014000E+00 -0.7208408E-09
 0.4025000E+00  0.9670023E-08
 0.4036000E+00  0.2402954E-07
 0.4047000E+00  0.4313496E-07
 0.4058000E+00  0.6791674E-07
 0.4069000E+00  0.9951827E-07
 0.4080000E+00  0.1393706E-06
 0.4091000E+00  0.1892813E-06
 0.4102000E+00  0.2515369E-06
 0.4113000E+00  0.3290165E-06
 0.4124000E+00  0.4253169E-06
 0.4135000E+00  0.5448892E-06
 0.4146000E+00  0.6931883E-06
 0.4157000E+00  0.8768395E-06
 0.4168000E+00  0.1103830E-05
 0.4179000E+00  0.1383730E-05
 0.4190000E+00  0.1727956E-05
 0.4201000E+00  0.2150076E-05
 0.4212000E+00  0.2666178E-05
 0.4223000E+00  0.3295287E-05
 0.4234000E+00  0.4059849E-05
 0.4245000E+00  0.4986273E-05
 0.4256000E+00  0.6105535E-05
 0.4267000E+00  0.7453834E-05
 0.4278000E+00  0.9073316E-05
 0.4289000E+00  0.1101284E-04
 0.4300000E+00  0.1332879E-04
 0.4311000E+00  0.1608599E-04
 0.4322000E+00  0.1935855E-04
 0.4333000E+00  0.2323093E-04
 0.4344000E+00  0.2779885E-04
 0.4355000E+00  0.3317045E-04
 0.4366000E+00  0.3946730E-04
 0.4377000E+00  0.4682549E-04
 0.4388000E+00  0.5539673E-04
 0.4399000E+00  0.6534931E-04
 0.4410000E+00  0.7686904E-04
 0.4421000E+00  0.9016009E-04
 0.4432000E+00  0.1054455E-03
 0.4443000E+00  0.1229679E-03
 0.4454000E+00  0.1429891E-03
 0.4465000E+00  0.1657903E-03
 0.4476000E+00  0.1916712E-03
 0.4487000E+00  0.2209492E-03
 0.4498000E+00  0.2539573E-03
 0.4509000E+00  0.2910427E-03
 0.4520000E+00  0.3325632E-03
 0.4531000E+00  0.3788847E-03
 0.4542000E+00  0.4303764E-03
 0.4553000E+00  0.4874064E-03
 0.4564000E+00  0.5503360E-03
 0.4575000E+00  0.6195131E-03
 0.4586000E+00  0.6952654E-03
 0.4597000E+00  0.7778922E-03
 0.4608000E+00  0.8676554E-03
 0.4619000E+00  0.9647702E-03
 0.4630000E+00  0.1069395E-02
 0.4641000E+00  0.1181618E-02
 0.4652000E+00  0.1301452E-02
 0.4663000E+00  0.1428817E-02
 0.4674000E+00  0.1563532E-02
 0.4685000E+00  0.1705303E-02
 0.4696000E+00  0.1853713E-02
 0.4707000E+00  0.2008213E-02
 0.4718000E+00  0.2168109E-02
 0.4729000E+00  0.2332557E-02
 0.4740000E+00  0.2500559E-02
 0.4751000E+00  0.2670953E-02
 0.4762000E+00  0.2842419E-02
 0.4773000E+00  0.3013475E-02
 0.4784000E+00  0.3182478E-02
 0.4795000E+00  0.3347636E-02
 0.4806000E+00  0.3507011E-02
 0.4817000E+00  0.3658536E-02
 0.4828000E+00  0.3800028E-02
 0.4839000E+00  0.3929210E-02
 0.4850000E+00  0.4043733E-02
 0.4861000E+00  0.4141202E-02
 0.4872000E+00  0.4219208E-02
 0.4883000E+00  0.4275356E-02
 0.4894000E+00  0.4307302E-02
 0.4905000E+00  0.4312790E-02
 0.4916000E+00  0.4289690E-02
 0.4927000E+00  0.4236038E-02
 0.4938000E+00  0.4150073E-02
 0.4949000E+00  0.4030277E-02
 0.4960000E+00  0.3875412E-02
 0.4971000E+00  0.3684554E-02
 0.4982000E+00  0.3457128E-02
 0.4993000E+00  0.3192932E-02
 0.5004000E+00  0.2892168E-02
 0.5015000E+00  0.2555454E-02
 0.5026000E+00  0.2183843E-02
 0.5037000E+00  0.1778830E-02
 0.5048000E+00  0.1342346E-02
 0.5059000E+00  0.8767614E-03
 0.5070000E+00  0.3848656E-03
 0.5081000E+00 -0.1301500E-03
 0.5092000E+00 -0.6647208E-03
 0.5103000E+00 -0.1214944E-02
 0.5114000E+00 -0.1776621E-02
 0.5125000E+00 -0.2345304E-02
 0.5136000E+00 -0.2916349E-02
 0.5147000E+00 -0.3484975E-02
 0.5158000E+00 -0.4046318E-02
 0.5169000E+00 -0.4595503E-02
 0.5180000E+00 -0.5127699E-02
 0.5191000E+00 -0.5638192E-02
 0.5202000E+00 -0.6122443E-02
 0.5213000E+00 -0.6576153E-02
 0.5224000E+00 -0.6995320E-02
 0.5235000E+00 -0.7376291E-02
 0.5246000E+00 -0.7715814E-02
 0.5257000E+00 -0.8011080E-02
 0.5268000E+00 -0.8259759E-02
 0.5279000E+00 -0.8460028E-02
 0.5290000E+00 -0.8610594E-02
 0.5301000E+00 -0.8710705E-02
 0.5312000E+00 -0.8760151E-02
 0.5323000E+00 -0.8759259E-02
 0.5334000E+00 -0.8708884E-02
 0.5345000E+00 -0.8610382E-02
 0.5356000E+00 -0.8465590E-02
 0.5367000E+00 -0.8276789E-02
 0.5378000E+00 -0.8046660E-02
 0.5389000E+00 -0.7778242E-02
 0.5400000E+00 -0.7474879E-02
 0.5411000E+00 -0.7140168E-02
 0.5422000E+00 -0.6777901E-02
 0.5433000E+00 -0.6392014E-02
 0.5444000E+00 -0.5986535E-02
 0.5455000E+00 -0.5565521E-02
 0.5466000E+00 -0.5133013E-02
 0.5477000E+00 -0.4692977E-02
 0.5488000E+00 -0.4249263E-02
 0.5499000E+00 -0.3805556E-02
 0.5510000E+00 -0.3365347E-02
 0.5521000E+00 -0.2931896E-02
 0.5532000E+00 -0.2508204E-02
 0.5543000E+00 -0.2096995E-02
 0.5554000E+00 -0.1700691E-02
 0.5565000E+00 -0.1321409E-02
 0.5576000E+00 -0.9609485E-03
 0.5587000E+00 -0.6207956E-03
 0.5598000E+00 -0.3021246E-03
 0.5609000E+00 -0.5808190E-05
 0.5620000E+00  0.2675721E-03
 0.5631000E+00  0.5177099E-03
 0.5642000E+00  0.7445566E-03
 0.5653000E+00  0.9483001E-03
 0.5664000E+00  0.1129342E-02
 0.5675000E+00  0.1288276E-02
 0.5686000E+00  0.1425859E-02
 0.5697000E+00  0.1542994E-02
 0.5708000E+00  0.1640699E-02
 0.5719000E+00  0.1720091E-02
 0.5730000E+00  0.1782356E-02
 0.5741000E+00  0.1828730E-02
 0.5752000E+00  0.1860478E-02
 0.5763000E+00  0.1878877E-02
 0.5774000E+00  0.1885197E-02
 0.5785000E+00  0.1880690E-02
 0.5796000E+00  0.1866577E-02
 0.5807000E+00  0.1844036E-02
 0.5818000E+00  0.1814191E-02
 0.5829000E+00  0.1778107E-02
 0.5840000E+00  0.1736780E-02
 0.5851000E+00  0.1691138E-02
 0.5862000E+00  0.1642038E-02
 0.5873000E+00  0.1590260E-02
 0.5884000E+00  0.1536516E-02
 0.5895000E+00  0.1481441E-02
 0.5906000E+00  0.1425599E-02
 0.5917000E+00  0.1369483E-02
 0.5928000E+00  0.1313523E-02
 0.5939000E+00  0.1258088E-02
 0.5950000E+00  0.1203493E-02
 0.5961000E+00  0.1150002E-02
 0.5972000E+00  0.1097833E-02
 0.5983000E+00  0.1047159E-02
 0.5994000E+00  0.9981130E-03
 0.6005000E+00  0.9507942E-03
 0.6016000E+00  0.9052707E-03
 0.6027000E+00  0.8615858E-03
 0.6038000E+00  0.8197615E-03
 0.6049000E+00  0.7798013E-03
 0.6060000E+00  0.7416917E-03
 0.6071000E+00  0.7054041E-03
 0.6082000E+00  0.6708971E-03
 0.6093000E+00  0.6381197E-03
 0.6104000E+00  0.6070143E-03
 0.6115000E+00  0.5775195E-03
 0.6126000E+00  0.5495712E-03
 0.6137000E+00  0.5231038E-03
 0.6148000E+00  0.4980500E-03
 0.6159000E+00  0.4743418E-03
 0.6170000E+00  0.4519103E-03
 0.6181000E+00  0.4306860E-03
 0.6192000E+00  0.4105990E-03
 0.6203000E+00  0.3915783E-03
 0.6214000E+00  0.3735523E-03
 0.6225000E+00  0.3564488E-03
 0.6236000E+00  0.3401957E-03
 0.6247000E+00  0.3247217E-03
 0.6258000E+00  0.3099564E-03
 0.6269000E+00  0.2958293E-03
 0.6280000E+00  0.2822689E-03
 0.6291000E+00  0.2692008E-03
 0.6302000E+00  0.2565476E-03
 0.6313000E+00  0.2442290E-03
 0.6324000E+00  0.2321628E-03
 0.6335000E+00  0.2202646E-03
 0.6346000E+00  0.2084473E-03
 0.6357000E+00  0.1966186E-03
 0.6368000E+00  0.1846783E-03
 0.6379000E+00  0.1725168E-03
 0.6390000E+00  0.1600151E-03
 0.6401000E+00  0.1470456E-03
 0.6412000E+00  0.1334735E-03
 0.6423000E+00  0.1191571E-03
 0.6434000E+00  0.1039469E-03
 0.6445000E+00  0.8768334E-04
 0.6456000E+00  0.7019601E-04
 0.6467000E+00  0.5130317E-04
 0.6478000E+00  0.3081345E-04
 0.6489000E+00  0.8527843E-05
 0.6500000E+00 -0.1575912E-04
 0.6511000E+00 -0.4225949E-04
 0.6522000E+00 -0.7119312E-04
 0.6533000E+00 -0.1027885E-03
 0.6544000E+00 -0.1372821E-03
 0.6555000E+00 -0.1749149E-03
 0.6566000E+00 -0.2159279E-03
 0.6577000E+00 -0.2605567E-03
 0.6588000E+00 -0.3090280E-03
 0.6599000E+00 -0.3615560E-03
 0.6610000E+00 -0.4183404E-03
 0.6621000E+00 -0.4795638E-03
 0.6632000E+00 -0.5453859E-03
 0.6643000E+00 -0.6159386E-03
 0.6654000E+00 -0.6913193E-03
 0.6665000E+00 -0.7715852E-03
 0.6676000E+00 -0.8567496E-03
 0.6687000E+00 -0.9467783E-03
 0.6698000E+00 -0.1041586E-02
 0.6709000E+00 -0.1141032E-02
 0.6720000E+00 -0.1244915E-02
 0.6731000E+00 -0.1352965E-02
 0.6742000E+00 -0.1464844E-02
 0.6753000E+00 -0.1580137E-02
 0.6764000E+00 -0.1698357E-02
 0.6775000E+00 -0.1818938E-02
 0.6786000E+00 -0.1941241E-02
 0.6797000E+00 -0.2064551E-02
 0.6808000E+00 -0.2188084E-02
 0.6819000E+00 -0.2310985E-02
 0.6830000E+00 -0.2432343E-02
 0.6841000E+00 -0.2551194E-02
 0.6852000E+00 -0.2666530E-02
 0.6863000E+00 -0.2777311E-02
 0.6874000E+00 -0.2882471E-02
 0.6885000E+00 -0.2980930E-02
 0.6896000E+00 -0.3071602E-02
 0.6907000E+00 -0.3153412E-02
 0.6918000E+00 -0.3225310E-02
 0.6929000E+00 -0.3286287E-02
 0.6940000E+00 -0.3335385E-02
 0.6951000E+00 -0.3371710E-02
 0.6962000E+00 -0.3394447E-02
 0.6973000E+00 -0.3402865E-02
 0.6984000E+00 -0.3396329E-02
 0.6995000E+00 -0.3374317E-02
 0.7006000E+00 -0.3336427E-02
 0.7017000E+00 -0.3282384E-02
 0.7028000E+00 -0.3212048E-02
 0.7039000E+00 -0.3125411E-02
 0.7050000E+00 -0.3022596E-02
 0.7061000E+00 -0.2903856E-02
 0.7072000E+00 -0.2769571E-02
 0.7083000E+00 -0.2620247E-02
 0.7094000E+00 -0.2456510E-02
 0.7105000E+00 -0.2279098E-02
 0.7116000E+00 -0.2088852E-02
 0.7127000E+00 -0.1886699E-02
 0.7138000E+00 -0.1673647E-02
 0.7149000E+00 -0.1450770E-02
 0.7160000E+00 -0.1219202E-02
 0.7171000E+00 -0.9801234E-03
 0.7182000E+00 -0.7347529E-03
 0.7193000E+00 -0.4843332E-03
 0.7204000E+00 -0.2301188E-03
 0.7215000E+00  0.2663451E-04
 0.7226000E+00  0.2846772E-03
 0.7237000E+00  0.5427724E-03
 0.7248000E+00  0.7997005E-03
 0.7259000E+00  0.1054266E-02
 0.7270000E+00  0.1305304E-02
 0.7281000E+00  0.1551684E-02
 0.7292000E+00  0.1792312E-02
 0.7303000E+00  0.2026132E-02
 0.7314000E+00  0.2252120E-02
 0.7325000E+00  0.2469285E-02
 0.7336000E+00  0.2676664E-02
 0.7347000E+00  0.2873323E-02
 0.7358000E+00  0.3058363E-02
 0.7369000E+00  0.3230917E-02
 0.7380000E+00  0.3390152E-02
 0.7391000E+00  0.3535272E-02
 0.7402000E+00  0.3665511E-02
 0.7413000E+00  0.3780145E-02
 0.7424000E+00  0.3878485E-02
 0.7435000E+00  0.3959890E-02
 0.7446000E+00  0.4023774E-02
 0.7457000E+00  0.4069603E-02
 0.7468000E+00  0.4096909E-02
 0.7479000E+00  0.4105293E-02
 0.7490000E+00  0.4094428E-02
 0.7501000E+00  0.4064072E-02
 0.7512000E+00  0.4014075E-02
 0.7523000E+00  0.3944390E-02
 0.7534000E+00  0.3855081E-02
 0.7545000E+00  0.3746325E-02
 0.7556000E+00  0.3618421E-02
 0.7567000E+00  0.3471793E-02
 0.7578000E+00  0.3306998E-02
 0.7589000E+00  0.3124727E-02
 0.7600000E+00  0.2925819E-02
 0.7611000E+00  0.2711250E-02
 0.7622000E+00  0.2482144E-02
 0.7633000E+00  0.2239758E-02
 0.7644000E+00  0.1985483E-02
 0.7655000E+00  0.1720838E-02
 0.7666000E+00  0.1447467E-02
 0.7677000E+00  0.1167140E-02
 0.7688000E+00  0.8817386E-03
 0.7699000E+00  0.5932545E-03
 0.7710000E+00  0.3037752E-03
 0.7721000E+00  0.1547053E-04
 0.7732000E+00 -0.2694187E-03
 0.7743000E+00 -0.5485925E-03
 0.7754000E+00 -0.8197040E-03
 0.7765000E+00 -0.1080373E-02
 0.7776000E+00 -0.1328204E-02
 0.7787000E+00 -0.1560804E-02
 0.7798000E+00 -0.1775804E-02
 0.7809000E+00 -0.1970875E-02
 0.7820000E+00 -0.2143755E-02
 0.7831000E+00 -0.2292261E-02
 0.7842000E+00 -0.2414316E-02
 0.7853000E+00 -0.2507973E-02
 0.7864000E+00 -0.2571440E-02
 0.7875000E+00 -0.2603107E-02
 0.7886000E+00 -0.2601573E-02
 0.7897000E+00 -0.2565665E-02
 0.7908000E+00 -0.2494463E-02
 0.7919000E+00 -0.2387323E-02
 0.7930000E+00 -0.2243899E-02
 0.7941000E+00 -0.2064168E-02
 0.7952000E+00 -0.1848451E-02
 0.7963000E+00 -0.1597434E-02
 0.7974000E+00 -0.1312179E-02
 0.7985000E+00 -0.9941322E-03
 0.7996000E+00 -0.6451301E-03
 0.8007000E+00 -0.2673986E-03
 0.8018000E+00  0.1364491E-03
 0.8029000E+00  0.5634201E-03
 0.8040000E+00  0.1010157E-02
 0.8051000E+00  0.1472961E-02
 0.8062000E+00  0.1947821E-02
 0.8073000E+00  0.2430453E-02
 0.8084000E+00  0.2916342E-02
 0.8095000E+00  0.3400785E-02
 0.8106000E+00  0.3878945E-02
 0.8117000E+00  0.4345909E-02
 0.8128000E+00  0.4796744E-02
 0.8139000E+00  0.5226569E-02
 0.8150000E+00  0.5630622E-02
 0.8161000E+00  0.6004336E-02
 0.8172000E+00  0.6343411E-02
 0.8183000E+00  0.6643885E-02
 0.8194000E+00  0.6902209E-02
 0.8205000E+00  0.7115314E-02
 0.8216000E+00  0.7280687E-02
 0.8227000E+00  0.7396428E-02
 0.8238000E+00  0.7461312E-02
 0.8249000E+00  0.7474835E-02
 0.8260000E+00  0.7437261E-02
 0.8271000E+00  0.7349651E-02
 0.8282000E+00  0.7213898E-02
 0.8293000E+00  0.7032735E-02
 0.8304000E+00  0.6809752E-02
 0.8315000E+00  0.6549383E-02
 0.8326000E+00  0.6256897E-02
 0.8337000E+00  0.5938368E-02
 0.8348000E+00  0.5600632E-02
 0.8359000E+00  0.5251240E-02
 0.8370000E+00  0.4898391E-02
 0.8381000E+00  0.4550859E-02
 0.8392000E+00  0.4217905E-02
 0.8403000E+00  0.3909182E-02
 0.8414000E+00  0.3634624E-02
 0.8425000E+00  0.3404330E-02
 0.8436000E+00  0.3228442E-02
 0.8447000E+00  0.3117006E-02
 0.8458000E+00  0.3079836E-02
 0.8469000E+00  0.3126361E-02
 0.8480000E+00  0.3265473E-02
 0.8491000E+00  0.3505372E-02
 0.8502000E+00  0.3853410E-02
 0.8513000E+00  0.4315936E-02
 0.8524000E+00  0.4898146E-02
 0.8535000E+00  0.5603938E-02
 0.8546000E+00  0.6435769E-02
 0.8557000E+00  0.7394527E-02
 0.8568000E+00  0.8479413E-02
 0.8579000E+00  0.9687845E-02
 0.8590000E+00  0.1101538E-01
 0.8601000E+00  0.1245563E-01
 0.8612000E+00  0.1400028E-01
 0.8623000E+00  0.1563901E-01
 0.8634000E+00  0.1735954E-01
 0.8645000E+00  0.1914768E-01
 0.8656000E+00  0.2098737E-01
 0.8667000E+00  0.2286085E-01
 0.8678000E+00  0.2474873E-01
 0.8689000E+00  0.2663021E-01
 0.8700000E+00  0.2848328E-01
 0.8711000E+00  0.3028492E-01
 0.8722000E+00  0.3201141E-01
 0.8733000E+00  0.3363856E-01
 0.8744000E+00  0.3514209E-01
 0.8755000E+00  0.3649789E-01
 0.8766000E+00  0.3768240E-01
 0.8777000E+00  0.3867293E-01
 0.8788000E+00  0.3944804E-01
 0.8799000E+00  0.3998784E-01
 0.8810000E+00  0.4027434E-01
 0.8821000E+00  0.4029180E-01
 0.8832000E+00  0.4002701E-01
 0.8843000E+00  0.3946954E-01
 0.8854000E+00  0.3861202E-01
 0.8865000E+00  0.3745030E-01
 0.8876000E+00  0.3598360E-01
 0.8887000E+00  0.3421460E-01
 0.8898000E+00  0.3214953E-01
 0.8909000E+00  0.2979813E-01
 0.8920000E+00  0.2717366E-01
 0.8931000E+00  0.2429271E-01
 0.8942000E+00  0.2117510E-01
 0.8953000E+00  0.1784361E-01
 0.8964000E+00  0.1432376E-01
 0.8975000E+00  0.1064347E-01
 0.8986000E+00  0.6832727E-02
 0.8997000E+00  0.2923218E-02
 0.9008000E+00 -0.1052097E-02
 0.9019000E+00 -0.5059413E-02
 0.9030000E+00 -0.9064530E-02
 0.9041000E+00 -0.1303330E-01
 0.9052000E+00 -0.1693209E-01
 0.9063000E+00 -0.2072817E-01
 0.9074000E+00 -0.2439016E-01
 0.9085000E+00 -0.2788842E-01
 0.9096000E+00 -0.3119542E-01
 0.9107000E+00 -0.3428604E-01
 0.9118000E+00 -0.3713788E-01
 0.9129000E+00 -0.3973152E-01
 0.9140000E+00 -0.4205063E-01
 0.9151000E+00 -0.4408216E-01
 0.9162000E+00 -0.4581645E-01
 0.9173000E+00 -0.4724718E-01
 0.9184000E+00 -0.4837143E-01
 0.9195000E+00 -0.4918959E-01
 0.9206000E+00 -0.4970524E-01
 0.9217000E+00 -0.4992498E-01
 0.9228000E+00 -0.4985825E-01
 0.9239000E+00 -0.4951707E-01
 0.9250000E+00 -0.4891577E-01
 0.9261000E+00 -0.4807075E-01
 0.9272000E+00 -0.4700017E-01
 0.9283000E+00 -0.4572362E-01
 0.9294000E+00 -0.4426180E-01
 0.9305000E+00 -0.4263625E-01
 0.9316000E+00 -0.4086898E-01
 0.9327000E+00 -0.3898219E-01
 0.9338000E+00 -0.3699803E-01
 0.9349000E+00 -0.3493826E-01
 0.9360000E+00 -0.3282407E-01
 0.9371000E+00 -0.3067583E-01
 0.9382000E+00 -0.2851288E-01
 0.9393000E+00 -0.2635340E-01
 0.9404000E+00 -0.2421425E-01
 0.9415000E+00 -0.2211088E-01
 0.9426000E+00 -0.2005726E-01
 0.9437000E+00 -0.1806582E-01
 0.9448000E+00 -0.1614743E-01
 0.9459000E+00 -0.1431140E-01
 0.9470000E+00 -0.1256547E-01
 0.9481000E+00 -0.1091592E-01
 0.9492000E+00 -0.9367576E-02
 0.9503000E+00 -0.7923890E-02
 0.9514000E+00 -0.6587041E-02
 0.9525000E+00 -0.5358004E-02
 0.9536000E+00 -0.4236652E-02
 0.9547000E+00 -0.3221855E-02
 0.9558000E+00 -0.2311598E-02
 0.9569000E+00 -0.1503084E-02
 0.9580000E+00 -0.7928411E-03
 0.9591000E+00 -0.1768221E-03
 0.9602000E+00  0.3495127E-03
 0.9613000E+00  0.7911085E-03
 0.9624000E+00  0.1153234E-02
 0.9635000E+00  0.1441398E-02
 0.9646000E+00  0.1661273E-02
 0.9657000E+00  0.1818621E-02
 0.9668000E+00  0.1919240E-02
 0.9679000E+00  0.1968915E-02
 0.9690000E+00  0.1973378E-02
 0.9701000E+00  0.1938264E-02
 0.9712000E+00  0.1869080E-02
 0.9723000E+00  0.1771156E-02
 0.9734000E+00  0.1649611E-02
 0.9745000E+00  0.1509325E-02
 0.9756000E+00  0.1354919E-02
 0.9767000E+00  0.1190746E-02
 0.9778000E+00  0.1020883E-02
 0.9789000E+00  0.8491246E-03