 -0.12000000000000000          0.0000000000000000     
 -0.11889999999999999          0.0000000000000000     
 -0.11780000000000000          0.0000000000000000     
 -0.11670000000000000          0.0000000000000000     
 -0.11559999999999999          0.0000000000000000     
 -0.11449999999999999          0.0000000000000000     
 -0.11340000000000000          0.0000000000000000     
 -0.11230000000000000          0.0000000000000000     
 -0.11119999999999999          0.0000000000000000     
 -0.11009999999999999          0.0000000000000000     
 -0.10900000000000000          0.0000000000000000     
 -0.10790000000000000         -1.2721766595838380E-036
 -0.10679999999999999         -9.1907974388463520E-035
 -0.10569999999999999          1.6765728570442745E-033
 -0.10460000000000000          4.1927754052096258E-032
 -0.10349999999999999          3.8046366348112549E-031
 -0.10239999999999999          2.0106270635254896E-030
 -0.10130000000000000          6.5664777905452995E-030
 -0.10020000000000000          9.7236908243795516E-030
  -9.9099999999999994E-002    -2.7530085229710735E-029
  -9.7999999999999990E-002    -2.4305645510577514E-028
  -9.6899999999999986E-002    -9.1261932985717579E-028
  -9.5799999999999996E-002    -2.1692914238772973E-027
  -9.4699999999999993E-002    -2.7599688461563250E-027
  -9.3599999999999989E-002     2.7010891181198407E-027
  -9.2499999999999999E-002     2.6542795755472366E-026
  -9.1399999999999995E-002     8.4032300503708391E-026
  -9.0299999999999991E-002     1.6816039835747892E-025
  -8.9200000000000002E-002     1.8912600968565435E-025
  -8.8099999999999984E-002    -1.0606503244317537E-025
  -8.6999999999999994E-002    -1.1381846199640483E-024
  -8.5899999999999990E-002    -3.2140722891304044E-024
  -8.4799999999999986E-002    -5.7112586900214077E-024
  -8.3699999999999997E-002    -5.7569436725252291E-024
  -8.2599999999999993E-002     2.7366713050611118E-024
  -8.1499999999999989E-002     2.7507285003317648E-023
  -8.0399999999999999E-002     7.0794455407273285E-023
  -7.9299999999999995E-002     1.1510114593103773E-022
  -7.8199999999999992E-002     1.0667642772349551E-022
  -7.7100000000000002E-002    -4.7046131034876936E-023
  -7.5999999999999984E-002    -4.3860839347768293E-022
  -7.4899999999999994E-002    -1.0552539373783898E-021
  -7.3799999999999991E-002    -1.6164873115962137E-021
  -7.2699999999999987E-002    -1.4398057981463967E-021
  -7.1599999999999997E-002     4.8294183726020421E-022
  -7.0499999999999993E-002     4.9687934316784798E-021
  -6.9399999999999989E-002     1.1573475598858934E-020
  -6.8300000000000000E-002     1.7235078028899520E-020
  -6.7199999999999996E-002     1.5513990777903926E-020
  -6.6099999999999992E-002    -2.1208562120805365E-021
  -6.5000000000000002E-002    -4.1557118183995219E-020
  -6.3899999999999985E-002    -9.7781131864320776E-020
  -6.2799999999999995E-002    -1.4591632082220431E-019
  -6.1699999999999991E-002    -1.3810218258611142E-019
  -6.0599999999999994E-002    -1.5129391595362694E-020
  -5.9499999999999990E-002     2.6052291704179352E-019
  -5.8399999999999994E-002     6.5333374078790047E-019
  -5.7299999999999990E-002     1.0050627369134546E-018
  -5.6199999999999986E-002     1.0248018831322721E-018
  -5.5099999999999996E-002     3.6373073715721360E-019
  -5.3999999999999992E-002    -1.1995629178915212E-018
  -5.2899999999999989E-002    -3.4913751666569308E-018
  -5.1799999999999985E-002    -5.7015625871947745E-018
  -5.0699999999999995E-002    -6.3510573739605215E-018
  -4.9599999999999991E-002    -3.6624458514238915E-018
  -4.8499999999999988E-002     3.5778897471534509E-018
  -4.7399999999999998E-002     1.4820545957494832E-017
  -4.6299999999999994E-002     2.6697101419910090E-017
  -4.5199999999999990E-002     3.2851310719102630E-017
  -4.4099999999999986E-002     2.5397926628060009E-017
  -4.2999999999999997E-002    -1.6982894011213324E-018
  -4.1899999999999993E-002    -4.7946613423889895E-017
  -4.0799999999999989E-002    -1.0212564784065255E-016
  -3.9699999999999985E-002    -1.4117562679131508E-016
  -3.8599999999999995E-002    -1.3472786685655708E-016
  -3.7499999999999992E-002    -5.6285221055636157E-017
  -3.6399999999999988E-002     1.0087385581684007E-016
  -3.5299999999999984E-002     3.0854089660656095E-016
  -3.4199999999999994E-002     4.9724395111917841E-016
  -3.3099999999999991E-002     5.6662867322809736E-016
  -3.1999999999999987E-002     4.1622653196722691E-016
  -3.0899999999999997E-002    -7.7848806187406935E-018
  -2.9799999999999993E-002    -6.6392377543250321E-016
  -2.8699999999999989E-002    -1.3863236754456951E-015
  -2.7599999999999986E-002    -1.8973001943143350E-015
  -2.6499999999999996E-002    -1.8744433874801869E-015
  -2.5399999999999992E-002    -1.0665312107073666E-015
  -2.4299999999999988E-002     5.7062370871643349E-016
  -2.3199999999999985E-002     2.7666430327250823E-015
  -2.2099999999999995E-002     4.9117219071063514E-015
  -2.0999999999999991E-002     6.1549883932673764E-015
  -1.9899999999999987E-002     5.6325836633839907E-015
  -1.8799999999999983E-002     2.7851800881382331E-015
  -1.7699999999999994E-002    -2.3207011963062170E-015
  -1.6599999999999990E-002    -8.7805864528567288E-015
  -1.5499999999999986E-002    -1.4858143758597897E-014
  -1.4399999999999996E-002    -1.8277616441322496E-014
  -1.3299999999999992E-002    -1.6798161893464415E-014
  -1.2199999999999989E-002    -8.9759860557411404E-015
  -1.1099999999999985E-002     5.0655005326692953E-015
  -9.9999999999999950E-003     2.3095830540595205E-014
  -8.8999999999999913E-003     4.0715767075564539E-014
  -7.7999999999999875E-003     5.1964808806776232E-014
  -6.6999999999999837E-003     5.0656706835436896E-014
  -5.5999999999999939E-003     3.2299836273909353E-014
  -4.4999999999999901E-003    -3.7837976148069367E-015
  -3.3999999999999864E-003    -5.2752787747546328E-014
  -2.2999999999999826E-003    -1.0368732849177345E-013
  -1.1999999999999927E-003    -1.4083208246866490E-013
  -9.9999999999988987E-005    -1.4694766268726064E-013
   1.0000000000000148E-003    -1.0846230355491558E-013
   2.1000000000000185E-003    -2.1348099343244260E-014
   3.2000000000000084E-003     1.0404161177523769E-013
   4.3000000000000121E-003     2.4124344329693283E-013
   5.4000000000000159E-003     3.5078627638768841E-013
   6.5000000000000058E-003     3.8873417884416406E-013
   7.6000000000000234E-003     3.1955233278653966E-013
   8.7000000000000133E-003     1.3029097289226262E-013
   9.8000000000000032E-003    -1.5830758894060913E-013
   1.0900000000000021E-002    -4.8839973139172694E-013
   1.2000000000000011E-002    -7.7260542035057283E-013
   1.3100000000000001E-002    -9.1299001278207741E-013
   1.4200000000000018E-002    -8.2823543868640733E-013
   1.5300000000000008E-002    -4.8236626274357173E-013
   1.6400000000000026E-002     9.3528577487876546E-014
   1.7500000000000016E-002     7.9466217614515321E-013
   1.8600000000000005E-002     1.4559866295640448E-012
   1.9700000000000023E-002     1.8855709250305246E-012
   2.0800000000000013E-002     1.9120072911127660E-012
   2.1900000000000003E-002     1.4351368382213601E-012
   2.3000000000000020E-002     4.6702525797734100E-013
   2.4100000000000010E-002    -8.4901508460833667E-013
   2.5200000000000000E-002    -2.2495624892628622E-012
   2.6300000000000018E-002    -3.3943319377165937E-012
   2.7400000000000008E-002    -3.9362728522375043E-012
   2.8500000000000025E-002    -3.6065164070993239E-012
   2.9600000000000015E-002    -2.2970330314185169E-012
   3.0700000000000005E-002    -1.2131298010422371E-013
   3.1800000000000023E-002     2.5658206953665333E-012
   3.2900000000000013E-002     5.2033015505193854E-012
   3.4000000000000002E-002     7.1185107386132887E-012
   3.5100000000000020E-002     7.6728553860766551E-012
   3.6200000000000010E-002     6.4338061787950286E-012
   3.7300000000000028E-002     3.3345622871745190E-012
   3.8400000000000017E-002    -1.2255518787383536E-012
   3.9500000000000007E-002    -6.3834435883843871E-012
   4.0600000000000025E-002    -1.0942818651673470E-011
   4.1700000000000015E-002    -1.3626800254458358E-011
   4.2800000000000005E-002    -1.3407692915653837E-011
   4.3900000000000022E-002    -9.8343278995093047E-012
   4.5000000000000012E-002    -3.2599162516139396E-012
   4.6100000000000002E-002     5.1165968053569614E-012
   4.7200000000000020E-002     1.3442068147831691E-011
   4.8300000000000010E-002     1.9616194803121870E-011
   4.9400000000000027E-002     2.1827041193953951E-011
   5.0500000000000017E-002     1.9075163033843096E-011
   5.1600000000000007E-002     1.1531000005571462E-011
   5.2700000000000025E-002     6.0262622258830693E-013
   5.3800000000000014E-002    -1.1333576438534115E-011
   5.4900000000000004E-002    -2.1488785420383370E-011
   5.6000000000000022E-002    -2.7363666737571946E-011
   5.7100000000000012E-002    -2.7404230308655543E-011
   5.8200000000000002E-002    -2.1425327246385947E-011
   5.9300000000000019E-002    -1.0679180402469295E-011
   6.0400000000000009E-002     2.4513799698617968E-012
   6.1500000000000027E-002     1.5047515758529839E-011
   6.2600000000000017E-002     2.4370408538769453E-011
   6.3700000000000007E-002     2.8506228368904941E-011
   6.4800000000000024E-002     2.6779145239152085E-011
   6.5900000000000014E-002     1.9845857805678279E-011
   6.7000000000000004E-002     9.4744378776121598E-012
   6.8100000000000022E-002    -1.9142624383598306E-012
   6.9200000000000012E-002    -1.1821684433320682E-011
   7.0300000000000029E-002    -1.8235455198751784E-011
   7.1400000000000019E-002    -2.0073210303326006E-011
   7.2500000000000009E-002    -1.7426310894225347E-011
   7.3600000000000027E-002    -1.1551911861746874E-011
   7.4700000000000016E-002    -4.5906410277404184E-012
   7.5800000000000006E-002     9.7369511906419453E-013
   7.6900000000000024E-002     3.0370348521652293E-012
   7.8000000000000014E-002     6.2925755872930394E-013
   7.9100000000000004E-002    -5.5216224620291515E-012
   8.0200000000000021E-002    -1.2861144051193954E-011
   8.1300000000000011E-002    -1.7501172213192434E-011
   8.2400000000000029E-002    -1.5356360047672385E-011
   8.3500000000000019E-002    -3.7082447919002320E-012
   8.4600000000000009E-002     1.7259900263984060E-011
   8.5700000000000026E-002     4.3554528241111481E-011
   8.6800000000000016E-002     6.7631525428608105E-011
   8.7900000000000006E-002     8.0076180066861152E-011
   8.9000000000000024E-002     7.2479481138445047E-011
   9.0100000000000013E-002     4.0766133362563398E-011
   9.1200000000000003E-002    -1.2139246374555033E-011
   9.2300000000000021E-002    -7.5453834196388392E-011
   9.3400000000000011E-002    -1.3223723617290084E-010
   9.4500000000000028E-002    -1.6363579976369088E-010
   9.5600000000000018E-002    -1.5473232079650197E-010
   9.6700000000000008E-002    -1.0029799186691056E-010
   9.7800000000000026E-002    -8.4500819584737975E-012
   9.8900000000000016E-002     9.9415131371703255E-011
  0.10000000000000001          1.9304557992456553E-010
  0.10110000000000002          2.4137378441580304E-010
  0.10220000000000001          2.2212415082203171E-010
  0.10330000000000003          1.3014592121805621E-010
  0.10440000000000002         -1.8315336264702026E-011
  0.10550000000000001         -1.8723046343338117E-010
  0.10660000000000003         -3.2847687653911808E-010
  0.10770000000000002         -3.9398490869746161E-010
  0.10880000000000001         -3.4928736913322040E-010
  0.10990000000000003         -1.8482702932878411E-010
  0.11100000000000002          7.8182578321051915E-011
  0.11210000000000001          3.8920735843785594E-010
  0.11320000000000002          6.7718508343419791E-010
  0.11430000000000001          8.6489670579868691E-010
  0.11540000000000003          8.8587035177791334E-010
  0.11650000000000002          7.0026782950731774E-010
  0.11760000000000001          3.0649589395963575E-010
  0.11870000000000003         -2.5383278109028517E-010
  0.11980000000000002         -8.9877017877152943E-010
  0.12090000000000001         -1.5166644774058879E-009
  0.12200000000000003         -1.9833055899599019E-009
  0.12310000000000001         -2.1832733300331292E-009
  0.12420000000000003         -2.0322502178117442E-009
  0.12530000000000002         -1.4963764888619875E-009
  0.12640000000000001         -6.0453465363814632E-010
  0.12750000000000003          5.4994811672583400E-010
  0.12860000000000002          1.8200618409469017E-009
  0.12970000000000001          3.0276401856275786E-009
  0.13080000000000003          3.9938810793903618E-009
  0.13190000000000002          4.5713918284628076E-009
  0.13300000000000001          4.6699701682121168E-009
  0.13410000000000000          4.2691723853900874E-009
  0.13520000000000004          3.4139164159407537E-009
  0.13630000000000003          2.1942799491012215E-009
  0.13740000000000002          7.1586126347039891E-010
  0.13850000000000001         -9.2917229087998604E-010
  0.13960000000000000         -2.6795024686574174E-009
  0.14070000000000005         -4.5026625454401303E-009
  0.14180000000000004         -6.3718708940248792E-009
  0.14290000000000003         -8.2274776244613055E-009
  0.14400000000000002         -9.9352266078491288E-009
  0.14510000000000001         -1.1256623329404850E-008
  0.14620000000000000         -1.1844955772381720E-008
  0.14730000000000004         -1.1274271739558883E-008
  0.14840000000000003         -9.0996675903139718E-009
  0.14950000000000002         -4.9383820091348122E-009
  0.15060000000000001          1.4445219739340244E-009
  0.15170000000000000          1.0062801929950301E-008
  0.15280000000000005          2.0660229438588725E-008
  0.15390000000000004          3.2690097713457649E-008
  0.15500000000000003          4.5317336749394430E-008
  0.15610000000000002          5.7430113496221724E-008
  0.15720000000000001          6.7644928035675941E-008
  0.15830000000000000          7.4290746677827891E-008
  0.15940000000000004          7.5364280473733956E-008
  0.16050000000000003          6.8454834698710325E-008
  0.16160000000000002          5.0644285866530661E-008
  0.16270000000000001          1.8389933076380888E-008
  0.16380000000000000         -3.2603584531052288E-008
  0.16490000000000005         -1.0752115144796504E-007
  0.16600000000000004         -2.1258853472238538E-007
  0.16710000000000003         -3.5524933854174214E-007
  0.16820000000000002         -5.4438611029914889E-007
  0.16930000000000001         -7.9060554946807592E-007
  0.17040000000000000         -1.1066121360401552E-006
  0.17150000000000004         -1.5076939136670476E-006
  0.17260000000000003         -2.0123442036836311E-006
  0.17370000000000002         -2.6430443335985513E-006
  0.17480000000000001         -3.4272279154621286E-006
  0.17590000000000000         -4.3984396388925458E-006
  0.17700000000000005         -5.5976987962466815E-006
  0.17810000000000004         -7.0750719209288919E-006
  0.17920000000000003         -8.8914411220170982E-006
  0.18030000000000002         -1.1120481702242132E-005
  0.18140000000000001         -1.3850846865159798E-005
  0.18250000000000000         -1.7188592486098688E-005
  0.18360000000000004         -2.1259896196660510E-005
  0.18470000000000003         -2.6214104738471660E-005
  0.18580000000000002         -3.2227246503432177E-005
  0.18690000000000001         -3.9506020551556385E-005
  0.18800000000000000         -4.8292377160949496E-005
  0.18910000000000005         -5.8868690295581607E-005
  0.19020000000000004         -7.1563483316904015E-005
  0.19130000000000003         -8.6757832132288215E-005
  0.19240000000000002         -1.0489214048671975E-004
  0.19350000000000001         -1.2647350295438953E-004
  0.19460000000000005         -1.5208344667162760E-004
  0.19570000000000004         -1.8238613843079711E-004
  0.19680000000000003         -2.1813683284022185E-004
  0.19790000000000002         -2.6019086413931326E-004
  0.19900000000000001         -3.0951283609539497E-004
  0.20010000000000000         -3.6718606191896743E-004
  0.20120000000000005         -4.3442215705285088E-004
  0.20230000000000004         -5.1257023801597299E-004
  0.20340000000000003         -6.0312592486655707E-004
  0.20450000000000002         -7.0773934080254220E-004
  0.20560000000000000         -8.2822216021452599E-004
  0.20670000000000005         -9.6655310693181452E-004
  0.20780000000000004         -1.1248815573025022E-003
  0.20890000000000003         -1.3055289386464173E-003
  0.21000000000000002         -1.5109873419811349E-003
  0.21110000000000001         -1.7439151810027921E-003
  0.21220000000000000         -2.0071293842814086E-003
  0.21330000000000005         -2.3035932090632082E-003
  0.21440000000000003         -2.6363996168257643E-003
  0.21550000000000002         -3.0087492503766680E-003
  0.21660000000000001         -3.4239238067933649E-003
  0.21770000000000000         -3.8852519948366524E-003
  0.21880000000000005         -4.3960714544259011E-003
  0.21990000000000004         -4.9596804488541363E-003
  0.22100000000000003         -5.5792860866574678E-003
  0.22210000000000002         -6.2579460279352638E-003
  0.22320000000000001         -6.9984993074737002E-003
  0.22430000000000000         -7.8034960108211704E-003
  0.22540000000000004         -8.6751186722355267E-003
  0.22650000000000003         -9.6150953264360767E-003
  0.22760000000000002         -1.0624615738582466E-002
  0.22870000000000001         -1.1704234854668389E-002
  0.22980000000000000         -1.2853782939846967E-002
  0.23090000000000005         -1.4072269144136023E-002
  0.23200000000000004         -1.5357789792608729E-002
  0.23310000000000003         -1.6707439317862321E-002
  0.23420000000000002         -1.8117221851623472E-002
  0.23530000000000001         -1.9581978966751703E-002
  0.23640000000000000         -2.1095321141278746E-002
  0.23750000000000004         -2.2649567582322241E-002
  0.23860000000000003         -2.4235708384895454E-002
  0.23970000000000002         -2.5843386888388560E-002
  0.24080000000000001         -2.7460888563039330E-002
  0.24190000000000000         -2.9075162592993985E-002
  0.24300000000000005         -3.0671865111350421E-002
  0.24410000000000004         -3.2235424824320583E-002
  0.24520000000000003         -3.3749132877261424E-002
  0.24630000000000002         -3.5195278536141593E-002
  0.24740000000000001         -3.6555286275087022E-002
  0.24850000000000005         -3.7809895727405521E-002
  0.24960000000000004         -3.8939362018812394E-002
  0.25070000000000003         -3.9923696690199247E-002
  0.25180000000000002         -4.0742904166769567E-002
  0.25290000000000001         -4.1377256511778253E-002
  0.25400000000000000         -4.1807592456949823E-002
  0.25510000000000005         -4.2015613900352446E-002
  0.25620000000000004         -4.1984193867734311E-002
  0.25730000000000003         -4.1697705049605779E-002
  0.25840000000000002         -4.1142315641167083E-002
  0.25950000000000001         -4.0306298380591847E-002
  0.26060000000000005         -3.9180313108263462E-002
  0.26170000000000004         -3.7757672546420332E-002
  0.26280000000000003         -3.6034594255752159E-002
  0.26390000000000002         -3.4010394611066815E-002
  0.26500000000000001         -3.1687664259931268E-002
  0.26610000000000000         -2.9072396354729472E-002
  0.26720000000000005         -2.6174068001972087E-002
  0.26830000000000004         -2.3005657947093919E-002
  0.26940000000000003         -1.9583622874202511E-002
  0.27050000000000002         -1.5927812652457768E-002
  0.27160000000000001         -1.2061323867864323E-002
  0.27270000000000005         -8.0103052753813866E-003
  0.27380000000000004         -3.8037051525227307E-003
  0.27490000000000003          5.2702974525306633E-004
  0.27600000000000002          4.9483053986839123E-003
  0.27710000000000001          9.4247735991480897E-003
  0.27820000000000000          1.3919763267464837E-002
  0.27930000000000005          1.8395740718800249E-002
  0.28040000000000004          2.2814791806896387E-002
  0.28150000000000003          2.7139122410847562E-002
  0.28260000000000002          3.1331558584269739E-002
  0.28370000000000001          3.5356043302360571E-002
  0.28480000000000005          3.9178116117212253E-002
  0.28590000000000004          4.2765380645475720E-002
  0.28700000000000003          4.6087925433117898E-002
  0.28810000000000002          4.9118720161085656E-002
  0.28920000000000001          5.1833969668761637E-002
  0.29030000000000000          5.4213406763896646E-002
  0.29140000000000005          5.6240523381287419E-002
  0.29250000000000004          5.7902762757610630E-002
  0.29360000000000003          5.9191641557865507E-002
  0.29470000000000002          6.0102787761256285E-002
  0.29580000000000001          6.0635948425600716E-002
  0.29690000000000005          6.0794895829916817E-002
  0.29800000000000004          6.0587304834013561E-002
  0.29910000000000003          6.0024539929369375E-002
  0.30020000000000002          5.9121431669608399E-002
  0.30130000000000001          5.7895975079581781E-002
  0.30240000000000000          5.6368995291157360E-002
  0.30350000000000005          5.4563796335507703E-002
  0.30460000000000004          5.2505765080882144E-002
  0.30570000000000003          5.0221972289239400E-002
  0.30680000000000002          4.7740755243676429E-002
  0.30790000000000001          4.5091294630418263E-002
  0.30900000000000005          4.2303204017932049E-002
  0.31010000000000004          3.9406116855691953E-002
  0.31120000000000003          3.6429314875439489E-002
  0.31230000000000002          3.3401367612044083E-002
  0.31340000000000001          3.0349800738570139E-002
  0.31450000000000006          2.7300816314455710E-002
  0.31560000000000005          2.4279035053327912E-002
  0.31670000000000004          2.1307278691913418E-002
  0.31780000000000003          1.8406397060653334E-002
  0.31890000000000002          1.5595125246851870E-002
  0.32000000000000001          1.2889989861270842E-002
  0.32110000000000005          1.0305251302058008E-002
  0.32220000000000004          7.8528861792756931E-003
  0.32330000000000003          5.5426081115230634E-003
  0.32440000000000002          3.3819194108137625E-003
  0.32550000000000001          1.3761942726740334E-003
  0.32660000000000006         -4.7121580491098517E-004
  0.32770000000000005         -2.1588550934832974E-003
  0.32880000000000004         -3.6870215407671832E-003
  0.32990000000000003         -5.0576105491517056E-003
  0.33100000000000002         -6.2739512297478291E-003
  0.33210000000000001         -7.3406347061625108E-003
  0.33320000000000005         -8.2633389350704640E-003
  0.33430000000000004         -9.0486523676942474E-003
  0.33540000000000003         -9.7039045575580841E-003
  0.33650000000000002         -1.0237000568234509E-002
  0.33760000000000001         -1.0656264434440081E-002
  0.33870000000000006         -1.0970293429349751E-002
  0.33980000000000005         -1.1187829336530224E-002
  0.34090000000000004         -1.1317635097363939E-002
  0.34200000000000003         -1.1368389174188014E-002
  0.34310000000000002         -1.1348591920831905E-002
  0.34420000000000001         -1.1266484422564099E-002
  0.34530000000000005         -1.1129980026880610E-002
  0.34640000000000004         -1.0946605371771738E-002
  0.34750000000000003         -1.0723460251279959E-002
  0.34860000000000002         -1.0467180170006833E-002
  0.34970000000000001         -1.0183917963461651E-002
  0.35080000000000006         -9.8793317970174224E-003
  0.35190000000000005         -9.5585795410905450E-003
  0.35300000000000004         -9.2263261679784332E-003
  0.35410000000000003         -8.8867512309383501E-003
  0.35520000000000002         -8.5435657683068152E-003
  0.35630000000000001         -8.2000281191395661E-003
  0.35740000000000005         -7.8589659750835650E-003
  0.35850000000000004         -7.5227978440856914E-003
  0.35960000000000003         -7.1935584998794573E-003
  0.36070000000000002         -6.8729264851095928E-003
  0.36180000000000001         -6.5622522115324306E-003
  0.36290000000000006         -6.2625889130295889E-003
  0.36400000000000005         -5.9747197141751720E-003
  0.36510000000000004         -5.6991869975627158E-003
  0.36620000000000003         -5.4363201405247920E-003
  0.36730000000000002         -5.1862589852736986E-003
  0.36840000000000006         -4.9489779213945416E-003
  0.36950000000000005         -4.7243075759758977E-003
  0.37060000000000004         -4.5119564943697467E-003
  0.37170000000000003         -4.3115330550332429E-003
  0.37280000000000002         -4.1225636087526725E-003
  0.37390000000000001         -3.9445133753590305E-003
  0.37500000000000006         -3.7768038951810296E-003
  0.37610000000000005         -3.6188296957967549E-003
  0.37720000000000004         -3.4699716209321478E-003
  0.37830000000000003         -3.3296096134498012E-003
  0.37940000000000002         -3.1971312705780441E-003
  0.38050000000000006         -3.0719417773291823E-003
  0.38160000000000005         -2.9534714431664294E-003
  0.38270000000000004         -2.8411826861518643E-003
  0.38380000000000003         -2.7345761200121255E-003
  0.38490000000000002         -2.6331961417629043E-003
  0.38600000000000001         -2.5366346879165465E-003
  0.38710000000000000         -2.4445340661451123E-003
  0.38819999999999999         -2.3565858447400102E-003
  0.38930000000000009         -2.2725297402958460E-003
  0.39040000000000008         -2.1921507739584086E-003
  0.39150000000000007         -2.1152747696405309E-003
  0.39260000000000006         -2.0417644404023909E-003
  0.39370000000000005         -1.9715148939562538E-003
  0.39480000000000004         -1.9044487863525768E-003
  0.39590000000000003         -1.8405127670115028E-003
  0.39700000000000002         -1.7796729748039137E-003
  0.39810000000000001         -1.7219105112765822E-003
  0.39920000000000000         -1.6672168486385431E-003
  0.40029999999999999         -1.6155896779654487E-003
  0.40140000000000009         -1.5670282894775774E-003
  0.40250000000000008         -1.5215295443976246E-003
  0.40360000000000007         -1.4790841576036162E-003
  0.40470000000000006         -1.4396740764210272E-003
  0.40580000000000005         -1.4032707961941892E-003
  0.40690000000000004         -1.3698352058195155E-003
  0.40800000000000003         -1.3393199680249857E-003
  0.40910000000000002         -1.3116728557522872E-003
  0.41020000000000001         -1.2868417772440150E-003
  0.41130000000000000         -1.2647796290051561E-003
  0.41239999999999999         -1.2454497288546921E-003
  0.41350000000000009         -1.2288286143996411E-003
  0.41460000000000008         -1.2149091973545413E-003
  0.41570000000000007         -1.2037023124602917E-003
  0.41680000000000006         -1.1952387543491922E-003
  0.41790000000000005         -1.1895728864890365E-003
  0.41900000000000004         -1.1867868054471339E-003
  0.42010000000000003         -1.1869960760456212E-003
  0.42120000000000002         -1.1903543327650727E-003
  0.42230000000000001         -1.1970563697349444E-003
  0.42340000000000000         -1.2073376863914890E-003
  0.42449999999999999         -1.2214701117179495E-003
  0.42560000000000009         -1.2397542784291153E-003
  0.42670000000000008         -1.2625095481259246E-003
  0.42780000000000007         -1.2900633014766851E-003
  0.42890000000000006         -1.3227410189273112E-003
  0.43000000000000005         -1.3608564982471455E-003
  0.43110000000000004         -1.4047027845965035E-003
  0.43220000000000003         -1.4545412368368804E-003
  0.43330000000000002         -1.5105896660382173E-003
  0.43440000000000001         -1.5730060567424428E-003
  0.43550000000000000         -1.6418708827216353E-003
  0.43659999999999999         -1.7171670927429500E-003
  0.43770000000000009         -1.7987603671256120E-003
  0.43880000000000008         -1.8863814526158592E-003
  0.43990000000000007         -1.9796110018296359E-003
  0.44100000000000006         -2.0778677528976788E-003
  0.44210000000000005         -2.1803996638563548E-003
  0.44320000000000004         -2.2862771070491206E-003
  0.44430000000000003         -2.3943893673836142E-003
  0.44540000000000002         -2.5034417667229372E-003
  0.44650000000000001         -2.6119542191334641E-003
  0.44760000000000000         -2.7182648290404719E-003
  0.44869999999999999         -2.8205339841595421E-003
  0.44980000000000009         -2.9167550337217412E-003
  0.45090000000000008         -3.0047685297031742E-003
  0.45200000000000007         -3.0822818272861086E-003
  0.45310000000000006         -3.1468958651066753E-003
  0.45420000000000005         -3.1961340837159402E-003
  0.45530000000000004         -3.2274772269906245E-003
  0.45640000000000003         -3.2383990936845938E-003
  0.45750000000000002         -3.2264040154352646E-003
  0.45860000000000001         -3.1890639412188991E-003
  0.45970000000000000         -3.1240564303509793E-003
  0.46079999999999999         -3.0292033733512777E-003
  0.46190000000000009         -2.9025112337054734E-003
  0.46300000000000008         -2.7422116048186184E-003
  0.46410000000000007         -2.5468042999241239E-003
  0.46520000000000006         -2.3150984032620533E-003
  0.46630000000000005         -2.0462521813619785E-003
  0.46740000000000004         -1.7398060193865551E-003
  0.46850000000000003         -1.3957107651586646E-003
  0.46960000000000002         -1.0143490839020490E-003
  0.47070000000000001         -5.9654871967023911E-004
  0.47180000000000000         -1.4359079862894217E-004
  0.47289999999999999          3.4278682307866385E-004
  0.47400000000000009          8.6039156909610646E-004
  0.47510000000000008          1.4065831744253757E-003
  0.47620000000000007          1.9782864349228158E-003
  0.47730000000000006          2.5720119320804279E-003
  0.47840000000000005          3.1838838300185246E-003