 -0.119999997         0.00000000    
 -0.119000003         0.00000000    
 -0.118000001         0.00000000    
 -0.116999999         0.00000000    
 -0.115999997         0.00000000    
 -0.115000002         0.00000000    
 -0.114000000         0.00000000    
 -0.112999998         0.00000000    
 -0.112000003         0.00000000    
 -0.111000001         0.00000000    
 -0.109999999         0.00000000    
 -0.108999997         0.00000000    
 -0.108000003         0.00000000    
 -0.107000001         0.00000000    
 -0.105999999         0.00000000    
 -0.104999997         0.00000000    
 -0.104000002         0.00000000    
 -0.103000000         0.00000000    
 -0.101999998         0.00000000    
 -0.101000004         0.00000000    
 -0.100000001         0.00000000    
  -9.89999995E-02     0.00000000    
  -9.79999974E-02     0.00000000    
  -9.70000029E-02     0.00000000    
  -9.60000008E-02     0.00000000    
  -9.49999988E-02     0.00000000    
  -9.39999968E-02     0.00000000    
  -9.30000022E-02     0.00000000    
  -9.20000002E-02     0.00000000    
  -9.09999982E-02     0.00000000    
  -9.00000036E-02     0.00000000    
  -8.90000015E-02     0.00000000    
  -8.79999995E-02     0.00000000    
  -8.69999975E-02     0.00000000    
  -8.60000029E-02     0.00000000    
  -8.50000009E-02     0.00000000    
  -8.39999989E-02     0.00000000    
  -8.29999968E-02     0.00000000    
  -8.20000023E-02     0.00000000    
  -8.10000002E-02     0.00000000    
  -7.99999982E-02     0.00000000    
  -7.90000036E-02     0.00000000    
  -7.80000016E-02    -0.00000000    
  -7.69999996E-02    -0.00000000    
  -7.59999976E-02    -0.00000000    
  -7.50000030E-02     0.00000000    
  -7.40000010E-02     2.54524847E-38
  -7.29999989E-02     6.07979347E-38
  -7.19999969E-02     1.15277022E-37
  -7.10000023E-02     1.55926011E-37
  -7.00000003E-02     3.34298666E-38
  -6.89999983E-02    -5.40511265E-37
  -6.80000037E-02    -1.77978483E-36
  -6.70000017E-02    -3.28664102E-36
  -6.59999996E-02    -3.22171404E-36
  -6.49999976E-02     2.26219310E-36
  -6.40000030E-02     1.77725921E-35
  -6.30000010E-02     4.34714083E-35
  -6.19999990E-02     6.49403117E-35
  -6.10000007E-02     4.21062076E-35
  -5.99999987E-02    -8.94200849E-35
  -5.90000004E-02    -3.81589940E-34
  -5.79999983E-02    -7.80868316E-34
  -5.70000000E-02    -9.90698282E-34
  -5.60000017E-02    -3.78373081E-34
  -5.49999997E-02     1.87976204E-33
  -5.40000014E-02     6.16532681E-33
  -5.29999994E-02     1.11889349E-32
  -5.20000011E-02     1.25551642E-32
  -5.09999990E-02     2.37999623E-33
  -5.00000007E-02    -2.79134123E-32
  -4.89999987E-02    -7.95626416E-32
  -4.80000004E-02    -1.33476972E-31
  -4.69999984E-02    -1.38104705E-31
  -4.60000001E-02    -1.16996372E-32
  -4.50000018E-02     3.22146648E-31
  -4.39999998E-02     8.52488910E-31
  -4.30000015E-02     1.36548019E-30
  -4.19999994E-02     1.35764576E-30
  -4.10000011E-02     9.74861504E-32
  -3.99999991E-02    -3.02260768E-30
  -3.90000008E-02    -7.77878515E-30
  -3.79999988E-02    -1.22185976E-29
  -3.70000005E-02    -1.21138857E-29
  -3.59999985E-02    -1.66790480E-30
  -3.50000001E-02     2.35845920E-29
  -3.40000018E-02     6.14559009E-29
  -3.29999998E-02     9.68579118E-29
  -3.20000015E-02     9.86005534E-29
  -3.09999995E-02     2.52793893E-29
  -2.99999993E-02    -1.54129260E-28
  -2.89999992E-02    -4.24630623E-28
  -2.80000009E-02    -6.85406352E-28
  -2.70000007E-02    -7.31479748E-28
  -2.60000005E-02    -2.93298980E-28
  -2.50000004E-02     8.34542519E-28
  -2.40000002E-02     2.57769372E-27
  -2.30000000E-02     4.34691941E-27
  -2.19999999E-02     4.93143222E-27
  -2.09999997E-02     2.72205969E-27
  -1.99999996E-02    -3.57150843E-27
  -1.89999994E-02    -1.37311733E-26
  -1.79999992E-02    -2.47336321E-26
  -1.70000009E-02    -3.01198310E-26
  -1.60000008E-02    -2.10601888E-26
  -1.49999997E-02     1.00565621E-26
  -1.40000004E-02     6.36063417E-26
  -1.30000003E-02     1.26037576E-25
  -1.20000001E-02     1.66195317E-25
  -1.09999999E-02     1.39560723E-25
  -9.99999978E-03     4.41515280E-27
  -8.99999961E-03    -2.50190909E-25
  -8.00000038E-03    -5.72167224E-25
  -7.00000022E-03    -8.25962611E-25
  -6.00000005E-03    -8.05749283E-25
  -4.99999989E-03    -3.00793625E-25
  -4.00000019E-03     7.85113175E-25
  -3.00000003E-03     2.28871583E-24
  -2.00000009E-03     3.68171995E-24
  -1.00000005E-03     4.09473557E-24
   0.00000000         2.55252019E-24
   1.00000005E-03    -1.55882701E-24
   2.00000009E-03    -7.88810024E-24
   3.00000003E-03    -1.46174506E-23
   4.00000019E-03    -1.84109927E-23
   4.99999989E-03    -1.51524781E-23
   6.00000005E-03    -1.61023629E-24
   7.00000022E-03     2.22414284E-23
   8.00000038E-03     5.10457124E-23
   8.99999961E-03     7.32776492E-23
   9.99999978E-03     7.31621852E-23
   1.09999999E-02     3.60267569E-23
   1.20000001E-02    -4.35069095E-23
   1.30000003E-02    -1.52918503E-22
   1.40000004E-02    -2.56892314E-22
   1.49999997E-02    -3.00850875E-22
   1.60000008E-02    -2.26208780E-22
   1.70000009E-02     3.28938846E-24
   1.79999992E-02     3.70650247E-22
   1.89999994E-02     7.82621407E-22
   1.99999996E-02     1.07027973E-21
   2.09999997E-02     1.02622307E-21
   2.19999999E-02     4.80907783E-22
   2.30000000E-02    -5.96673487E-22
   2.40000002E-02    -2.00830284E-21
   2.50000004E-02    -3.29369587E-21
   2.60000005E-02    -3.80136343E-21
   2.70000007E-02    -2.88453107E-21
   2.80000009E-02    -1.96606731E-22
   2.89999992E-02     3.99787618E-21
   2.99999993E-02     8.62988486E-21
   3.09999995E-02     1.18953556E-20
   3.20000015E-02     1.16851500E-20
   3.29999998E-02     6.35888028E-21
   3.40000018E-02    -4.31451632E-21
   3.50000001E-02    -1.83829873E-20
   3.59999985E-02    -3.15187544E-20
   3.70000005E-02    -3.77570694E-20
   3.79999988E-02    -3.12710041E-20
   3.90000008E-02    -8.88791189E-21
   3.99999991E-02     2.73929552E-20
   4.10000011E-02     6.89432164E-20
   4.19999994E-02     1.01176060E-19
   4.30000015E-02     1.06969601E-19
   4.39999998E-02     7.25794442E-20
   4.50000018E-02    -5.36407159E-21
   4.60000001E-02    -1.14195566E-19
   4.69999984E-02    -2.23734830E-19
   4.80000004E-02    -2.91251431E-19
   4.89999987E-02    -2.73408577E-19
   5.00000007E-02    -1.43113167E-19
   5.09999990E-02     9.35566993E-20
   5.20000011E-02     3.87019481E-19
   5.29999994E-02     6.46982315E-19
   5.40000014E-02     7.62096284E-19
   5.49999997E-02     6.34943786E-19
   5.60000017E-02     2.24291600E-19
   5.70000000E-02    -4.19117967E-19
   5.79999983E-02    -1.13923574E-18
   5.90000004E-02    -1.69667441E-18
   5.99999987E-02    -1.82964286E-18
   6.10000007E-02    -1.34388301E-18
   6.19999990E-02    -2.07346159E-19
   6.30000010E-02     1.38434114E-18
   6.40000030E-02     3.00551795E-18
   6.49999976E-02     4.08225502E-18
   6.59999996E-02     4.05448533E-18
   6.70000017E-02     2.58372222E-18
   6.80000037E-02    -2.55929139E-19
   6.89999983E-02    -3.87843234E-18
   7.00000003E-02    -7.24185708E-18
   7.10000023E-02    -9.08545820E-18
   7.19999969E-02    -8.31495600E-18
   7.29999989E-02    -4.43988739E-18
   7.40000010E-02     2.07937262E-18
   7.50000030E-02     9.72482249E-18
   7.59999976E-02     1.61595688E-17
   7.69999996E-02     1.88224932E-17
   7.80000016E-02     1.57648200E-17
   7.90000036E-02     6.49761455E-18
   7.99999982E-02    -7.44642463E-18
   8.10000002E-02    -2.25106004E-17
   8.20000023E-02    -3.38189584E-17
   8.29999968E-02    -3.65247919E-17
   8.39999989E-02    -2.74968468E-17
   8.50000009E-02    -6.84067324E-18
   8.60000029E-02     2.13165618E-17
   8.69999975E-02     4.92357852E-17
   8.79999995E-02     6.73259506E-17
   8.90000015E-02     6.69793421E-17
   9.00000036E-02     4.37675093E-17
   9.09999982E-02    -1.51345666E-20
   9.20000002E-02    -5.44924882E-17
   9.30000022E-02    -1.03733187E-16
   9.39999968E-02    -1.29711409E-16
   9.49999988E-02    -1.17930372E-16
   9.60000008E-02    -6.31888101E-17
   9.70000029E-02     2.64321826E-17
   9.79999974E-02     1.29126917E-16
   9.89999995E-02     2.13440735E-16
  0.100000001         2.46538124E-16
  0.101000004         2.04857486E-16
  0.101999998         8.41417119E-17
  0.103000000        -9.46313878E-17
  0.104000002        -2.86305951E-16
  0.104999997        -4.30805298E-16
  0.105999999        -4.69369649E-16
  0.107000001        -3.64002589E-16
  0.108000003        -1.14499704E-16
  0.108999997         2.32975327E-16
  0.109999999         5.90337548E-16
  0.111000001         8.46380044E-16
  0.112000003         8.96933035E-16
  0.112999998         6.79164834E-16
  0.114000000         2.00050640E-16
  0.115000002        -4.51097825E-16
  0.115999997        -1.11310717E-15
  0.116999999        -1.58766384E-15
  0.118000001        -1.69222402E-15
  0.119000003        -1.31831319E-15
  0.119999997        -4.78426179E-16
  0.120999999         6.74767569E-16
  0.122000001         1.86763925E-15
  0.123000003         2.76415925E-15
  0.123999998         3.05301760E-15
  0.125000000         2.54219448E-15
  0.126000002         1.23425416E-15
  0.127000004        -6.42792975E-16
  0.128000006        -2.66489165E-15
  0.128999993        -4.30199987E-15
  0.129999995        -5.05143556E-15
  0.130999997        -4.58205522E-15
  0.131999999        -2.84926404E-15
  0.133000001        -1.44147114E-16
  0.134000003         2.94549122E-15
  0.135000005         5.66154577E-15
  0.136000007         7.26347354E-15
  0.136999995         7.23089496E-15
  0.137999997         5.42495041E-15
  0.138999999         2.15855462E-15
  0.140000001        -1.85280220E-15
  0.141000003        -5.65609554E-15
  0.142000005        -8.30391206E-15
  0.143000007        -9.11180955E-15
  0.143999994        -7.85640677E-15
  0.144999996        -4.85224772E-15
  0.145999998        -8.76741516E-16
  0.147000000         3.04414663E-15
  0.148000002         5.93332858E-15
  0.149000004         7.15682108E-15
  0.150000006         6.62218066E-15
  0.150999993         4.81057666E-15
  0.151999995         2.61844100E-15
  0.152999997         1.04364782E-15
  0.153999999         8.05752373E-16
  0.155000001         2.02225495E-15
  0.156000003         4.06036509E-15
  0.157000005         5.64277806E-15
  0.158000007         5.21436405E-15
  0.158999994         1.49258121E-15
  0.159999996        -5.94794159E-15
  0.160999998        -1.62431561E-14
  0.162000000        -2.71317054E-14
  0.163000003        -3.52746193E-14
  0.164000005        -3.69954413E-14
  0.165000007        -2.93079939E-14
  0.165999994        -1.09918288E-14
  0.166999996         1.65806225E-14
  0.167999998         4.91438182E-14
  0.169000000         7.99491834E-14
  0.170000002         1.00911521E-13
  0.171000004         1.04332009E-13
  0.172000006         8.48685339E-14
  0.172999993         4.13142861E-14
  0.173999995        -2.22699599E-14
  0.174999997        -9.64353787E-14
  0.175999999        -1.67417810E-13
  0.177000001        -2.19341513E-13
  0.178000003        -2.37238072E-13
  0.179000005        -2.10355144E-13
  0.180000007        -1.35110117E-13
  0.180999994        -1.70451557E-14
  0.181999996         1.28734019E-13
  0.182999998         2.78919330E-13
  0.184000000         4.05140033E-13
  0.185000002         4.78534692E-13
  0.186000004         4.75114143E-13
  0.187000006         3.81060797E-13
  0.187999994         1.97012870E-13
  0.188999996        -5.95737584E-14
  0.189999998        -3.54697364E-13
  0.191000000        -6.41093461E-13
  0.192000002        -8.64457648E-13
  0.193000004        -9.72024544E-13
  0.194000006        -9.22408092E-13
  0.194999993        -6.95184307E-13
  0.195999995        -2.98451937E-13
  0.196999997         2.27374624E-13
  0.197999999         8.10947717E-13
  0.199000001         1.35727638E-12
  0.200000003         1.76070367E-12
  0.201000005         1.92224036E-12
  0.202000007         1.76884278E-12
  0.202999994         1.27139770E-12
  0.203999996         4.57817486E-13
  0.204999998        -5.82068519E-13
  0.206000000        -1.70216868E-12
  0.207000002        -2.71706269E-12
  0.208000004        -3.42893877E-12
  0.209000006        -3.66116035E-12
  0.209999993        -3.29332286E-12
  0.210999995        -2.29160831E-12
  0.211999997        -7.28222007E-13
  0.213000000         1.21518821E-12
  0.214000002         3.26298775E-12
  0.215000004         5.07973785E-12
  0.216000006         6.31958375E-12
  0.216999993         6.68422652E-12
  0.217999995         5.98054202E-12
  0.218999997         4.16794333E-12
  0.219999999         1.38617752E-12
  0.221000001        -2.04350903E-12
  0.222000003        -5.64725697E-12
  0.223000005        -8.85638958E-12
  0.224000007        -1.10881426E-11
  0.224999994        -1.18389803E-11
  0.225999996        -1.07769852E-11
  0.226999998        -7.81839871E-12
  0.228000000        -3.17416341E-12
  0.229000002         2.64466227E-12
  0.230000004         8.86865928E-12
  0.231000006         1.45584083E-11
  0.231999993         1.87315406E-11
  0.232999995         2.05134781E-11
  0.233999997         1.92911902E-11
  0.234999999         1.48460324E-11
  0.236000001         7.44172605E-12
  0.237000003        -2.15255591E-12
  0.238000005        -1.27165630E-11
  0.238999993        -2.27126443E-11
  0.239999995        -3.04881120E-11
  0.240999997        -3.45230684E-11
  0.241999999        -3.36899467E-11
  0.243000001        -2.74843984E-11
  0.244000003        -1.61864619E-11
  0.245000005        -9.16795286E-13
  0.246000007         1.64347459E-11
  0.246999994         3.34129148E-11
  0.247999996         4.73169524E-11
  0.248999998         5.55992127E-11
  0.250000000         5.62877661E-11
  0.250999987         4.83676189E-11
  0.252000004         3.20543245E-11
  0.252999991         8.90334074E-12
  0.254000008        -1.82811925E-11
  0.254999995        -4.57464414E-11
  0.256000012        -6.92748983E-11
  0.256999999        -8.47955595E-11
  0.257999986        -8.90387000E-11
  0.259000003        -8.01349195E-11
  0.259999990        -5.80573541E-11
  0.261000007        -2.48204114E-11
  0.261999995         1.56219638E-11
  0.263000011         5.77935894E-11
  0.263999999         9.53954277E-11
  0.264999986         1.22205274E-10
  0.266000003         1.33055705E-10
  0.266999990         1.24743452E-10
  0.268000007         9.67193339E-11
  0.268999994         5.14277267E-11
  0.270000011        -5.79240562E-12
  0.270999998        -6.72714176E-11
  0.272000015        -1.23992122E-10
  0.273000002        -1.66874681E-10
  0.273999989        -1.88185884E-10
  0.275000006        -1.82859061E-10
  0.275999993        -1.49505908E-10
  0.277000010        -9.09326572E-11
  0.277999997        -1.40371204E-11
  0.279000014         7.09456660E-11
  0.280000001         1.51778395E-10
  0.280999988         2.15966411E-10
  0.282000005         2.52662946E-10
  0.282999992         2.54442661E-10
  0.284000009         2.18654414E-10
  0.284999996         1.48115548E-10
  0.286000013         5.10035174E-11
  0.287000000        -6.00772349E-11
  0.287999988        -1.69744996E-10
  0.289000005        -2.61981048E-10
  0.289999992        -3.22450705E-10
  0.291000009        -3.40659972E-10
  0.291999996        -3.11621368E-10
  0.293000013        -2.36774905E-10
  0.294000000        -1.24019586E-10
  0.294999987         1.31555955E-11
  0.296000004         1.57323335E-10
  0.296999991         2.89325119E-10
  0.298000008         3.90736166E-10
  0.298999995         4.46266996E-10
  0.300000012         4.45800397E-10
  0.300999999         3.85823790E-10
  0.301999986         2.70099332E-10
  0.303000003         1.09508513E-10
  0.303999990        -7.89027316E-11
  0.305000007        -2.73576356E-10
  0.305999994        -4.50632170E-10
  0.307000011        -5.86397653E-10
  0.307999998        -6.60054122E-10
  0.308999985        -6.56166510E-10
  0.310000002        -5.66859337E-10
  0.310999990        -3.93412886E-10
  0.312000006        -1.47072896E-10
  0.312999994         1.51088655E-10
  0.314000010         4.71361450E-10
  0.314999998         7.77643949E-10
  0.316000015         1.03065079E-09
  0.317000002         1.19186583E-09
  0.317999989         1.22791022E-09
  0.319000006         1.11490794E-09
  0.319999993         8.42378611E-10
  0.321000010         4.16189971E-10
  0.321999997        -1.39843748E-10
  0.323000014        -7.84021625E-10
  0.324000001        -1.45863477E-09
  0.324999988        -2.09365414E-09
  0.326000005        -2.61205058E-09
  0.326999992        -2.93641600E-09
  0.328000009        -2.99643088E-09
  0.328999996        -2.73663026E-09
  0.330000013        -2.12387286E-09
  0.331000000        -1.15389298E-09
  0.331999987         1.43667411E-10
  0.333000004         1.70231429E-09
  0.333999991         3.41833095E-09
  0.335000008         5.15336396E-09
  0.335999995         6.74019685E-09
  0.337000012         7.99174149E-09
  0.338000000         8.71306938E-09
  0.338999987         8.71602435E-09
  0.340000004         7.83572585E-09
  0.340999991         5.94804961E-09
  0.342000008         2.98698799E-09
  0.342999995        -1.03923437E-09
  0.344000012        -6.03438677E-09
  0.344999999        -1.18036958E-08
  0.345999986        -1.80471389E-08
  0.347000003        -2.43567282E-08
  0.347999990        -3.02174747E-08
  0.349000007        -3.50111904E-08
  0.349999994        -3.80217955E-08
  0.351000011        -3.84403052E-08
  0.351999998        -3.53672931E-08
  0.352999985        -2.78103833E-08
  0.354000002        -1.46741526E-08
  0.354999989         5.26029975E-09
  0.356000006         3.33685080E-08
  0.356999993         7.12309003E-08
  0.358000010         1.20697820E-07
  0.358999997         1.83972617E-07
  0.360000014         2.63713758E-07
  0.361000001         3.63155863E-07
  0.361999989         4.86250144E-07
  0.363000005         6.37823916E-07
  0.363999993         8.23759933E-07
  0.365000010         1.05119796E-06
  0.365999997         1.32875994E-06
  0.367000014         1.66680479E-06
  0.368000001         2.07771882E-06
  0.368999988         2.57624902E-06
  0.370000005         3.17988679E-06
  0.370999992         3.90931473E-06
  0.372000009         4.78892161E-06
  0.372999996         5.84739246E-06
  0.374000013         7.11839039E-06
  0.375000000         8.64132198E-06
  0.375999987         1.04622050E-05
  0.377000004         1.26346276E-05
  0.377999991         1.52208222E-05
  0.379000008         1.82928343E-05
  0.379999995         2.19338017E-05
  0.381000012         2.62393460E-05
  0.381999999         3.13190721E-05
  0.382999986         3.72981958E-05
  0.384000003         4.43192803E-05
  0.384999990         5.25441174E-05
  0.386000007         6.21556974E-05
  0.386999995         7.33603520E-05
  0.388000011         8.63899186E-05
  0.388999999         1.01504098E-04
  0.389999986         1.18992779E-04
  0.391000003         1.39178446E-04
  0.391999990         1.62418612E-04
  0.393000007         1.89108134E-04
  0.393999994         2.19681460E-04
  0.395000011         2.54614744E-04
  0.395999998         2.94427737E-04
  0.397000015         3.39685444E-04
  0.398000002         3.90999194E-04
  0.398999989         4.49027604E-04
  0.400000006         5.14476735E-04
  0.400999993         5.88099589E-04
  0.402000010         6.70695270E-04
  0.402999997         7.63106858E-04
  0.404000014         8.66218237E-04
  0.405000001         9.80950776E-04
  0.405999988         1.10825757E-03
  0.407000005         1.24911789E-03
  0.407999992         1.40452862E-03
  0.409000009         1.57549640E-03
  0.409999996         1.76302600E-03
  0.411000013         1.96810928E-03
  0.412000000         2.19171075E-03
  0.412999988         2.43475358E-03
  0.414000005         2.69810134E-03
  0.414999992         2.98254145E-03
  0.416000009         3.28876427E-03
  0.416999996         3.61734256E-03
  0.418000013         3.96871008E-03
  0.419000000         4.34313808E-03
  0.419999987         4.74071130E-03
  0.421000004         5.16130589E-03
  0.421999991         5.60456282E-03
  0.423000008         6.06986647E-03
  0.423999995         6.55632047E-03
  0.425000012         7.06272712E-03
  0.425999999         7.58756744E-03
  0.426999986         8.12898111E-03
  0.428000003         8.68475623E-03
  0.428999990         9.25231166E-03
  0.430000007         9.82869230E-03
  0.430999994         1.04105631E-02
  0.432000011         1.09942146E-02
  0.432999998         1.15755629E-02
  0.433999985         1.21501638E-02
  0.435000002         1.27132321E-02
  0.435999990         1.32596623E-02
  0.437000006         1.37840603E-02
  0.437999994         1.42807793E-02
  0.439000010         1.47439642E-02
  0.439999998         1.51675986E-02
  0.441000015         1.55455610E-02
  0.442000002         1.58716869E-02
  0.442999989         1.61398351E-02
  0.444000006         1.63439605E-02
  0.444999993         1.64781846E-02
  0.446000010         1.65368710E-02
  0.446999997         1.65147185E-02
  0.448000014         1.64068192E-02
  0.449000001         1.62087604E-02
  0.449999988         1.59166865E-02
  0.451000005         1.55273862E-02
  0.451999992         1.50383580E-02
  0.453000009         1.44478735E-02
  0.453999996         1.37550421E-02
  0.455000013         1.29598621E-02
  0.456000000         1.20632555E-02
  0.456999987         1.10671101E-02
  0.458000004         9.97429527E-03
  0.458999991         8.78866855E-03
  0.460000008         7.51507515E-03
  0.460999995         6.15932979E-03
  0.462000012         4.72818688E-03
  0.463000000         3.22929816E-03
  0.463999987         1.67115359E-03
  0.465000004         6.30141512E-05
  0.465999991        -1.58516970E-03
  0.467000008        -3.26284999E-03
  0.467999995        -4.95898305E-03
  0.469000012        -6.66214107E-03
  0.469999999        -8.36062618E-03
  0.470999986        -1.00425985E-02
  0.472000003        -1.16961999E-02
  0.472999990        -1.33096799E-02
  0.474000007        -1.48715340E-02
  0.474999994        -1.63706206E-02
  0.476000011        -1.77962910E-02
  0.476999998        -1.91385038E-02
  0.477999985        -2.03879401E-02
  0.479000002        -2.15360969E-02
  0.479999989        -2.25753877E-02
  0.481000006        -2.34992169E-02
  0.481999993        -2.43020430E-02
  0.483000010        -2.49794405E-02
  0.483999997        -2.55281236E-02
  0.485000014        -2.59459857E-02
  0.486000001        -2.62320917E-02
  0.486999989        -2.63866801E-02
  0.488000005        -2.64111385E-02
  0.488999993        -2.63079666E-02
  0.490000010        -2.60807257E-02
  0.490999997        -2.57339776E-02
  0.492000014        -2.52732094E-02
  0.493000001        -2.47047544E-02
  0.493999988        -2.40356978E-02
  0.495000005        -2.32737754E-02
  0.495999992        -2.24272758E-02
  0.497000009        -2.15049293E-02
  0.497999996        -2.05158032E-02
  0.499000013        -1.94691829E-02
  0.500000000        -1.83744784E-02
  0.500999987        -1.72411092E-02
  0.501999974        -1.60784088E-02
  0.503000021        -1.48955295E-02
  0.504000008        -1.37013569E-02
  0.504999995        -1.25044212E-02
  0.505999982        -1.13128331E-02
  0.507000029        -1.01342183E-02
  0.508000016        -8.97566415E-03
  0.509000003        -7.84367509E-03
  0.509999990        -6.74413936E-03
  0.510999978        -5.68230683E-03
  0.512000024        -4.66276985E-03
  0.513000011        -3.68946278E-03
  0.513999999        -2.76566157E-03
  0.514999986        -1.89399661E-03
  0.515999973        -1.07647025E-03
  0.517000020        -3.14481382E-04
  0.518000007         3.91143636E-04
  0.518999994         1.04011700E-03
  0.519999981         1.63265015E-03
  0.521000028         2.16941210E-03
  0.522000015         2.65148631E-03
  0.523000002         3.08032264E-03
  0.523999989         3.45769385E-03
  0.524999976         3.78564768E-03
  0.526000023         4.06646123E-03
  0.527000010         4.30259807E-03
  0.527999997         4.49666195E-03
  0.528999984         4.65136115E-03
  0.529999971         4.76946635E-03
  0.531000018         4.85377805E-03
  0.532000005         4.90709394E-03
  0.532999992         4.93218191E-03
  0.533999979         4.93175304E-03
  0.535000026         4.90844110E-03
  0.536000013         4.86478303E-03
  0.537000000         4.80320491E-03
  0.537999988         4.72600758E-03
  0.538999975         4.63536056E-03
  0.540000021         4.53329086E-03
  0.541000009         4.42168303E-03
  0.541999996         4.30227444E-03
  0.542999983         4.17665578E-03
  0.544000030         4.04627435E-03
  0.545000017         3.91243491E-03
  0.546000004         3.77630792E-03
  0.546999991         3.63893295E-03
  0.547999978         3.50122689E-03
  0.549000025         3.36399162E-03
  0.550000012         3.22792213E-03
  0.550999999         3.09361564E-03
  0.551999986         2.96157924E-03
  0.552999973         2.83223973E-03
  0.554000020         2.70595145E-03
  0.555000007         2.58300407E-03
  0.555999994         2.46363063E-03
  0.556999981         2.34801485E-03
  0.558000028         2.23629735E-03
  0.559000015         2.12858105E-03
  0.560000002         2.02493789E-03
  0.560999990         1.92541350E-03
  0.561999977         1.83003023E-03
  0.563000023         1.73879205E-03
  0.564000010         1.65168685E-03
  0.564999998         1.56868924E-03
  0.565999985         1.48976105E-03
  0.566999972         1.41485396E-03
  0.568000019         1.34390930E-03
  0.569000006         1.27685885E-03
  0.569999993         1.21362519E-03
  0.570999980         1.15412136E-03
  0.572000027         1.09825097E-03
  0.573000014         1.04590796E-03
  0.574000001         9.96976625E-04
  0.574999988         9.51331283E-04
  0.575999975         9.08836490E-04
  0.577000022         8.69347423E-04
  0.578000009         8.32710590E-04
  0.578999996         7.98764348E-04
  0.579999983         7.67340127E-04
  0.580999970         7.38263188E-04
  0.582000017         7.11354078E-04
  0.583000004         6.86429965E-04
  0.583999991         6.63305807E-04
  0.584999979         6.41796214E-04
  0.586000025         6.21717190E-04
  0.587000012         6.02887943E-04
  0.588000000         5.85133326E-04
  0.588999987         5.68285526E-04
  0.589999974         5.52186742E-04
  0.591000021         5.36690583E-04
  0.592000008         5.21664100E-04
  0.592999995         5.06989541E-04
  0.593999982         4.92565217E-04
  0.595000029         4.78306873E-04
  0.596000016         4.64148441E-04
  0.597000003         4.50042367E-04
  0.597999990         4.35959926E-04
  0.598999977         4.21890727E-04
  0.600000024         4.07841988E-04
  0.601000011         3.93837370E-04
  0.601999998         3.79915524E-04
  0.602999985         3.66128399E-04
  0.603999972         3.52539268E-04
  0.605000019         3.39221151E-04
  0.606000006         3.26254521E-04
  0.606999993         3.13725701E-04
  0.607999980         3.01724504E-04
  0.609000027         2.90342112E-04
  0.610000014         2.79668951E-04
  0.611000001         2.69791868E-04
  0.611999989         2.60792061E-04
  0.612999976         2.52742408E-04
  0.614000022         2.45705451E-04
  0.615000010         2.39731206E-04
  0.615999997         2.34855601E-04
  0.616999984         2.31099082E-04
  0.617999971         2.28465666E-04
  0.619000018         2.26942371E-04
  0.620000005         2.26499120E-04
  0.620999992         2.27089098E-04
  0.621999979         2.28649442E-04
  0.623000026         2.31102546E-04
  0.624000013         2.34357649E-04
  0.625000000         2.38312554E-04
  0.625999987         2.42855705E-04
  0.626999974         2.47868331E-04
  0.628000021         2.53226637E-04
  0.629000008         2.58804183E-04
  0.629999995         2.64474307E-04
  0.630999982         2.70112825E-04
  0.632000029         2.75600672E-04
  0.633000016         2.80826760E-04
  0.634000003         2.85690418E-04
  0.634999990         2.90103810E-04
  0.635999978         2.93993857E-04
  0.637000024         2.97303573E-04
  0.638000011         2.99992884E-04
  0.638999999         3.02039029E-04
  0.639999986         3.03436740E-04
  0.640999973         3.04197572E-04
  0.642000020         3.04349262E-04
  0.643000007         3.03934590E-04
  0.643999994         3.03009787E-04
  0.644999981         3.01642343E-04
  0.646000028         2.99908803E-04
  0.647000015         2.97891733E-04
  0.648000002         2.95677048E-04
  0.648999989         2.93350982E-04
  0.649999976         2.90997530E-04
  0.651000023         2.88695825E-04
  0.652000010         2.86517869E-04
  0.652999997         2.84526352E-04
  0.653999984         2.82772788E-04
  0.654999971         2.81295564E-04
  0.656000018         2.80118402E-04
  0.657000005         2.79249041E-04
  0.657999992         2.78678723E-04
  0.658999979         2.78381573E-04
  0.660000026         2.78315361E-04
  0.661000013         2.78421852E-04
  0.662000000         2.78628169E-04
  0.662999988         2.78848194E-04
  0.663999975         2.78984022E-04
  0.665000021         2.78927881E-04
  0.666000009         2.78563995E-04
  0.666999996         2.77770770E-04
  0.667999983         2.76423089E-04
  0.669000030         2.74394552E-04
  0.670000017         2.71559693E-04
  0.671000004         2.67795811E-04
  0.671999991         2.62984337E-04
  0.672999978         2.57011998E-04
  0.674000025         2.49771168E-04
  0.675000012         2.41160233E-04
  0.675999999         2.31083526E-04
  0.676999986         2.19451307E-04
  0.677999973         2.06179480E-04
  0.679000020         1.91189174E-04
  0.680000007         1.74406174E-04
  0.680999994         1.55759917E-04
  0.681999981         1.35182490E-04
  0.683000028         1.12607122E-04
  0.684000015         8.79668733E-05
  0.685000002         6.11930882E-05
  0.685999990         3.22140295E-05
  0.686999977         9.53607866E-07
  0.688000023        -3.26698246E-05
  0.689000010        -6.87445572E-05