 -0.119999997         0.00000000    
 -0.119000003         0.00000000    
 -0.118000001         0.00000000    
 -0.116999999         0.00000000    
 -0.115999997         0.00000000    
 -0.115000002         0.00000000    
 -0.114000000         0.00000000    
 -0.112999998         0.00000000    
 -0.112000003         0.00000000    
 -0.111000001         0.00000000    
 -0.109999999         0.00000000    
 -0.108999997         0.00000000    
 -0.108000003         0.00000000    
 -0.107000001         0.00000000    
 -0.105999999         0.00000000    
 -0.104999997        -0.00000000    
 -0.104000002        -0.00000000    
 -0.103000000        -0.00000000    
 -0.101999998         5.28318948E-38
 -0.101000004         3.19523852E-37
 -0.100000001         9.37485443E-37
  -9.89999995E-02     8.11888205E-37
  -9.79999974E-02    -4.44788616E-36
  -9.70000029E-02    -1.82696431E-35
  -9.60000008E-02    -1.01938663E-35
  -9.49999988E-02     1.63233496E-34
  -9.39999968E-02     7.90936333E-34
  -9.30000022E-02     1.90249665E-33
  -9.20000002E-02     1.78574526E-33
  -9.09999982E-02    -5.35753958E-33
  -9.00000036E-02    -2.87031006E-32
  -8.90000015E-02    -6.67459681E-32
  -8.79999995E-02    -6.85591093E-32
  -8.69999975E-02     1.16013687E-31
  -8.60000029E-02     7.10650799E-31
  -8.50000009E-02     1.72635564E-30
  -8.39999989E-02     2.24729769E-30
  -8.29999968E-02    -4.62507421E-31
  -8.20000023E-02    -1.07398483E-29
  -8.10000002E-02    -3.06141099E-29
  -7.99999982E-02    -4.98412163E-29
  -7.90000036E-02    -3.23228642E-29
  -7.80000016E-02     8.69039776E-29
  -7.69999996E-02     3.65043795E-28
  -7.59999976E-02     7.44563794E-28
  -7.50000030E-02     8.85753767E-28
  -7.40000010E-02     5.56098008E-29
  -7.29999989E-02    -2.66046576E-27
  -7.19999969E-02    -7.48806262E-27
  -7.10000023E-02    -1.23409439E-26
  -7.00000003E-02    -1.11369719E-26
  -6.89999983E-02     5.99094059E-27
  -6.80000037E-02     4.76177674E-26
  -6.70000017E-02     1.08921070E-25
  -6.59999996E-02     1.54896709E-25
  -6.49999976E-02     1.10002857E-25
  -6.40000030E-02    -1.24912513E-25
  -6.30000010E-02    -6.05654665E-25
  -6.19999990E-02    -1.22371210E-24
  -6.10000007E-02    -1.57570440E-24
  -5.99999987E-02    -9.37195450E-25
  -5.90000004E-02     1.49431811E-24
  -5.79999983E-02     5.96158397E-24
  -5.70000000E-02     1.11927829E-23
  -5.60000017E-02     1.35884636E-23
  -5.49999997E-02     7.43706270E-24
  -5.40000014E-02    -1.27978356E-23
  -5.29999994E-02    -4.76306263E-23
  -5.20000011E-02    -8.62426665E-23
  -5.09999990E-02    -1.02214140E-22
  -5.00000007E-02    -5.69605852E-23
  -4.89999987E-02     8.35559325E-23
  -4.80000004E-02     3.17818377E-22
  -4.69999984E-02     5.72345572E-22
  -4.60000001E-02     6.81752830E-22
  -4.50000018E-02     4.16365128E-22
  -4.39999998E-02    -4.16440606E-22
  -4.30000015E-02    -1.79945852E-21
  -4.19999994E-02    -3.31665741E-21
  -4.10000011E-02    -4.06477280E-21
  -3.99999991E-02    -2.81707404E-21
  -3.90000008E-02     1.44813415E-21
  -3.79999988E-02     8.69017049E-21
  -3.70000005E-02     1.69043890E-20
  -3.59999985E-02     2.17264820E-20
  -3.50000001E-02     1.72147142E-20
  -3.40000018E-02    -1.73127287E-21
  -3.29999998E-02    -3.55276076E-20
  -3.20000015E-02    -7.59045035E-20
  -3.09999995E-02    -1.04072989E-19
  -2.99999993E-02    -9.38108828E-20
  -2.89999992E-02    -2.12850067E-20
  -2.80000009E-02     1.19264478E-19
  -2.70000007E-02     2.98922394E-19
  -2.60000005E-02     4.45522528E-19
  -2.50000004E-02     4.53585575E-19
  -2.40000002E-02     2.19834932E-19
  -2.30000000E-02    -2.98334915E-19
  -2.19999999E-02    -1.01856642E-18
  -2.09999997E-02    -1.69481501E-18
  -1.99999996E-02    -1.94156723E-18
  -1.89999994E-02    -1.34774285E-18
  -1.79999992E-02     3.24462035E-19
  -1.70000009E-02     2.90832774E-18
  -1.60000008E-02     5.66971760E-18
  -1.49999997E-02     7.33682734E-18
  -1.40000004E-02     6.41955104E-18
  -1.30000003E-02     1.82313399E-18
  -1.20000001E-02    -6.38478009E-18
  -1.09999999E-02    -1.63483976E-17
  -9.99999978E-03    -2.43232856E-17
  -8.99999961E-03    -2.54320137E-17
  -8.00000038E-03    -1.53646847E-17
  -7.00000022E-03     7.29500839E-18
  -6.00000005E-03     3.88967456E-17
  -4.99999989E-03     6.97973876E-17
  -4.00000019E-03     8.57284891E-17
  -3.00000003E-03     7.19467469E-17
  -2.00000009E-03     1.96119246E-17
  -1.00000005E-03    -6.74345892E-17
   0.00000000        -1.68335119E-16
   1.00000005E-03    -2.46360353E-16
   2.00000009E-03    -2.57489413E-16
   3.00000003E-03    -1.65973472E-16
   4.00000019E-03     3.67987177E-17
   4.99999989E-03     3.16788311E-16
   6.00000005E-03     5.93126563E-16
   7.00000022E-03     7.51699389E-16
   8.00000038E-03     6.78047651E-16
   8.99999961E-03     3.03712584E-16
   9.99999978E-03    -3.47657076E-16
   1.09999999E-02    -1.13321626E-15
   1.20000001E-02    -1.80093583E-15
   1.30000003E-02    -2.04652710E-15
   1.40000004E-02    -1.61195378E-15
   1.49999997E-02    -4.01914037E-16
   1.60000008E-02     1.42053640E-15
   1.70000009E-02     3.40319458E-15
   1.79999992E-02     4.87251976E-15
   1.89999994E-02     5.10734313E-15
   1.99999996E-02     3.58817514E-15
   2.09999997E-02     2.53969568E-16
   2.19999999E-02    -4.32564353E-15
   2.30000000E-02    -8.95151364E-15
   2.40000002E-02    -1.20217108E-14
   2.50000004E-02    -1.19699156E-14
   2.60000005E-02    -7.82194354E-15
   2.70000007E-02     2.91079961E-16
   2.80000009E-02     1.08533593E-14
   2.89999992E-02     2.10792060E-14
   2.99999993E-02     2.74887145E-14
   3.09999995E-02     2.68712410E-14
   3.20000015E-02     1.74144722E-14
   3.29999998E-02    -3.32819336E-16
   3.40000018E-02    -2.30206614E-14
   3.50000001E-02    -4.48489851E-14
   3.59999985E-02    -5.87836054E-14
   3.70000005E-02    -5.84502539E-14
   3.79999988E-02    -4.02645548E-14
   3.90000008E-02    -5.18871377E-15
   3.99999991E-02     4.05039805E-14
   4.10000011E-02     8.58961204E-14
   4.19999994E-02     1.17616894E-13
   4.30000015E-02     1.23211879E-13
   4.39999998E-02     9.49368690E-14
   4.50000018E-02     3.29626361E-14
   4.60000001E-02    -5.30292566E-14
   4.69999984E-02    -1.44597699E-13
   4.80000004E-02    -2.17847455E-13
   4.89999987E-02    -2.48830850E-13
   5.00000007E-02    -2.19953884E-13
   5.09999990E-02    -1.25864746E-13
   5.20000011E-02     2.27881932E-14
   5.29999994E-02     1.99033837E-13
   5.40000014E-02     3.63326312E-13
   5.49999997E-02     4.71093542E-13
   5.60000017E-02     4.82866785E-13
   5.70000000E-02     3.74990078E-13
   5.79999983E-02     1.48479834E-13
   5.90000004E-02    -1.66341387E-13
   5.99999987E-02    -5.11244150E-13
   6.10000007E-02    -8.08297656E-13
   6.19999990E-02    -9.74299742E-13
   6.30000010E-02    -9.39385071E-13
   6.40000030E-02    -6.66452191E-13
   6.49999976E-02    -1.67174339E-13
   6.59999996E-02     4.89812021E-13
   6.70000017E-02     1.18220364E-12
   6.80000037E-02     1.75073671E-12
   6.89999983E-02     2.02860602E-12
   7.00000003E-02     1.87973638E-12
   7.10000023E-02     1.23894785E-12
   7.19999969E-02     1.44779859E-13
   7.29999989E-02    -1.24487194E-12
   7.40000010E-02    -2.66248200E-12
   7.50000030E-02    -3.76995180E-12
   7.59999976E-02    -4.22461285E-12
   7.69999996E-02    -3.76235891E-12
   7.80000016E-02    -2.28126654E-12
   7.90000036E-02     9.51940078E-14
   7.99999982E-02     2.99614391E-12
   8.10000002E-02     5.83771313E-12
   8.20000023E-02     7.91829276E-12
   8.29999968E-02     8.56452409E-12
   8.39999989E-02     7.30271659E-12
   8.50000009E-02     4.01838285E-12
   8.60000029E-02    -9.38511747E-13
   8.69999975E-02    -6.74021386E-12
   8.79999995E-02    -1.21821147E-11
   8.90000015E-02    -1.58962583E-11
   9.00000036E-02    -1.66474057E-11
   9.09999982E-02    -1.36554344E-11
   9.20000002E-02    -6.87071493E-12
   9.30000022E-02     2.87295860E-12
   9.39999968E-02     1.38872368E-11
   9.49999988E-02     2.38658971E-11
   9.60000008E-02     3.03100045E-11
   9.70000029E-02     3.10740600E-11
   9.79999974E-02     2.49256640E-11
   9.89999995E-02     1.19904650E-11
  0.100000001        -6.03979670E-12
  0.101000004        -2.60227655E-11
  0.101999998        -4.38301097E-11
  0.103000000        -5.51111275E-11
  0.104000002        -5.62295939E-11
  0.104999997        -4.51903098E-11
  0.105999999        -2.23469993E-11
  0.107000001         9.29855932E-12
  0.108000003         4.43333530E-11
  0.108999997         7.57335306E-11
  0.109999999         9.61367930E-11
  0.111000001         9.93796018E-11
  0.112000003         8.20058327E-11
  0.112999998         4.44185522E-11
  0.114000000        -8.62268937E-12
  0.115000002        -6.83583051E-11
  0.115999997        -1.23284355E-10
  0.116999999        -1.61168884E-10
  0.118000001        -1.71510986E-10
  0.119000003        -1.47987692E-10
  0.119999997        -9.03746036E-11
  0.120999999        -5.46633268E-12
  0.122000001         9.33326333E-11
  0.123000003         1.87842741E-10
  0.123999998         2.58182503E-10
  0.125000000         2.86610291E-10
  0.126000002         2.61443700E-10
  0.127000004         1.80259335E-10
  0.128000006         5.16214363E-11
  0.128999993        -1.05204449E-10
  0.129999995        -2.62749628E-10
  0.130999997        -3.89818705E-10
  0.131999999        -4.57276439E-10
  0.133000001        -4.44127873E-10
  0.134000003        -3.42695733E-10
  0.135000005        -1.61744174E-10
  0.136000007         7.33139036E-11
  0.136999995         3.23493121E-10
  0.137999997         5.42339451E-10
  0.138999999         6.84168833E-10
  0.140000001         7.13029635E-10
  0.141000003         6.10693385E-10
  0.142000005         3.82007925E-10
  0.143000007         5.63149319E-11
  0.143999994        -3.15709764E-10
  0.144999996        -6.69594324E-10
  0.145999998        -9.37919853E-10
  0.147000000        -1.06268527E-09
  0.148000002        -1.00696229E-09
  0.149000004        -7.63582308E-10
  0.150000006        -3.58997360E-10
  0.150999993         1.48762350E-10
  0.151999995         6.78080592E-10
  0.152999997         1.13664034E-09
  0.153999999         1.43717882E-09
  0.155000001         1.51344293E-09
  0.156000003         1.33348588E-09
  0.157000005         9.07765252E-10
  0.158000007         2.90292707E-10
  0.158999994        -4.27772928E-10
  0.159999996        -1.13139986E-09
  0.160999998        -1.69990066E-09
  0.162000000        -2.02721706E-09
  0.163000003        -2.04089856E-09
  0.164000005        -1.71646319E-09
  0.165000007        -1.08445830E-09
  0.165999994        -2.28645214E-10
  0.166999996         7.24840521E-10
  0.167999998         1.62599578E-09
  0.169000000         2.32441466E-09
  0.170000002         2.69404787E-09
  0.171000004         2.65520717E-09
  0.172000006         2.19003837E-09
  0.172999993         1.34860079E-09
  0.173999995         2.44126441E-10
  0.174999997        -9.62233626E-10
  0.175999999        -2.08511364E-09
  0.177000001        -2.94355029E-09
  0.178000003        -3.39003248E-09
  0.179000005        -3.33528538E-09
  0.180000007        -2.76464895E-09
  0.180999994        -1.74317560E-09
  0.181999996        -4.08335282E-10
  0.182999998         1.04880415E-09
  0.184000000         2.41120568E-09
  0.185000002         3.46817308E-09
  0.186000004         4.04746592E-09
  0.187000006         4.04237266E-09
  0.187999994         3.42967299E-09
  0.188999996         2.27578179E-09
  0.189999998         7.30078997E-10
  0.191000000        -9.93782279E-10
  0.192000002        -2.64619482E-09
  0.193000004        -3.97591382E-09
  0.194000006        -4.76598627E-09
  0.194999993        -4.86666130E-09
  0.195999995        -4.22088142E-09
  0.196999997        -2.87863644E-09
  0.197999999        -9.97520733E-10
  0.199000001         1.17173060E-09
  0.200000003         3.31422489E-09
  0.201000005         5.09195353E-09
  0.202000007         6.19243590E-09
  0.202999994         6.37873177E-09
  0.203999996         5.53340485E-09
  0.204999998         3.68878617E-09
  0.206000000         1.03693454E-09
  0.207000002        -2.08487538E-09
  0.208000004        -5.23365307E-09
  0.209000006        -7.92131161E-09
  0.209999993        -9.68821201E-09
  0.210999995        -1.01780948E-08
  0.211999997        -9.20139609E-09
  0.213000000        -6.77494238E-09
  0.214000002        -3.12957193E-09
  0.215000004         1.31712519E-09
  0.216000006         6.01910566E-09
  0.216999993         1.03811004E-08
  0.217999995         1.38442582E-08
  0.218999997         1.59622768E-08
  0.219999999         1.64541767E-08
  0.221000001         1.52250905E-08
  0.222000003         1.23537101E-08
  0.223000005         8.05257994E-09
  0.224000007         2.61344657E-09
  0.224999994        -3.64718611E-09
  0.225999996        -1.04280362E-08
  0.226999998        -1.74587704E-08
  0.228000000        -2.44885694E-08
  0.229000002        -3.12519290E-08
  0.230000004        -3.74217777E-08
  0.231000006        -4.25623483E-08
  0.231999993        -4.60925591E-08
  0.232999995        -4.72651287E-08
  0.233999997        -4.51594744E-08
  0.234999999        -3.86790155E-08
  0.236000001        -2.65392703E-08
  0.237000003        -7.23279525E-09
  0.238000005         2.10381863E-08
  0.238999993         6.04624830E-08
  0.239999995         1.13745358E-07
  0.240999997         1.84242808E-07
  0.241999999         2.76086752E-07
  0.243000001         3.94286758E-07
  0.244000003         5.44805687E-07
  0.245000005         7.34621381E-07
  0.246000007         9.71801683E-07
  0.246999994         1.26563145E-06
  0.247999996         1.62683284E-06
  0.248999998         2.06791401E-06
  0.250000000         2.60366460E-06
  0.250999987         3.25179622E-06
  0.252000004         4.03370586E-06
  0.252999991         4.97532210E-06
  0.254000008         6.10798998E-06
  0.254999995         7.46936394E-06
  0.256000012         9.10428935E-06
  0.256999999         1.10656893E-05
  0.257999986         1.34154952E-05
  0.259000003         1.62256874E-05
  0.259999990         1.95795055E-05
  0.261000007         2.35729167E-05
  0.261999995         2.83163608E-05
  0.263000011         3.39367980E-05
  0.263999999         4.05800238E-05
  0.264999986         4.84132070E-05
  0.266000003         5.76275779E-05
  0.266999990         6.84412080E-05
  0.268000007         8.11018690E-05
  0.268999994         9.58899109E-05
  0.270000011         1.13121256E-04
  0.270999998         1.33150475E-04
  0.272000015         1.56374095E-04
  0.273000002         1.83234122E-04
  0.273999989         2.14221654E-04
  0.275000006         2.49880832E-04
  0.275999993         2.90812546E-04
  0.277000010         3.37678182E-04
  0.277999997         3.91203066E-04
  0.279000014         4.52179258E-04
  0.280000001         5.21467940E-04
  0.280999988         6.00001076E-04
  0.282000005         6.88782253E-04
  0.282999992         7.88886566E-04
  0.284000009         9.01460007E-04
  0.284999996         1.02771749E-03
  0.286000013         1.16894010E-03
  0.287000000         1.32647110E-03
  0.287999988         1.50171027E-03
  0.289000005         1.69610628E-03
  0.289999992         1.91114773E-03
  0.291000009         2.14835117E-03
  0.291999996         2.40924768E-03
  0.293000013         2.69536604E-03
  0.294000000         3.00821383E-03
  0.294999987         3.34925693E-03
  0.296000004         3.71989561E-03
  0.296999991         4.12143953E-03
  0.298000008         4.55508055E-03
  0.298999995         5.02186315E-03
  0.300000012         5.52265439E-03
  0.300999999         6.05810899E-03
  0.301999986         6.62863581E-03
  0.303000003         7.23436195E-03
  0.303999990         7.87509698E-03
  0.305000007         8.55029281E-03
  0.305999994         9.25901253E-03
  0.307000011         9.99988802E-03
  0.307999998         1.07710930E-02
  0.308999985         1.15703093E-02
  0.310000002         1.23946993E-02
  0.310999990         1.32408850E-02
  0.312000006         1.41049288E-02
  0.312999994         1.49823241E-02
  0.314000010         1.58679858E-02
  0.314999998         1.67562552E-02
  0.316000015         1.76409036E-02
  0.317000002         1.85151547E-02
  0.317999989         1.93717070E-02
  0.319000006         2.02027746E-02
  0.319999993         2.10001282E-02
  0.321000010         2.17551515E-02
  0.321999997         2.24589091E-02
  0.323000014         2.31022220E-02
  0.324000001         2.36757509E-02
  0.324999988         2.41700914E-02
  0.326000005         2.45758686E-02
  0.326999992         2.48838589E-02
  0.328000009         2.50850935E-02
  0.328999996         2.51709819E-02
  0.330000013         2.51334328E-02
  0.331000000         2.49649752E-02
  0.331999987         2.46588811E-02
  0.333000004         2.42092852E-02
  0.333999991         2.36113016E-02
  0.335000008         2.28611305E-02
  0.335999995         2.19561663E-02
  0.337000012         2.08950806E-02
  0.338000000         1.96779110E-02
  0.338999987         1.83061212E-02
  0.340000004         1.67826489E-02
  0.340999991         1.51119400E-02
  0.342000008         1.32999588E-02
  0.342999995         1.13541819E-02
  0.344000012         9.28357150E-03
  0.344999999         7.09853042E-03
  0.345999986         4.81083291E-03
  0.347000003         2.43353983E-03
  0.347999990        -1.91083927E-05
  0.349000007        -2.53181462E-03
  0.349999994        -5.08836703E-03
  0.351000011        -7.67179579E-03
  0.351999998        -1.02645447E-02
  0.352999985        -1.28486510E-02
  0.354000002        -1.54059380E-02
  0.354999989        -1.79182123E-02
  0.356000006        -2.03674641E-02
  0.356999993        -2.27360614E-02
  0.358000010        -2.50069518E-02
  0.358999997        -2.71638446E-02
  0.360000014        -2.91914009E-02
  0.361000001        -3.10753956E-02
  0.361999989        -3.28028835E-02
  0.363000005        -3.43623310E-02
  0.363999993        -3.57437357E-02
  0.365000010        -3.69387418E-02
  0.365999997        -3.79407033E-02
  0.367000014        -3.87447551E-02
  0.368000001        -3.93478312E-02
  0.368999988        -3.97486910E-02
  0.370000005        -3.99478897E-02
  0.370999992        -3.99477482E-02
  0.372000009        -3.97523008E-02
  0.372999996        -3.93672176E-02
  0.374000013        -3.87996994E-02
  0.375000000        -3.80583741E-02
  0.375999987        -3.71531583E-02
  0.377000004        -3.60951126E-02
  0.377999991        -3.48962881E-02
  0.379000008        -3.35695669E-02
  0.379999995        -3.21284980E-02
  0.381000012        -3.05871181E-02
  0.381999999        -2.89597977E-02
  0.382999986        -2.72610709E-02
  0.384000003        -2.55054738E-02
  0.384999990        -2.37073842E-02
  0.386000007        -2.18808819E-02
  0.386999995        -2.00396031E-02
  0.388000011        -1.81966238E-02
  0.388999999        -1.63643528E-02
  0.389999986        -1.45544382E-02
  0.391000003        -1.27776833E-02
  0.391999990        -1.10439882E-02
  0.393000007        -9.36229527E-03
  0.393999994        -7.74055440E-03
  0.395000011        -6.18570298E-03
  0.395999998        -4.70365677E-03
  0.397000015        -3.29931779E-03
  0.398000002        -1.97659247E-03
  0.398999989        -7.38421339E-04
  0.400000006         4.13181115E-04
  0.400999993         1.47707760E-03
  0.402000010         2.45295279E-03
  0.402999997         3.34125105E-03
  0.404000014         4.14311094E-03
  0.405000001         4.86029452E-03
  0.405999988         5.49511798E-03
  0.407000005         6.05038181E-03
  0.407999992         6.52930234E-03
  0.409000009         6.93544326E-03
  0.409999996         7.27265235E-03
  0.411000013         7.54499435E-03
  0.412000000         7.75669329E-03
  0.412999988         7.91207142E-03
  0.414000005         8.01549945E-03
  0.414999992         8.07134807E-03
  0.416000009         8.08394421E-03
  0.416999996         8.05753749E-03
  0.418000013         7.99626857E-03
  0.419000000         7.90413842E-03
  0.419999987         7.78498873E-03
  0.421000004         7.64247729E-03
  0.421999991         7.48006441E-03
  0.423000008         7.30100134E-03
  0.423999995         7.10832328E-03
  0.425000012         6.90484885E-03
  0.425999999         6.69317693E-03
  0.426999986         6.47569029E-03
  0.428000003         6.25455473E-03
  0.428999990         6.03172136E-03
  0.430000007         5.80892898E-03
  0.430999994         5.58770867E-03
  0.432000011         5.36939129E-03
  0.432999998         5.15511958E-03
  0.433999985         4.94585792E-03
  0.435000002         4.74240817E-03
  0.435999990         4.54542181E-03
  0.437000006         4.35541058E-03
  0.437999994         4.17275866E-03
  0.439000010         3.99772916E-03
  0.439999998         3.83047550E-03
  0.441000015         3.67104914E-03
  0.442000002         3.51940957E-03
  0.442999989         3.37543478E-03
  0.444000006         3.23893200E-03
  0.444999993         3.10964952E-03
  0.446000010         2.98728840E-03
  0.446999997         2.87151267E-03
  0.448000014         2.76196166E-03
  0.449000001         2.65825866E-03
  0.449999988         2.56002042E-03
  0.451000005         2.46686325E-03
  0.451999992         2.37840926E-03
  0.453000009         2.29429104E-03
  0.453999996         2.21415516E-03
  0.455000013         2.13766750E-03
  0.456000000         2.06451770E-03
  0.456999987         1.99442380E-03
  0.458000004         1.92713621E-03
  0.458999991         1.86244003E-03
  0.460000008         1.80015515E-03
  0.460999995         1.74013479E-03
  0.462000012         1.68226310E-03
  0.463000000         1.62645290E-03
  0.463999987         1.57264387E-03
  0.465000004         1.52080110E-03
  0.465999991         1.47091364E-03
  0.467000008         1.42299163E-03
  0.467999995         1.37706124E-03
  0.469000012         1.33315846E-03
  0.469999999         1.29132159E-03
  0.470999986         1.25158462E-03
  0.472000003         1.21397153E-03
  0.472999990         1.17849314E-03
  0.474000007         1.14514597E-03
  0.474999994         1.11391197E-03
  0.476000011         1.08475797E-03
  0.476999998         1.05763518E-03
  0.477999985         1.03247771E-03
  0.479000002         1.00920105E-03
  0.479999989         9.87701816E-04
  0.481000006         9.67858650E-04
  0.481999993         9.49534762E-04
  0.483000010         9.32581781E-04
  0.483999997         9.16844059E-04
  0.485000014         9.02162748E-04
  0.486000001         8.88379582E-04
  0.486999989         8.75340309E-04
  0.488000005         8.62897839E-04
  0.488999993         8.50915851E-04
  0.490000010         8.39272165E-04
  0.490999997         8.27862241E-04
  0.492000014         8.16602085E-04
  0.493000001         8.05429707E-04
  0.493999988         7.94306106E-04
  0.495000005         7.83214811E-04
  0.495999992         7.72160536E-04
  0.497000009         7.61167204E-04
  0.497999996         7.50274747E-04
  0.499000013         7.39534909E-04
  0.500000000         7.29006075E-04
  0.500999987         7.18746858E-04
  0.501999974         7.08809879E-04
  0.503000021         6.99236465E-04
  0.504000008         6.90052111E-04
  0.504999995         6.81264326E-04
  0.505999982         6.72861119E-04
  0.507000029         6.64810359E-04
  0.508000016         6.57059252E-04
  0.509000003         6.49533467E-04
  0.509999990         6.42136903E-04
  0.510999978         6.34752447E-04
  0.512000024         6.27245347E-04
  0.513000011         6.19468745E-04
  0.513999999         6.11271884E-04
  0.514999986         6.02509361E-04
  0.515999973         5.93050732E-04
  0.517000020         5.82789071E-04
  0.518000007         5.71648590E-04
  0.518999994         5.59590932E-04
  0.519999981         5.46621683E-04
  0.521000028         5.32796548E-04
  0.522000015         5.18228160E-04
  0.523000002         5.03092015E-04
  0.523999989         4.87630954E-04
  0.524999976         4.72156622E-04
  0.526000023         4.57047630E-04
  0.527000010         4.42743854E-04
  0.527999997         4.29738167E-04
  0.528999984         4.18565935E-04
  0.529999971         4.09793720E-04
  0.531000018         4.04007529E-04
  0.532000005         4.01800935E-04
  0.532999992         4.03763086E-04
  0.533999979         4.10466775E-04
  0.535000026         4.22456680E-04
  0.536000013         4.40238044E-04
  0.537000000         4.64266690E-04
  0.537999988         4.94940672E-04
  0.538999975         5.32594393E-04
  0.540000021         5.77495957E-04
  0.541000009         6.29848219E-04
  0.541999996         6.89794309E-04
  0.542999983         7.57428119E-04
  0.544000030         8.32810416E-04
  0.545000017         9.15989629E-04
  0.546000004         1.00702676E-03
  0.546999991         1.10602344E-03
  0.547999978         1.21315150E-03
  0.549000025         1.32868299E-03
  0.550000012         1.45302014E-03
  0.550999999         1.58672559E-03
  0.551999986         1.73055171E-03
  0.552999973         1.88546942E-03
  0.554000020         2.05269502E-03
  0.555000007         2.23371293E-03
  0.555999994         2.43029301E-03
  0.556999981         2.64449907E-03
  0.558000028         2.87868711E-03
  0.559000015         3.13549442E-03
  0.560000002         3.41781671E-03
  0.560999990         3.72877810E-03
  0.561999977         4.07168921E-03
  0.563000023         4.44999663E-03
  0.564000010         4.86722356E-03
  0.564999998         5.32689877E-03
  0.565999985         5.83247840E-03
  0.566999972         6.38725609E-03
  0.568000019         6.99426839E-03
  0.569000006         7.65619474E-03
  0.569999993         8.37525353E-03
  0.570999980         9.15309694E-03
  0.572000027         9.99071263E-03
  0.573000014         1.08883223E-02
  0.574000001         1.18452879E-02
  0.574999988         1.28600271E-02
  0.575999975         1.39299389E-02
  0.577000022         1.50513379E-02
  0.578000009         1.62194110E-02
  0.578999996         1.74281895E-02
  0.579999983         1.86705310E-02
  0.580999970         1.99381337E-02
  0.582000017         2.12215651E-02
  0.583000004         2.25103069E-02
  0.583999991         2.37928219E-02
  0.584999979         2.50566490E-02
  0.586000025         2.62885075E-02
  0.587000012         2.74744313E-02
  0.588000000         2.85999179E-02
  0.588999987         2.96500884E-02
  0.589999974         3.06098741E-02
  0.591000021         3.14642042E-02
  0.592000008         3.21982093E-02
  0.592999995         3.27974185E-02
  0.593999982         3.32479738E-02
  0.595000029         3.35368253E-02
  0.596000016         3.36519480E-02
  0.597000003         3.35825272E-02
  0.597999990         3.33191417E-02
  0.598999977         3.28539312E-02
  0.600000024         3.21807489E-02
  0.601000011         3.12952809E-02
  0.601999998         3.01951785E-02
  0.602999985         2.88801268E-02
  0.603999972         2.73519102E-02
  0.605000019         2.56144516E-02
  0.606000006         2.36738101E-02
  0.606999993         2.15381570E-02
  0.607999980         1.92177240E-02
  0.609000027         1.67247187E-02
  0.610000014         1.40732201E-02
  0.611000001         1.12790447E-02
  0.611999989         8.35959055E-03
  0.612999976         5.33366250E-03
  0.614000022         2.22127466E-03
  0.615000010        -9.56561940E-04
  0.615999997        -4.17806488E-03
  0.616999984        -7.42091564E-03
  0.617999971        -1.06624989E-02
  0.619000018        -1.38801495E-02
  0.620000005        -1.70513876E-02
  0.620999992        -2.01541577E-02
  0.621999979        -2.31670570E-02
  0.623000026        -2.60695573E-02
  0.624000013        -2.88422070E-02
  0.625000000        -3.14668193E-02
  0.625999987        -3.39266509E-02
  0.626999974        -3.62065546E-02
  0.628000021        -3.82931046E-02
  0.629000008        -4.01747078E-02
  0.629999995        -4.18416858E-02
  0.630999982        -4.32863347E-02
  0.632000029        -4.45029549E-02
  0.633000016        -4.54878733E-02
  0.634000003        -4.62394133E-02
  0.634999990        -4.67578694E-02
  0.635999978        -4.70454358E-02
  0.637000024        -4.71061356E-02
  0.638000011        -4.69457246E-02
  0.638999999        -4.65715863E-02
  0.639999986        -4.59926017E-02
  0.640999973        -4.52190079E-02
  0.642000020        -4.42622639E-02
  0.643000007        -4.31348868E-02
  0.643999994        -4.18502800E-02
  0.644999981        -4.04225849E-02
  0.646000028        -3.88665013E-02
  0.647000015        -3.71971354E-02
  0.648000002        -3.54298353E-02
  0.648999989        -3.35800387E-02
  0.649999976        -3.16631347E-02
  0.651000023        -2.96943169E-02
  0.652000010        -2.76884641E-02
  0.652999997        -2.56600119E-02
  0.653999984        -2.36228481E-02
  0.654999971        -2.15902142E-02
  0.656000018        -1.95746161E-02
  0.657000005        -1.75877586E-02
  0.657999992        -1.56404730E-02
  0.658999979        -1.37426825E-02
  0.660000026        -1.19033596E-02
  0.661000013        -1.01305060E-02
  0.662000000        -8.43114220E-03
  0.662999988        -6.81130495E-03
  0.663999975        -5.27606066E-03
  0.665000021        -3.82952183E-03
  0.666000009        -2.47487426E-03
  0.666999996        -1.21440913E-03
  0.667999983        -4.95624809E-05
  0.669000030         1.01904105E-03
  0.670000017         1.99153903E-03
  0.671000004         2.86877831E-03
  0.671999991         3.65225715E-03
  0.672999978         4.34406614E-03
  0.674000025         4.94682789E-03
  0.675000012         5.46363648E-03
  0.675999999         5.89799555E-03
  0.676999986         6.25375984E-03
  0.677999973         6.53507607E-03
  0.679000020         6.74632471E-03
  0.680000007         6.89206365E-03
  0.680999994         6.97697606E-03
  0.681999981         7.00582238E-03
  0.683000028         6.98339567E-03
  0.684000015         6.91448245E-03
  0.685000002         6.80382829E-03
  0.685999990         6.65610516E-03
  0.686999977         6.47588400E-03
  0.688000023         6.26760768E-03
  0.689000010         6.03556866E-03