-0.1200000E+00  0.0000000E+00
-0.1189000E+00  0.0000000E+00
-0.1178000E+00  0.0000000E+00
-0.1167000E+00  0.0000000E+00
-0.1156000E+00  0.0000000E+00
-0.1145000E+00  0.0000000E+00
-0.1134000E+00  0.0000000E+00
-0.1123000E+00  0.0000000E+00
-0.1112000E+00  0.0000000E+00
-0.1101000E+00  0.0000000E+00
-0.1090000E+00  0.0000000E+00
-0.1079000E+00 -0.6365803E-36
-0.1068000E+00 -0.4665534E-33
-0.1057000E+00 -0.1101924E-31
-0.1046000E+00 -0.1241234E-30
-0.1035000E+00 -0.8831278E-30
-0.1024000E+00 -0.4401584E-29
-0.1013000E+00 -0.1582667E-28
-0.1002000E+00 -0.3891152E-28
-0.9910000E-01 -0.4315101E-28
-0.9800000E-01  0.1403104E-27
-0.9690000E-01  0.1006947E-26
-0.9580000E-01  0.3450356E-26
-0.9470000E-01  0.7982464E-26
-0.9360000E-01  0.1173912E-25
-0.9250000E-01  0.2412397E-26
-0.9140000E-01 -0.4763061E-25
-0.9030000E-01 -0.1741311E-24
-0.8920000E-01 -0.3766594E-24
-0.8810000E-01 -0.5183996E-24
-0.8700000E-01 -0.2029655E-24
-0.8590000E-01  0.1221097E-23
-0.8480000E-01  0.4243820E-23
-0.8370000E-01  0.8111228E-23
-0.8260000E-01  0.9299922E-23
-0.8150000E-01  0.8492252E-24
-0.8040000E-01 -0.2490863E-22
-0.7930000E-01 -0.6770611E-22
-0.7820000E-01 -0.1056785E-21
-0.7710000E-01 -0.8544665E-22
-0.7600000E-01  0.6588420E-22
-0.7490000E-01  0.3869344E-21
-0.7380000E-01  0.7858858E-21
-0.7270000E-01  0.9488410E-21
-0.7160000E-01  0.3598296E-21
-0.7050000E-01 -0.1437281E-20
-0.6940000E-01 -0.4290976E-20
-0.6830000E-01 -0.6804065E-20
-0.6720000E-01 -0.6130598E-20
-0.6610000E-01  0.1075828E-20
-0.6500000E-01  0.1613568E-19
-0.6390000E-01  0.3482554E-19
-0.6280000E-01  0.4499604E-19
-0.6170000E-01  0.2863543E-19
-0.6060000E-01 -0.2890884E-19
-0.5950000E-01 -0.1233810E-18
-0.5840000E-01 -0.2166985E-18
-0.5730000E-01 -0.2354202E-18
-0.5620000E-01 -0.9570228E-19
-0.5510000E-01  0.2420943E-18
-0.5400000E-01  0.7064770E-18
-0.5290000E-01  0.1075979E-17
-0.5180000E-01  0.1018495E-17
-0.5070000E-01  0.2381567E-18
-0.4960000E-01 -0.1297571E-17
-0.4850000E-01 -0.3152722E-17
-0.4740000E-01 -0.4392139E-17
-0.4630000E-01 -0.3852912E-17
-0.4520000E-01 -0.7193524E-18
-0.4410000E-01  0.4793365E-17
-0.4300000E-01  0.1101055E-16
-0.4190000E-01  0.1500210E-16
-0.4080000E-01  0.1357629E-16
-0.3970000E-01  0.4810648E-17
-0.3860000E-01 -0.1053425E-16
-0.3750000E-01 -0.2849599E-16
-0.3640000E-01 -0.4273744E-16
-0.3530000E-01 -0.4648372E-16
-0.3420000E-01 -0.3468264E-16
-0.3310000E-01 -0.5400641E-17
-0.3200000E-01  0.3983389E-16
-0.3090000E-01  0.9587837E-16
-0.2980000E-01  0.1525235E-15
-0.2870000E-01  0.1912047E-15
-0.2760000E-01  0.1821220E-15
-0.2650000E-01  0.8725175E-16
-0.2540000E-01 -0.1244430E-15
-0.2430000E-01 -0.4478465E-15
-0.2320000E-01 -0.8073194E-15
-0.2210000E-01 -0.1038462E-14
-0.2100000E-01 -0.9136973E-15
-0.1990000E-01 -0.2301151E-15
-0.1880000E-01  0.1050944E-14
-0.1770000E-01  0.2664583E-14
-0.1660000E-01  0.3989300E-14
-0.1550000E-01  0.4165983E-14
-0.1440000E-01  0.2421387E-14
-0.1330000E-01 -0.1473329E-14
-0.1220000E-01 -0.6791790E-14
-0.1110000E-01 -0.1173550E-13
-0.1000000E-01 -0.1381117E-13
-0.8900000E-02 -0.1072616E-13
-0.7800000E-02 -0.1564698E-14
-0.6700000E-02  0.1222867E-13
-0.5600000E-02  0.2660670E-13
-0.4500000E-02  0.3578553E-13
-0.3400000E-02  0.3416587E-13
-0.2300000E-02  0.1874143E-13
-0.1200000E-02 -0.8944565E-14
-0.1000000E-03 -0.4224152E-13
 0.1000000E-02 -0.7074419E-13
 0.2100000E-02 -0.8332317E-13
 0.3200000E-02 -0.7186400E-13
 0.4300000E-02 -0.3437876E-13
 0.5400000E-02  0.2363271E-13
 0.6500000E-02  0.8998034E-13
 0.7600000E-02  0.1482992E-12
 0.8700000E-02  0.1813268E-12
 0.9800000E-02  0.1740991E-12
 0.1090000E-01  0.1168546E-12
 0.1200000E-01  0.8073744E-14
 0.1310000E-01 -0.1419282E-12
 0.1420000E-01 -0.3074290E-12
 0.1530000E-01 -0.4459529E-12
 0.1640000E-01 -0.5025652E-12
 0.1750000E-01 -0.4226897E-12
 0.1860000E-01 -0.1732956E-12
 0.1970000E-01  0.2327051E-12
 0.2080000E-01  0.7189153E-12
 0.2190000E-01  0.1146682E-11
 0.2300000E-01  0.1343400E-11
 0.2410000E-01  0.1156742E-11
 0.2520000E-01  0.5211330E-12
 0.2630000E-01 -0.4877189E-12
 0.2740000E-01 -0.1636991E-11
 0.2850000E-01 -0.2577562E-11
 0.2960000E-01 -0.2940249E-11
 0.3070000E-01 -0.2462973E-11
 0.3180000E-01 -0.1106455E-11
 0.3290000E-01  0.8875069E-12
 0.3400000E-01  0.3026466E-11
 0.3510000E-01  0.4688380E-11
 0.3620000E-01  0.5301609E-11
 0.3730000E-01  0.4527855E-11
 0.3840000E-01  0.2387455E-11
 0.3950000E-01 -0.7157149E-12
 0.4060000E-01 -0.4079024E-11
 0.4170000E-01 -0.6869414E-11
 0.4280000E-01 -0.8325588E-11
 0.4390000E-01 -0.7940769E-11
 0.4500000E-01 -0.5587054E-11
 0.4610000E-01 -0.1564728E-11
 0.4720000E-01  0.3422543E-11
 0.4830000E-01  0.8359934E-11
 0.4940000E-01  0.1207825E-10
 0.5050000E-01  0.1347466E-10
 0.5160000E-01  0.1178499E-10
 0.5270000E-01  0.6864777E-11
 0.5380000E-01 -0.6022811E-12
 0.5490000E-01 -0.9073994E-11
 0.5600000E-01 -0.1638575E-10
 0.5710000E-01 -0.2027053E-10
 0.5820000E-01 -0.1906757E-10
 0.5930000E-01 -0.1241007E-10
 0.6040000E-01 -0.1621458E-11
 0.6150000E-01  0.1041101E-10
 0.6260000E-01  0.1996549E-10
 0.6370000E-01  0.2367256E-10
 0.6480000E-01  0.1979624E-10
 0.6590000E-01  0.9129905E-11
 0.6700000E-01 -0.4913564E-11
 0.6810000E-01 -0.1719639E-10
 0.6920000E-01 -0.2255757E-10
 0.7030000E-01 -0.1779929E-10
 0.7140000E-01 -0.3244500E-11
 0.7250000E-01  0.1678859E-10
 0.7360000E-01  0.3493151E-10
 0.7470000E-01  0.4298391E-10
 0.7580000E-01  0.3477946E-10
 0.7690000E-01  0.8773807E-11
 0.7800000E-01 -0.3056654E-10
 0.7910000E-01 -0.7317490E-10
 0.8020000E-01 -0.1056552E-09
 0.8130000E-01 -0.1148925E-09
 0.8240000E-01 -0.9204860E-10
 0.8350000E-01 -0.3583111E-10
 0.8460000E-01  0.4591847E-10
 0.8570000E-01  0.1368697E-09
 0.8680000E-01  0.2151049E-09
 0.8790000E-01  0.2577858E-09
 0.8900000E-01  0.2466845E-09
 0.9010000E-01  0.1734315E-09
 0.9120000E-01  0.4326800E-10
 0.9230000E-01 -0.1237903E-09
 0.9340000E-01 -0.2951172E-09
 0.9450000E-01 -0.4311247E-09
 0.9560000E-01 -0.4937470E-09
 0.9670000E-01 -0.4562121E-09
 0.9780000E-01 -0.3117948E-09
 0.9890000E-01 -0.7893799E-10
 0.1000000E+00  0.1994689E-09
 0.1011000E+00  0.4636378E-09
 0.1022000E+00  0.6503788E-09
 0.1033000E+00  0.7096467E-09
 0.1044000E+00  0.6197206E-09
 0.1055000E+00  0.3962320E-09
 0.1066000E+00  0.9139327E-10
 0.1077000E+00 -0.2176821E-09
 0.1088000E+00 -0.4493904E-09
 0.1099000E+00 -0.5415533E-09
 0.1110000E+00 -0.4718758E-09
 0.1121000E+00 -0.2682865E-09
 0.1132000E+00 -0.4971401E-11
 0.1143000E+00  0.2160754E-09
 0.1154000E+00  0.2937523E-09
 0.1165000E+00  0.1591704E-09
 0.1176000E+00 -0.1993248E-09
 0.1187000E+00 -0.7250351E-09
 0.1198000E+00 -0.1299704E-08
 0.1209000E+00 -0.1767404E-08
 0.1220000E+00 -0.1970039E-08
 0.1231000E+00 -0.1785811E-08
 0.1242000E+00 -0.1161226E-08
 0.1253000E+00 -0.1288869E-09
 0.1264000E+00  0.1193001E-08
 0.1275000E+00  0.2618928E-08
 0.1286000E+00  0.3927402E-08
 0.1297000E+00  0.4897595E-08
 0.1308000E+00  0.5342663E-08
 0.1319000E+00  0.5132413E-08
 0.1330000E+00  0.4201145E-08
 0.1341000E+00  0.2540938E-08
 0.1352000E+00  0.1852226E-09
 0.1363000E+00 -0.2808911E-08
 0.1374000E+00 -0.6369672E-08
 0.1385000E+00 -0.1040212E-07
 0.1396000E+00 -0.1475788E-07
 0.1407000E+00 -0.1918509E-07
 0.1418000E+00 -0.2326752E-07
 0.1429000E+00 -0.2636753E-07
 0.1440000E+00 -0.2758861E-07
 0.1451000E+00 -0.2577033E-07
 0.1462000E+00 -0.1951910E-07
 0.1473000E+00 -0.7266923E-08
 0.1484000E+00  0.1266220E-07
 0.1495000E+00  0.4200660E-07
 0.1506000E+00  0.8257179E-07
 0.1517000E+00  0.1363091E-06
 0.1528000E+00  0.2054773E-06
 0.1539000E+00  0.2928798E-06
 0.1550000E+00  0.4021554E-06
 0.1561000E+00  0.5380900E-06
 0.1572000E+00  0.7069215E-06
 0.1583000E+00  0.9166159E-06
 0.1594000E+00  0.1177116E-05
 0.1605000E+00  0.1500580E-05
 0.1616000E+00  0.1901649E-05
 0.1627000E+00  0.2397784E-05
 0.1638000E+00  0.3009722E-05
 0.1649000E+00  0.3762072E-05
 0.1660000E+00  0.4684086E-05
 0.1671000E+00  0.5810576E-05
 0.1682000E+00  0.7182985E-05
 0.1693000E+00  0.8850566E-05
 0.1704000E+00  0.1087167E-04
 0.1715000E+00  0.1331508E-04
 0.1726000E+00  0.1626149E-04
 0.1737000E+00  0.1980497E-04
 0.1748000E+00  0.2405472E-04
 0.1759000E+00  0.2913679E-04
 0.1770000E+00  0.3519619E-04
 0.1781000E+00  0.4239915E-04
 0.1792000E+00  0.5093562E-04
 0.1803000E+00  0.6102208E-04
 0.1814000E+00  0.7290445E-04
 0.1825000E+00  0.8686120E-04
 0.1836000E+00  0.1032064E-03
 0.1847000E+00  0.1222930E-03
 0.1858000E+00  0.1445154E-03
 0.1869000E+00  0.1703121E-03
 0.1880000E+00  0.2001687E-03
 0.1891000E+00  0.2346195E-03
 0.1902000E+00  0.2742495E-03
 0.1913000E+00  0.3196960E-03
 0.1924000E+00  0.3716495E-03
 0.1935000E+00  0.4308544E-03
 0.1946000E+00  0.4981083E-03
 0.1957000E+00  0.5742608E-03
 0.1968000E+00  0.6602110E-03
 0.1979000E+00  0.7569031E-03
 0.1990000E+00  0.8653211E-03
 0.2001000E+00  0.9864813E-03
 0.2012000E+00  0.1121423E-02
 0.2023000E+00  0.1271199E-02
 0.2034000E+00  0.1436860E-02
 0.2045000E+00  0.1619443E-02
 0.2056000E+00  0.1819952E-02
 0.2067000E+00  0.2039344E-02
 0.2078000E+00  0.2278502E-02
 0.2089000E+00  0.2538218E-02
 0.2100000E+00  0.2819165E-02
 0.2111000E+00  0.3121871E-02
 0.2122000E+00  0.3446695E-02
 0.2133000E+00  0.3793794E-02
 0.2144000E+00  0.4163095E-02
 0.2155000E+00  0.4554268E-02
 0.2166000E+00  0.4966700E-02
 0.2177000E+00  0.5399460E-02
 0.2188000E+00  0.5851282E-02
 0.2199000E+00  0.6320540E-02
 0.2210000E+00  0.6805227E-02
 0.2221000E+00  0.7302938E-02
 0.2232000E+00  0.7810865E-02
 0.2243000E+00  0.8325781E-02
 0.2254000E+00  0.8844052E-02
 0.2265000E+00  0.9361636E-02
 0.2276000E+00  0.9874095E-02
 0.2287000E+00  0.1037663E-01
 0.2298000E+00  0.1086409E-01
 0.2309000E+00  0.1133104E-01
 0.2320000E+00  0.1177179E-01
 0.2331000E+00  0.1218043E-01
 0.2342000E+00  0.1255095E-01
 0.2353000E+00  0.1287723E-01
 0.2364000E+00  0.1315320E-01
 0.2375000E+00  0.1337287E-01
 0.2386000E+00  0.1353041E-01
 0.2397000E+00  0.1362030E-01
 0.2408000E+00  0.1363736E-01
 0.2419000E+00  0.1357689E-01
 0.2430000E+00  0.1343471E-01
 0.2441000E+00  0.1320732E-01
 0.2452000E+00  0.1289192E-01
 0.2463000E+00  0.1248652E-01
 0.2474000E+00  0.1199000E-01
 0.2485000E+00  0.1140219E-01
 0.2496000E+00  0.1072389E-01
 0.2507000E+00  0.9956904E-02
 0.2518000E+00  0.9104086E-02
 0.2529000E+00  0.8169333E-02
 0.2540000E+00  0.7157570E-02
 0.2551000E+00  0.6074727E-02
 0.2562000E+00  0.4927694E-02
 0.2573000E+00  0.3724260E-02
 0.2584000E+00  0.2473036E-02
 0.2595000E+00  0.1183363E-02
 0.2606000E+00 -0.1347916E-03
 0.2617000E+00 -0.1470949E-02
 0.2628000E+00 -0.2814247E-02
 0.2639000E+00 -0.4153578E-02
 0.2650000E+00 -0.5477729E-02
 0.2661000E+00 -0.6775529E-02
 0.2672000E+00 -0.8035996E-02
 0.2683000E+00 -0.9248481E-02
 0.2694000E+00 -0.1040281E-01
 0.2705000E+00 -0.1148942E-01
 0.2716000E+00 -0.1249948E-01
 0.2727000E+00 -0.1342500E-01
 0.2738000E+00 -0.1425896E-01
 0.2749000E+00 -0.1499534E-01
 0.2760000E+00 -0.1562925E-01
 0.2771000E+00 -0.1615695E-01
 0.2782000E+00 -0.1657589E-01
 0.2793000E+00 -0.1688473E-01
 0.2804000E+00 -0.1708334E-01
 0.2815000E+00 -0.1717275E-01
 0.2826000E+00 -0.1715515E-01
 0.2837000E+00 -0.1703382E-01
 0.2848000E+00 -0.1681303E-01
 0.2859000E+00 -0.1649800E-01
 0.2870000E+00 -0.1609475E-01
 0.2881000E+00 -0.1561007E-01
 0.2892000E+00 -0.1505132E-01
 0.2903000E+00 -0.1442638E-01
 0.2914000E+00 -0.1374351E-01
 0.2925000E+00 -0.1301120E-01
 0.2936000E+00 -0.1223808E-01
 0.2947000E+00 -0.1143278E-01
 0.2958000E+00 -0.1060382E-01
 0.2969000E+00 -0.9759530E-02
 0.2980000E+00 -0.8907906E-02
 0.2991000E+00 -0.8056561E-02
 0.3002000E+00 -0.7212633E-02
 0.3013000E+00 -0.6382723E-02
 0.3024000E+00 -0.5572842E-02
 0.3035000E+00 -0.4788371E-02
 0.3046000E+00 -0.4034039E-02
 0.3057000E+00 -0.3313896E-02
 0.3068000E+00 -0.2631318E-02
 0.3079000E+00 -0.1989005E-02
 0.3090000E+00 -0.1389003E-02
 0.3101000E+00 -0.8327215E-03
 0.3112000E+00 -0.3209742E-03
 0.3123000E+00  0.1459851E-03
 0.3134000E+00  0.5684136E-03
 0.3145000E+00  0.9470290E-03
 0.3156000E+00  0.1282956E-02
 0.3167000E+00  0.1577671E-02
 0.3178000E+00  0.1832948E-02
 0.3189000E+00  0.2050806E-02
 0.3200000E+00  0.2233452E-02
 0.3211000E+00  0.2383236E-02
 0.3222000E+00  0.2502597E-02
 0.3233000E+00  0.2594020E-02
 0.3244000E+00  0.2659996E-02
 0.3255000E+00  0.2702983E-02
 0.3266000E+00  0.2725380E-02
 0.3277000E+00  0.2729498E-02
 0.3288000E+00  0.2717542E-02
 0.3299000E+00  0.2691593E-02
 0.3310000E+00  0.2653597E-02
 0.3321000E+00  0.2605356E-02
 0.3332000E+00  0.2548520E-02
 0.3343000E+00  0.2484594E-02
 0.3354000E+00  0.2414932E-02
 0.3365000E+00  0.2340753E-02
 0.3376000E+00  0.2263137E-02
 0.3387000E+00  0.2183045E-02
 0.3398000E+00  0.2101320E-02
 0.3409000E+00  0.2018705E-02
 0.3420000E+00  0.1935844E-02
 0.3431000E+00  0.1853304E-02
 0.3442000E+00  0.1771574E-02
 0.3453000E+00  0.1691080E-02
 0.3464000E+00  0.1612191E-02
 0.3475000E+00  0.1535223E-02
 0.3486000E+00  0.1460452E-02
 0.3497000E+00  0.1388110E-02
 0.3508000E+00  0.1318401E-02
 0.3519000E+00  0.1251495E-02
 0.3530000E+00  0.1187533E-02
 0.3541000E+00  0.1126632E-02
 0.3552000E+00  0.1068878E-02
 0.3563000E+00  0.1014326E-02
 0.3574000E+00  0.9629978E-03
 0.3585000E+00  0.9148809E-03
 0.3596000E+00  0.8699253E-03
 0.3607000E+00  0.8280419E-03
 0.3618000E+00  0.7891023E-03
 0.3629000E+00  0.7529375E-03
 0.3640000E+00  0.7193383E-03
 0.3651000E+00  0.6880572E-03
 0.3662000E+00  0.6588096E-03
 0.3673000E+00  0.6312764E-03
 0.3684000E+00  0.6051059E-03
 0.3695000E+00  0.5799141E-03
 0.3706000E+00  0.5552851E-03
 0.3717000E+00  0.5307708E-03
 0.3728000E+00  0.5058910E-03
 0.3739000E+00  0.4801342E-03
 0.3750000E+00  0.4529591E-03
 0.3761000E+00  0.4237974E-03
 0.3772000E+00  0.3920552E-03
 0.3783000E+00  0.3571135E-03
 0.3794000E+00  0.3183267E-03
 0.3805000E+00  0.2750182E-03
 0.3816000E+00  0.2264735E-03
 0.3827000E+00  0.1719318E-03
 0.3838000E+00  0.1105749E-03
 0.3849000E+00  0.4151617E-04
 0.3860000E+00 -0.3621054E-04
 0.3871000E+00 -0.1236618E-03
 0.3882000E+00 -0.2219939E-03
 0.3893000E+00 -0.3324711E-03
 0.3904000E+00 -0.4564722E-03
 0.3915000E+00 -0.5954969E-03
 0.3926000E+00 -0.7511697E-03
 0.3937000E+00 -0.9252435E-03
 0.3948000E+00 -0.1119601E-02
 0.3959000E+00 -0.1336253E-02
 0.3970000E+00 -0.1577332E-02
 0.3981000E+00 -0.1845079E-02
 0.3992000E+00 -0.2141831E-02
 0.4003000E+00 -0.2469988E-02
 0.4014000E+00 -0.2831981E-02
 0.4025000E+00 -0.3230237E-02
 0.4036000E+00 -0.3667123E-02
 0.4047000E+00 -0.4144900E-02
 0.4058000E+00 -0.4665663E-02
 0.4069000E+00 -0.5231279E-02
 0.4080000E+00 -0.5843330E-02
 0.4091000E+00 -0.6503033E-02
 0.4102000E+00 -0.7211184E-02
 0.4113000E+00 -0.7968075E-02
 0.4124000E+00 -0.8773425E-02
 0.4135000E+00 -0.9626304E-02
 0.4146000E+00 -0.1052506E-01
 0.4157000E+00 -0.1146727E-01
 0.4168000E+00 -0.1244966E-01
 0.4179000E+00 -0.1346807E-01
 0.4190000E+00 -0.1451742E-01
 0.4201000E+00 -0.1559169E-01
 0.4212000E+00 -0.1668390E-01
 0.4223000E+00 -0.1778614E-01
 0.4234000E+00 -0.1888957E-01
 0.4245000E+00 -0.1998447E-01
 0.4256000E+00 -0.2106032E-01
 0.4267000E+00 -0.2210581E-01
 0.4278000E+00 -0.2310903E-01
 0.4289000E+00 -0.2405751E-01
 0.4300000E+00 -0.2493839E-01
 0.4311000E+00 -0.2573854E-01
 0.4322000E+00 -0.2644474E-01
 0.4333000E+00 -0.2704385E-01
 0.4344000E+00 -0.2752301E-01
 0.4355000E+00 -0.2786977E-01
 0.4366000E+00 -0.2807238E-01
 0.4377000E+00 -0.2811988E-01
 0.4388000E+00 -0.2800239E-01
 0.4399000E+00 -0.2771124E-01
 0.4410000E+00 -0.2723921E-01
 0.4421000E+00 -0.2658061E-01
 0.4432000E+00 -0.2573150E-01
 0.4443000E+00 -0.2468981E-01
 0.4454000E+00 -0.2345541E-01
 0.4465000E+00 -0.2203023E-01
 0.4476000E+00 -0.2041828E-01
 0.4487000E+00 -0.1862572E-01
 0.4498000E+00 -0.1666081E-01
 0.4509000E+00 -0.1453392E-01
 0.4520000E+00 -0.1225743E-01
 0.4531000E+00 -0.9845656E-02
 0.4542000E+00 -0.7314697E-02
 0.4553000E+00 -0.4682303E-02
 0.4564000E+00 -0.1967672E-02
 0.4575000E+00  0.8087578E-03
 0.4586000E+00  0.3625544E-02
 0.4597000E+00  0.6460487E-02
 0.4608000E+00  0.9290896E-02
 0.4619000E+00  0.1209386E-01
 0.4630000E+00  0.1484654E-01
 0.4641000E+00  0.1752642E-01
 0.4652000E+00  0.2011161E-01
 0.4663000E+00  0.2258111E-01
 0.4674000E+00  0.2491506E-01
 0.4685000E+00  0.2709499E-01
 0.4696000E+00  0.2910404E-01
 0.4707000E+00  0.3092713E-01
 0.4718000E+00  0.3255121E-01
 0.4729000E+00  0.3396530E-01
 0.4740000E+00  0.3516070E-01
 0.4751000E+00  0.3613102E-01
 0.4762000E+00  0.3687220E-01
 0.4773000E+00  0.3738259E-01
 0.4784000E+00  0.3766287E-01
 0.4795000E+00  0.3771603E-01
 0.4806000E+00  0.3754728E-01
 0.4817000E+00  0.3716389E-01
 0.4828000E+00  0.3657515E-01
 0.4839000E+00  0.3579210E-01
 0.4850000E+00  0.3482744E-01
 0.4861000E+00  0.3369526E-01
 0.4872000E+00  0.3241087E-01
 0.4883000E+00  0.3099057E-01
 0.4894000E+00  0.2945140E-01
 0.4905000E+00  0.2781093E-01
 0.4916000E+00  0.2608702E-01
 0.4927000E+00  0.2429760E-01
 0.4938000E+00  0.2246041E-01
 0.4949000E+00  0.2059289E-01
 0.4960000E+00  0.1871186E-01
 0.4971000E+00  0.1683347E-01
 0.4982000E+00  0.1497295E-01
 0.4993000E+00  0.1314452E-01
 0.5004000E+00  0.1136123E-01
 0.5015000E+00  0.9634923E-02
 0.5026000E+00  0.7976125E-02
 0.5037000E+00  0.6393992E-02
 0.5048000E+00  0.4896289E-02
 0.5059000E+00  0.3489371E-02
 0.5070000E+00  0.2178196E-02
 0.5081000E+00  0.9663482E-03
 0.5092000E+00 -0.1439093E-03
 0.5103000E+00 -0.1151577E-02
 0.5114000E+00 -0.2056838E-02
 0.5125000E+00 -0.2860975E-02
 0.5136000E+00 -0.3566271E-02
 0.5147000E+00 -0.4175906E-02
 0.5158000E+00 -0.4693850E-02
 0.5169000E+00 -0.5124742E-02
 0.5180000E+00 -0.5473783E-02
 0.5191000E+00 -0.5746615E-02
 0.5202000E+00 -0.5949210E-02
 0.5213000E+00 -0.6087763E-02
 0.5224000E+00 -0.6168588E-02
 0.5235000E+00 -0.6198012E-02
 0.5246000E+00 -0.6182291E-02
 0.5257000E+00 -0.6127519E-02
 0.5268000E+00 -0.6039554E-02
 0.5279000E+00 -0.5923956E-02
 0.5290000E+00 -0.5785931E-02
 0.5301000E+00 -0.5630293E-02
 0.5312000E+00 -0.5461426E-02
 0.5323000E+00 -0.5283263E-02
 0.5334000E+00 -0.5099276E-02
 0.5345000E+00 -0.4912463E-02
 0.5356000E+00 -0.4725358E-02
 0.5367000E+00 -0.4540046E-02
 0.5378000E+00 -0.4358183E-02
 0.5389000E+00 -0.4181024E-02
 0.5400000E+00 -0.4009458E-02
 0.5411000E+00 -0.3844043E-02
 0.5422000E+00 -0.3685044E-02
 0.5433000E+00 -0.3532480E-02
 0.5444000E+00 -0.3386164E-02
 0.5455000E+00 -0.3245753E-02
 0.5466000E+00 -0.3110792E-02
 0.5477000E+00 -0.2980752E-02
 0.5488000E+00 -0.2855076E-02
 0.5499000E+00 -0.2733211E-02
 0.5510000E+00 -0.2614637E-02
 0.5521000E+00 -0.2498896E-02
 0.5532000E+00 -0.2385610E-02
 0.5543000E+00 -0.2274502E-02
 0.5554000E+00 -0.2165400E-02
 0.5565000E+00 -0.2058247E-02
 0.5576000E+00 -0.1953095E-02
 0.5587000E+00 -0.1850104E-02
 0.5598000E+00 -0.1749528E-02
 0.5609000E+00 -0.1651703E-02
 0.5620000E+00 -0.1557031E-02
 0.5631000E+00 -0.1465957E-02
 0.5642000E+00 -0.1378950E-02
 0.5653000E+00 -0.1296477E-02
 0.5664000E+00 -0.1218979E-02
 0.5675000E+00 -0.1146850E-02
 0.5686000E+00 -0.1080418E-02
 0.5697000E+00 -0.1019921E-02
 0.5708000E+00 -0.9654969E-03
 0.5719000E+00 -0.9171708E-03
 0.5730000E+00 -0.8748456E-03
 0.5741000E+00 -0.8382993E-03
 0.5752000E+00 -0.8071865E-03
 0.5763000E+00 -0.7810427E-03
 0.5774000E+00 -0.7592944E-03
 0.5785000E+00 -0.7412715E-03
 0.5796000E+00 -0.7262239E-03
 0.5807000E+00 -0.7133404E-03
 0.5818000E+00 -0.7017702E-03
 0.5829000E+00 -0.6906471E-03
 0.5840000E+00 -0.6791129E-03
 0.5851000E+00 -0.6663425E-03
 0.5862000E+00 -0.6515674E-03
 0.5873000E+00 -0.6340978E-03
 0.5884000E+00 -0.6133431E-03
 0.5895000E+00 -0.5888302E-03
 0.5906000E+00 -0.5602184E-03
 0.5917000E+00 -0.5273109E-03
 0.5928000E+00 -0.4900605E-03
 0.5939000E+00 -0.4485710E-03
 0.5950000E+00 -0.4030926E-03
 0.5961000E+00 -0.3540139E-03
 0.5972000E+00 -0.3018499E-03
 0.5983000E+00 -0.2472275E-03
 0.5994000E+00 -0.1908681E-03
 0.6005000E+00 -0.1335680E-03
 0.6016000E+00 -0.7617602E-04
 0.6027000E+00 -0.1956931E-04
 0.6038000E+00  0.3537158E-04
 0.6049000E+00  0.8778740E-04
 0.6060000E+00  0.1368634E-03
 0.6071000E+00  0.1818505E-03
 0.6082000E+00  0.2220839E-03
 0.6093000E+00  0.2570002E-03
 0.6104000E+00  0.2861514E-03
 0.6115000E+00  0.3092157E-03
 0.6126000E+00  0.3260048E-03
 0.6137000E+00  0.3364657E-03
 0.6148000E+00  0.3406776E-03
 0.6159000E+00  0.3388446E-03
 0.6170000E+00  0.3312852E-03
 0.6181000E+00  0.3184193E-03
 0.6192000E+00  0.3007530E-03
 0.6203000E+00  0.2788626E-03
 0.6214000E+00  0.2533761E-03
 0.6225000E+00  0.2249537E-03
 0.6236000E+00  0.1942673E-03
 0.6247000E+00  0.1619806E-03
 0.6258000E+00  0.1287306E-03
 0.6269000E+00  0.9511093E-04
 0.6280000E+00  0.6165858E-04
 0.6291000E+00  0.2884237E-04
 0.6302000E+00 -0.2946091E-05
 0.6313000E+00 -0.3339918E-04
 0.6324000E+00 -0.6229723E-04
 0.6335000E+00 -0.8950913E-04
 0.6346000E+00 -0.1149892E-03
 0.6357000E+00 -0.1387702E-03
 0.6368000E+00 -0.1609540E-03
 0.6379000E+00 -0.1816991E-03
 0.6390000E+00 -0.2012074E-03
 0.6401000E+00 -0.2197107E-03
 0.6412000E+00 -0.2374563E-03
 0.6423000E+00 -0.2546931E-03
 0.6434000E+00 -0.2716581E-03
 0.6445000E+00 -0.2885633E-03
 0.6456000E+00 -0.3055835E-03
 0.6467000E+00 -0.3228456E-03
 0.6478000E+00 -0.3404199E-03
 0.6489000E+00 -0.3583138E-03
 0.6500000E+00 -0.3764682E-03
 0.6511000E+00 -0.3947582E-03
 0.6522000E+00 -0.4129960E-03
 0.6533000E+00 -0.4309356E-03
 0.6544000E+00 -0.4482806E-03
 0.6555000E+00 -0.4646917E-03
 0.6566000E+00 -0.4797964E-03
 0.6577000E+00 -0.4931995E-03
 0.6588000E+00 -0.5044966E-03
 0.6599000E+00 -0.5132882E-03
 0.6610000E+00 -0.5191950E-03
 0.6621000E+00 -0.5218724E-03
 0.6632000E+00 -0.5210231E-03
 0.6643000E+00 -0.5164061E-03
 0.6654000E+00 -0.5078453E-03
 0.6665000E+00 -0.4952344E-03
 0.6676000E+00 -0.4785436E-03
 0.6687000E+00 -0.4578236E-03
 0.6698000E+00 -0.4332089E-03
 0.6709000E+00 -0.4049178E-03
 0.6720000E+00 -0.3732481E-03
 0.6731000E+00 -0.3385699E-03
 0.6742000E+00 -0.3013156E-03
 0.6753000E+00 -0.2619689E-03
 0.6764000E+00 -0.2210539E-03
 0.6775000E+00 -0.1791244E-03
 0.6786000E+00 -0.1367523E-03
 0.6797000E+00 -0.9451502E-04
 0.6808000E+00 -0.5298141E-04
 0.6819000E+00 -0.1269705E-04
 0.6830000E+00  0.2582932E-04
 0.6841000E+00  0.6213758E-04
 0.6852000E+00  0.9582561E-04
 0.6863000E+00  0.1265568E-03
 0.6874000E+00  0.1540658E-03
 0.6885000E+00  0.1781635E-03
 0.6896000E+00  0.1987399E-03
 0.6907000E+00  0.2157651E-03
 0.6918000E+00  0.2292868E-03
 0.6929000E+00  0.2394254E-03
 0.6940000E+00  0.2463676E-03
 0.6951000E+00  0.2503581E-03
 0.6962000E+00  0.2516910E-03
 0.6973000E+00  0.2507013E-03
 0.6984000E+00  0.2477543E-03
 0.6995000E+00  0.2432340E-03
 0.7006000E+00  0.2375302E-03
 0.7017000E+00  0.2310248E-03
 0.7028000E+00  0.2240798E-03
 0.7039000E+00  0.2170260E-03
 0.7050000E+00  0.2101546E-03
 0.7061000E+00  0.2037100E-03
 0.7072000E+00  0.1978840E-03
 0.7083000E+00  0.1928111E-03
 0.7094000E+00  0.1885643E-03
 0.7105000E+00  0.1851536E-03
 0.7116000E+00  0.1825260E-03
 0.7127000E+00  0.1805685E-03
 0.7138000E+00  0.1791132E-03
 0.7149000E+00  0.1779446E-03
 0.7160000E+00  0.1768085E-03
 0.7171000E+00  0.1754215E-03
 0.7182000E+00  0.1734816E-03
 0.7193000E+00  0.1706788E-03
 0.7204000E+00  0.1667057E-03
 0.7215000E+00  0.1612670E-03
 0.7226000E+00  0.1540896E-03
 0.7237000E+00  0.1449313E-03
 0.7248000E+00  0.1335900E-03
 0.7259000E+00  0.1199114E-03
 0.7270000E+00  0.1037962E-03
 0.7281000E+00  0.8520370E-04
 0.7292000E+00  0.6415394E-04
 0.7303000E+00  0.4072642E-04
 0.7314000E+00  0.1505753E-04
 0.7325000E+00 -0.1266298E-04
 0.7336000E+00 -0.4219624E-04
 0.7347000E+00 -0.7325953E-04
 0.7358000E+00 -0.1055336E-03
 0.7369000E+00 -0.1386723E-03
 0.7380000E+00 -0.1723144E-03
 0.7391000E+00 -0.2060957E-03
 0.7402000E+00 -0.2396601E-03
 0.7413000E+00 -0.2726688E-03
 0.7424000E+00 -0.3048070E-03
 0.7435000E+00 -0.3357900E-03
 0.7446000E+00 -0.3653700E-03
 0.7457000E+00 -0.3933431E-03
 0.7468000E+00 -0.4195563E-03
 0.7479000E+00 -0.4439123E-03
 0.7490000E+00 -0.4663708E-03
 0.7501000E+00 -0.4869454E-03
 0.7512000E+00 -0.5056985E-03
 0.7523000E+00 -0.5227343E-03
 0.7534000E+00 -0.5381926E-03
 0.7545000E+00 -0.5522434E-03
 0.7556000E+00 -0.5650804E-03
 0.7567000E+00 -0.5769138E-03
 0.7578000E+00 -0.5879597E-03
 0.7589000E+00 -0.5984293E-03
 0.7600000E+00 -0.6085177E-03
 0.7611000E+00 -0.6183942E-03
 0.7622000E+00 -0.6281956E-03
 0.7633000E+00 -0.6380214E-03
 0.7644000E+00 -0.6479294E-03
 0.7655000E+00 -0.6579330E-03
 0.7666000E+00 -0.6679980E-03
 0.7677000E+00 -0.6780420E-03
 0.7688000E+00 -0.6879355E-03
 0.7699000E+00 -0.6975067E-03
 0.7710000E+00 -0.7065476E-03
 0.7721000E+00 -0.7148219E-03
 0.7732000E+00 -0.7220728E-03
 0.7743000E+00 -0.7280303E-03
 0.7754000E+00 -0.7324188E-03
 0.7765000E+00 -0.7349656E-03
 0.7776000E+00 -0.7354105E-03
 0.7787000E+00 -0.7335164E-03
 0.7798000E+00 -0.7290798E-03
 0.7809000E+00 -0.7219407E-03
 0.7820000E+00 -0.7119902E-03
 0.7831000E+00 -0.6991767E-03
 0.7842000E+00 -0.6835095E-03
 0.7853000E+00 -0.6650599E-03
 0.7864000E+00 -0.6439611E-03
 0.7875000E+00 -0.6204062E-03
 0.7886000E+00 -0.5946450E-03
 0.7897000E+00 -0.5669795E-03
 0.7908000E+00 -0.5377590E-03
 0.7919000E+00 -0.5073743E-03
 0.7930000E+00 -0.4762496E-03
 0.7941000E+00 -0.4448329E-03
 0.7952000E+00 -0.4135846E-03
 0.7963000E+00 -0.3829669E-03
 0.7974000E+00 -0.3534323E-03
 0.7985000E+00 -0.3254146E-03
 0.7996000E+00 -0.2993204E-03
 0.8007000E+00 -0.2755218E-03
 0.8018000E+00 -0.2543478E-03
 0.8029000E+00 -0.2360759E-03
 0.8040000E+00 -0.2209249E-03
 0.8051000E+00 -0.2090489E-03
 0.8062000E+00 -0.2005351E-03
 0.8073000E+00 -0.1954052E-03
 0.8084000E+00 -0.1936180E-03
 0.8095000E+00 -0.1950733E-03
 0.8106000E+00 -0.1996137E-03
 0.8117000E+00 -0.2070269E-03
 0.8128000E+00 -0.2170481E-03
 0.8139000E+00 -0.2293643E-03
 0.8150000E+00 -0.2436220E-03
 0.8161000E+00 -0.2594361E-03
 0.8172000E+00 -0.2764008E-03
 0.8183000E+00 -0.2940976E-03
 0.8194000E+00 -0.3121020E-03
 0.8205000E+00 -0.3299893E-03
 0.8216000E+00 -0.3473386E-03
 0.8227000E+00 -0.3637386E-03
 0.8238000E+00 -0.3787942E-03
 0.8249000E+00 -0.3921330E-03
 0.8260000E+00 -0.4034112E-03
 0.8271000E+00 -0.4123174E-03
 0.8282000E+00 -0.4185755E-03
 0.8293000E+00 -0.4219459E-03
 0.8304000E+00 -0.4222257E-03
 0.8315000E+00 -0.4192506E-03
 0.8326000E+00 -0.4128946E-03
 0.8337000E+00 -0.4030707E-03
 0.8348000E+00 -0.3897304E-03
 0.8359000E+00 -0.3728619E-03
 0.8370000E+00 -0.3524892E-03
 0.8381000E+00 -0.3286695E-03
 0.8392000E+00 -0.3014911E-03
 0.8403000E+00 -0.2710707E-03
 0.8414000E+00 -0.2375507E-03
 0.8425000E+00 -0.2010962E-03
 0.8436000E+00 -0.1618930E-03
 0.8447000E+00 -0.1201472E-03
 0.8458000E+00 -0.7608409E-04
 0.8469000E+00 -0.2994893E-04
 0.8480000E+00  0.1799426E-04
 0.8491000E+00  0.6746421E-04
 0.8502000E+00  0.1181650E-03
 0.8513000E+00  0.1697886E-03
 0.8524000E+00  0.2220172E-03
 0.8535000E+00  0.2745242E-03
 0.8546000E+00  0.3269752E-03
 0.8557000E+00  0.3790283E-03
 0.8568000E+00  0.4303350E-03
 0.8579000E+00  0.4805411E-03
 0.8590000E+00  0.5292886E-03
 0.8601000E+00  0.5762156E-03
 0.8612000E+00  0.6209578E-03
 0.8623000E+00  0.6631502E-03
 0.8634000E+00  0.7024283E-03
 0.8645000E+00  0.7384317E-03
 0.8656000E+00  0.7708065E-03
 0.8667000E+00  0.7992076E-03
 0.8678000E+00  0.8233007E-03
 0.8689000E+00  0.8427626E-03
 0.8700000E+00  0.8572832E-03
 0.8711000E+00  0.8665668E-03
 0.8722000E+00  0.8703345E-03
 0.8733000E+00  0.8683259E-03
 0.8744000E+00  0.8603000E-03
 0.8755000E+00  0.8460338E-03
 0.8766000E+00  0.8253205E-03
 0.8777000E+00  0.7979675E-03
 0.8788000E+00  0.7637944E-03
 0.8799000E+00  0.7226326E-03
 0.8810000E+00  0.6743242E-03
 0.8821000E+00  0.6187187E-03
 0.8832000E+00  0.5556693E-03
 0.8843000E+00  0.4850261E-03
 0.8854000E+00  0.4066301E-03
 0.8865000E+00  0.3203087E-03
 0.8876000E+00  0.2258729E-03
 0.8887000E+00  0.1231172E-03
 0.8898000E+00  0.1181970E-04
 0.8909000E+00 -0.1082579E-03
 0.8920000E+00 -0.2373710E-03
 0.8931000E+00 -0.3757927E-03
 0.8942000E+00 -0.5238130E-03
 0.8953000E+00 -0.6817349E-03
 0.8964000E+00 -0.8498683E-03
 0.8975000E+00 -0.1028520E-02
 0.8986000E+00 -0.1217982E-02
 0.8997000E+00 -0.1418518E-02
 0.9008000E+00 -0.1630350E-02
 0.9019000E+00 -0.1853637E-02
 0.9030000E+00 -0.2088461E-02
 0.9041000E+00 -0.2334807E-02
 0.9052000E+00 -0.2592541E-02
 0.9063000E+00 -0.2861392E-02
 0.9074000E+00 -0.3140931E-02
 0.9085000E+00 -0.3430550E-02
 0.9096000E+00 -0.3729444E-02
 0.9107000E+00 -0.4036596E-02
 0.9118000E+00 -0.4350758E-02
 0.9129000E+00 -0.4670445E-02
 0.9140000E+00 -0.4993924E-02
 0.9151000E+00 -0.5319211E-02
 0.9162000E+00 -0.5644071E-02
 0.9173000E+00 -0.5966025E-02
 0.9184000E+00 -0.6282354E-02
 0.9195000E+00 -0.6590114E-02
 0.9206000E+00 -0.6886161E-02
 0.9217000E+00 -0.7167176E-02
 0.9228000E+00 -0.7429698E-02
 0.9239000E+00 -0.7670161E-02
 0.9250000E+00 -0.7884936E-02
 0.9261000E+00 -0.8070374E-02
 0.9272000E+00 -0.8222851E-02
 0.9283000E+00 -0.8338821E-02
 0.9294000E+00 -0.8414868E-02
 0.9305000E+00 -0.8447763E-02
 0.9316000E+00 -0.8434516E-02
 0.9327000E+00 -0.8372436E-02
 0.9338000E+00 -0.8259178E-02
 0.9349000E+00 -0.8092792E-02
 0.9360000E+00 -0.7871768E-02
 0.9371000E+00 -0.7595085E-02
 0.9382000E+00 -0.7262237E-02
 0.9393000E+00 -0.6873272E-02
 0.9404000E+00 -0.6428807E-02
 0.9415000E+00 -0.5930048E-02
 0.9426000E+00 -0.5378795E-02
 0.9437000E+00 -0.4777439E-02
 0.9448000E+00 -0.4128959E-02
 0.9459000E+00 -0.3436898E-02
 0.9470000E+00 -0.2705344E-02
 0.9481000E+00 -0.1938890E-02
 0.9492000E+00 -0.1142592E-02
 0.9503000E+00 -0.3219189E-03
 0.9514000E+00  0.5173052E-03
 0.9525000E+00  0.1368960E-02
 0.9536000E+00  0.2226697E-02
 0.9547000E+00  0.3084005E-02
 0.9558000E+00  0.3934286E-02
 0.9569000E+00  0.4770934E-02
 0.9580000E+00  0.5587409E-02
 0.9591000E+00  0.6377317E-02
 0.9602000E+00  0.7134483E-02
 0.9613000E+00  0.7853015E-02
 0.9624000E+00  0.8527379E-02
 0.9635000E+00  0.9152452E-02
 0.9646000E+00  0.9723589E-02
 0.9657000E+00  0.1023667E-01
 0.9668000E+00  0.1068814E-01
 0.9679000E+00  0.1107505E-01
 0.9690000E+00  0.1139509E-01
 0.9701000E+00  0.1164660E-01
 0.9712000E+00  0.1182857E-01
 0.9723000E+00  0.1194065E-01
 0.9734000E+00  0.1198314E-01
 0.9745000E+00  0.1195698E-01
 0.9756000E+00  0.1186372E-01
 0.9767000E+00  0.1170549E-01
 0.9778000E+00  0.1148495E-01
 0.9789000E+00  0.1120526E-01