 -0.12000000000000000          0.0000000000000000     
 -0.11889999999999999          0.0000000000000000     
 -0.11780000000000000          0.0000000000000000     
 -0.11670000000000000          0.0000000000000000     
 -0.11559999999999999          0.0000000000000000     
 -0.11449999999999999          0.0000000000000000     
 -0.11340000000000000          0.0000000000000000     
 -0.11230000000000000          0.0000000000000000     
 -0.11119999999999999          0.0000000000000000     
 -0.11009999999999999          0.0000000000000000     
 -0.10900000000000000          0.0000000000000000     
 -0.10790000000000000          0.0000000000000000     
 -0.10679999999999999          0.0000000000000000     
 -0.10569999999999999          0.0000000000000000     
 -0.10460000000000000          0.0000000000000000     
 -0.10349999999999999          0.0000000000000000     
 -0.10239999999999999          0.0000000000000000     
 -0.10130000000000000          0.0000000000000000     
 -0.10020000000000000          0.0000000000000000     
  -9.9099999999999994E-002     0.0000000000000000     
  -9.7999999999999990E-002     0.0000000000000000     
  -9.6899999999999986E-002     0.0000000000000000     
  -9.5799999999999996E-002     0.0000000000000000     
  -9.4699999999999993E-002     0.0000000000000000     
  -9.3599999999999989E-002     0.0000000000000000     
  -9.2499999999999999E-002     0.0000000000000000     
  -9.1399999999999995E-002     0.0000000000000000     
  -9.0299999999999991E-002     0.0000000000000000     
  -8.9200000000000002E-002     0.0000000000000000     
  -8.8099999999999984E-002     0.0000000000000000     
  -8.6999999999999994E-002     0.0000000000000000     
  -8.5899999999999990E-002     0.0000000000000000     
  -8.4799999999999986E-002     0.0000000000000000     
  -8.3699999999999997E-002     0.0000000000000000     
  -8.2599999999999993E-002     0.0000000000000000     
  -8.1499999999999989E-002     0.0000000000000000     
  -8.0399999999999999E-002     0.0000000000000000     
  -7.9299999999999995E-002     0.0000000000000000     
  -7.8199999999999992E-002     0.0000000000000000     
  -7.7100000000000002E-002     0.0000000000000000     
  -7.5999999999999984E-002     0.0000000000000000     
  -7.4899999999999994E-002     0.0000000000000000     
  -7.3799999999999991E-002     0.0000000000000000     
  -7.2699999999999987E-002     0.0000000000000000     
  -7.1599999999999997E-002     0.0000000000000000     
  -7.0499999999999993E-002     0.0000000000000000     
  -6.9399999999999989E-002     0.0000000000000000     
  -6.8300000000000000E-002     0.0000000000000000     
  -6.7199999999999996E-002     0.0000000000000000     
  -6.6099999999999992E-002     0.0000000000000000     
  -6.5000000000000002E-002     0.0000000000000000     
  -6.3899999999999985E-002     0.0000000000000000     
  -6.2799999999999995E-002     0.0000000000000000     
  -6.1699999999999991E-002     0.0000000000000000     
  -6.0599999999999994E-002     0.0000000000000000     
  -5.9499999999999990E-002     0.0000000000000000     
  -5.8399999999999994E-002     0.0000000000000000     
  -5.7299999999999990E-002     0.0000000000000000     
  -5.6199999999999986E-002     0.0000000000000000     
  -5.5099999999999996E-002     0.0000000000000000     
  -5.3999999999999992E-002     0.0000000000000000     
  -5.2899999999999989E-002     0.0000000000000000     
  -5.1799999999999985E-002     0.0000000000000000     
  -5.0699999999999995E-002     0.0000000000000000     
  -4.9599999999999991E-002     0.0000000000000000     
  -4.8499999999999988E-002     0.0000000000000000     
  -4.7399999999999998E-002     0.0000000000000000     
  -4.6299999999999994E-002     0.0000000000000000     
  -4.5199999999999990E-002     0.0000000000000000     
  -4.4099999999999986E-002     0.0000000000000000     
  -4.2999999999999997E-002     0.0000000000000000     
  -4.1899999999999993E-002     0.0000000000000000     
  -4.0799999999999989E-002     0.0000000000000000     
  -3.9699999999999985E-002     0.0000000000000000     
  -3.8599999999999995E-002     0.0000000000000000     
  -3.7499999999999992E-002     0.0000000000000000     
  -3.6399999999999988E-002     0.0000000000000000     
  -3.5299999999999984E-002     0.0000000000000000     
  -3.4199999999999994E-002     0.0000000000000000     
  -3.3099999999999991E-002     0.0000000000000000     
  -3.1999999999999987E-002     0.0000000000000000     
  -3.0899999999999997E-002     0.0000000000000000     
  -2.9799999999999993E-002     0.0000000000000000     
  -2.8699999999999989E-002     0.0000000000000000     
  -2.7599999999999986E-002     0.0000000000000000     
  -2.6499999999999996E-002     0.0000000000000000     
  -2.5399999999999992E-002     0.0000000000000000     
  -2.4299999999999988E-002     0.0000000000000000     
  -2.3199999999999985E-002     0.0000000000000000     
  -2.2099999999999995E-002     0.0000000000000000     
  -2.0999999999999991E-002     0.0000000000000000     
  -1.9899999999999987E-002     0.0000000000000000     
  -1.8799999999999983E-002     0.0000000000000000     
  -1.7699999999999994E-002     0.0000000000000000     
  -1.6599999999999990E-002     0.0000000000000000     
  -1.5499999999999986E-002     0.0000000000000000     
  -1.4399999999999996E-002     0.0000000000000000     
  -1.3299999999999992E-002     0.0000000000000000     
  -1.2199999999999989E-002     0.0000000000000000     
  -1.1099999999999985E-002     0.0000000000000000     
  -9.9999999999999950E-003     0.0000000000000000     
  -8.8999999999999913E-003     0.0000000000000000     
  -7.7999999999999875E-003     0.0000000000000000     
  -6.6999999999999837E-003     0.0000000000000000     
  -5.5999999999999939E-003     0.0000000000000000     
  -4.4999999999999901E-003     0.0000000000000000     
  -3.3999999999999864E-003     0.0000000000000000     
  -2.2999999999999826E-003     0.0000000000000000     
  -1.1999999999999927E-003     0.0000000000000000     
  -9.9999999999988987E-005     0.0000000000000000     
   1.0000000000000148E-003     0.0000000000000000     
   2.1000000000000185E-003     0.0000000000000000     
   3.2000000000000084E-003     0.0000000000000000     
   4.3000000000000121E-003     0.0000000000000000     
   5.4000000000000159E-003     0.0000000000000000     
   6.5000000000000058E-003     0.0000000000000000     
   7.6000000000000234E-003     0.0000000000000000     
   8.7000000000000133E-003     0.0000000000000000     
   9.8000000000000032E-003     0.0000000000000000     
   1.0900000000000021E-002     0.0000000000000000     
   1.2000000000000011E-002     0.0000000000000000     
   1.3100000000000001E-002     0.0000000000000000     
   1.4200000000000018E-002     0.0000000000000000     
   1.5300000000000008E-002     0.0000000000000000     
   1.6400000000000026E-002     0.0000000000000000     
   1.7500000000000016E-002     0.0000000000000000     
   1.8600000000000005E-002     0.0000000000000000     
   1.9700000000000023E-002     0.0000000000000000     
   2.0800000000000013E-002     0.0000000000000000     
   2.1900000000000003E-002     0.0000000000000000     
   2.3000000000000020E-002     0.0000000000000000     
   2.4100000000000010E-002     0.0000000000000000     
   2.5200000000000000E-002     0.0000000000000000     
   2.6300000000000018E-002     0.0000000000000000     
   2.7400000000000008E-002     0.0000000000000000     
   2.8500000000000025E-002     0.0000000000000000     
   2.9600000000000015E-002     0.0000000000000000     
   3.0700000000000005E-002     0.0000000000000000     
   3.1800000000000023E-002     0.0000000000000000     
   3.2900000000000013E-002     0.0000000000000000     
   3.4000000000000002E-002     0.0000000000000000     
   3.5100000000000020E-002     0.0000000000000000     
   3.6200000000000010E-002     0.0000000000000000     
   3.7300000000000028E-002     0.0000000000000000     
   3.8400000000000017E-002     0.0000000000000000     
   3.9500000000000007E-002     0.0000000000000000     
   4.0600000000000025E-002     0.0000000000000000     
   4.1700000000000015E-002     0.0000000000000000     
   4.2800000000000005E-002     0.0000000000000000     
   4.3900000000000022E-002     0.0000000000000000     
   4.5000000000000012E-002     0.0000000000000000     
   4.6100000000000002E-002     0.0000000000000000     
   4.7200000000000020E-002     0.0000000000000000     
   4.8300000000000010E-002     0.0000000000000000     
   4.9400000000000027E-002     0.0000000000000000     
   5.0500000000000017E-002     0.0000000000000000     
   5.1600000000000007E-002     0.0000000000000000     
   5.2700000000000025E-002     0.0000000000000000     
   5.3800000000000014E-002     0.0000000000000000     
   5.4900000000000004E-002     0.0000000000000000     
   5.6000000000000022E-002     0.0000000000000000     
   5.7100000000000012E-002     0.0000000000000000     
   5.8200000000000002E-002     0.0000000000000000     
   5.9300000000000019E-002     0.0000000000000000     
   6.0400000000000009E-002     0.0000000000000000     
   6.1500000000000027E-002     0.0000000000000000     
   6.2600000000000017E-002     0.0000000000000000     
   6.3700000000000007E-002     0.0000000000000000     
   6.4800000000000024E-002     0.0000000000000000     
   6.5900000000000014E-002     0.0000000000000000     
   6.7000000000000004E-002     0.0000000000000000     
   6.8100000000000022E-002     0.0000000000000000     
   6.9200000000000012E-002     0.0000000000000000     
   7.0300000000000029E-002     0.0000000000000000     
   7.1400000000000019E-002     0.0000000000000000     
   7.2500000000000009E-002     0.0000000000000000     
   7.3600000000000027E-002     0.0000000000000000     
   7.4700000000000016E-002     0.0000000000000000     
   7.5800000000000006E-002     0.0000000000000000     
   7.6900000000000024E-002     0.0000000000000000     
   7.8000000000000014E-002     0.0000000000000000     
   7.9100000000000004E-002     0.0000000000000000     
   8.0200000000000021E-002     0.0000000000000000     
   8.1300000000000011E-002     0.0000000000000000     
   8.2400000000000029E-002     0.0000000000000000     
   8.3500000000000019E-002     0.0000000000000000     
   8.4600000000000009E-002     0.0000000000000000     
   8.5700000000000026E-002     0.0000000000000000     
   8.6800000000000016E-002     0.0000000000000000     
   8.7900000000000006E-002     0.0000000000000000     
   8.9000000000000024E-002     0.0000000000000000     
   9.0100000000000013E-002     0.0000000000000000     
   9.1200000000000003E-002     0.0000000000000000     
   9.2300000000000021E-002     0.0000000000000000     
   9.3400000000000011E-002     0.0000000000000000     
   9.4500000000000028E-002     0.0000000000000000     
   9.5600000000000018E-002     0.0000000000000000     
   9.6700000000000008E-002     0.0000000000000000     
   9.7800000000000026E-002     0.0000000000000000     
   9.8900000000000016E-002     0.0000000000000000     
  0.10000000000000001          0.0000000000000000     
  0.10110000000000002          0.0000000000000000     
  0.10220000000000001          0.0000000000000000     
  0.10330000000000003          0.0000000000000000     
  0.10440000000000002          0.0000000000000000     
  0.10550000000000001          0.0000000000000000     
  0.10660000000000003          0.0000000000000000     
  0.10770000000000002          0.0000000000000000     
  0.10880000000000001          0.0000000000000000     
  0.10990000000000003          0.0000000000000000     
  0.11100000000000002          0.0000000000000000     
  0.11210000000000001          0.0000000000000000     
  0.11320000000000002          0.0000000000000000     
  0.11430000000000001          0.0000000000000000     
  0.11540000000000003          0.0000000000000000     
  0.11650000000000002          0.0000000000000000     
  0.11760000000000001          0.0000000000000000     
  0.11870000000000003          0.0000000000000000     
  0.11980000000000002          0.0000000000000000     
  0.12090000000000001          0.0000000000000000     
  0.12200000000000003          0.0000000000000000     
  0.12310000000000001          0.0000000000000000     
  0.12420000000000003          0.0000000000000000     
  0.12530000000000002          0.0000000000000000     
  0.12640000000000001          0.0000000000000000     
  0.12750000000000003          0.0000000000000000     
  0.12860000000000002          0.0000000000000000     
  0.12970000000000001          0.0000000000000000     
  0.13080000000000003          0.0000000000000000     
  0.13190000000000002          0.0000000000000000     
  0.13300000000000001          0.0000000000000000     
  0.13410000000000000          0.0000000000000000     
  0.13520000000000004          0.0000000000000000     
  0.13630000000000003          0.0000000000000000     
  0.13740000000000002          0.0000000000000000     
  0.13850000000000001          0.0000000000000000     
  0.13960000000000000          0.0000000000000000     
  0.14070000000000005          0.0000000000000000     
  0.14180000000000004          0.0000000000000000     
  0.14290000000000003          0.0000000000000000     
  0.14400000000000002          0.0000000000000000     
  0.14510000000000001          0.0000000000000000     
  0.14620000000000000          0.0000000000000000     
  0.14730000000000004          0.0000000000000000     
  0.14840000000000003          0.0000000000000000     
  0.14950000000000002          0.0000000000000000     
  0.15060000000000001          0.0000000000000000     
  0.15170000000000000          0.0000000000000000     
  0.15280000000000005          0.0000000000000000     
  0.15390000000000004          0.0000000000000000     
  0.15500000000000003          0.0000000000000000     
  0.15610000000000002          0.0000000000000000     
  0.15720000000000001          0.0000000000000000     
  0.15830000000000000          0.0000000000000000     
  0.15940000000000004          0.0000000000000000     
  0.16050000000000003          0.0000000000000000     
  0.16160000000000002          0.0000000000000000     
  0.16270000000000001          0.0000000000000000     
  0.16380000000000000          0.0000000000000000     
  0.16490000000000005          0.0000000000000000     
  0.16600000000000004          0.0000000000000000     
  0.16710000000000003          0.0000000000000000     
  0.16820000000000002          0.0000000000000000     
  0.16930000000000001          0.0000000000000000     
  0.17040000000000000          0.0000000000000000     
  0.17150000000000004          0.0000000000000000     
  0.17260000000000003          0.0000000000000000     
  0.17370000000000002          0.0000000000000000     
  0.17480000000000001          0.0000000000000000     
  0.17590000000000000          0.0000000000000000     
  0.17700000000000005          0.0000000000000000     
  0.17810000000000004          0.0000000000000000     
  0.17920000000000003          0.0000000000000000     
  0.18030000000000002          0.0000000000000000     
  0.18140000000000001          0.0000000000000000     
  0.18250000000000000          0.0000000000000000     
  0.18360000000000004          0.0000000000000000     
  0.18470000000000003          0.0000000000000000     
  0.18580000000000002          0.0000000000000000     
  0.18690000000000001          0.0000000000000000     
  0.18800000000000000          0.0000000000000000     
  0.18910000000000005          0.0000000000000000     
  0.19020000000000004          0.0000000000000000     
  0.19130000000000003          0.0000000000000000     
  0.19240000000000002          0.0000000000000000     
  0.19350000000000001          0.0000000000000000     
  0.19460000000000005          0.0000000000000000     
  0.19570000000000004          0.0000000000000000     
  0.19680000000000003          0.0000000000000000     
  0.19790000000000002          0.0000000000000000     
  0.19900000000000001         -9.1548161776795868E-048
  0.20010000000000000         -2.4021390543621166E-047
  0.20120000000000005         -2.9666362026796100E-046
  0.20230000000000004          2.1096478990942939E-038
  0.20340000000000003          6.4781399342346967E-038
  0.20450000000000002          9.5032956073430247E-038
  0.20560000000000000          7.3766789727603257E-038
  0.20670000000000005          1.3185168028078082E-045
  0.20780000000000004         -1.3495130700225262E-037
  0.20890000000000003         -1.9823353166954376E-037
  0.21000000000000002         -8.1666655365836004E-038
  0.21110000000000001          2.2257502519632649E-037
  0.21220000000000000          5.8790599974538211E-037
  0.21330000000000005          7.3154909377093938E-037
  0.21440000000000003          4.1540369903883480E-037
  0.21550000000000002         -3.6109119870061985E-037
  0.21660000000000001         -1.2969055284357434E-036
  0.21770000000000000         -1.8371750108481334E-036
  0.21880000000000005         -1.4442147898555813E-036
  0.21990000000000004          4.2806397013521432E-038
  0.22100000000000003          2.1727261091071600E-036
  0.22210000000000002          3.9238089393513923E-036
  0.22320000000000001          4.0633504842214576E-036
  0.22430000000000000          1.8170354499497991E-036
  0.22540000000000004         -2.4934567031498462E-036
  0.22650000000000003         -7.1832791607131913E-036
  0.22760000000000002         -9.6244725863221773E-036
  0.22870000000000001         -7.4006610508805342E-036
  0.22980000000000000          1.8847594311588976E-037
  0.23090000000000005          1.0962491956107514E-035
  0.23200000000000004          1.9907623713702060E-035
  0.23310000000000003          2.0927325001355548E-035
  0.23420000000000002          9.9765320527311252E-036
  0.23530000000000001         -1.1660558486791809E-035
  0.23640000000000000         -3.5789159066498720E-035
  0.23750000000000004         -4.9225679510375696E-035
  0.23860000000000003         -3.9395932691069601E-035
  0.23970000000000002         -2.1103098039190698E-036
  0.24080000000000001          5.2358313860292831E-035
  0.24190000000000000          9.9190427740747592E-035
  0.24300000000000005          1.0749223088875617E-034
  0.24410000000000004          5.6030420964974620E-035
  0.24520000000000003         -5.0115667245357970E-035
  0.24630000000000002         -1.7147548830104890E-034
  0.24740000000000001         -2.4308867087810427E-034
  0.24850000000000005         -2.0216934708495190E-034
  0.24960000000000004         -2.5986997120389840E-035
  0.25070000000000003          2.3824156742722916E-034
  0.25180000000000002          4.7231178737550348E-034
  0.25290000000000001          5.2728998186903918E-034
  0.25400000000000000          2.9814352659585971E-034
  0.25510000000000005         -1.9712734084105266E-034
  0.25620000000000004         -7.7842575408938604E-034
  0.25730000000000003         -1.1434273117500672E-033
  0.25840000000000002         -9.9451349116724550E-034
  0.25950000000000001         -2.1325362524309933E-034
  0.26060000000000005          1.0003351087738189E-033
  0.26170000000000004          2.1183890134895633E-033
  0.26280000000000003          2.4616557789961401E-033
  0.26390000000000002          1.5316990776449877E-033
  0.26500000000000001         -6.3296120341966476E-034
  0.26610000000000000         -3.2727980916720948E-033
  0.26720000000000005         -5.0666300179593951E-033
  0.26830000000000004         -4.6728618457750365E-033
  0.26940000000000003         -1.4862785499609184E-033
  0.27050000000000002          3.7415323116752801E-033
  0.27160000000000001          8.8227190117442602E-033
  0.27270000000000005          1.0839749049383194E-032
  0.27380000000000004          7.5253024825710321E-033
  0.27490000000000003         -1.2210243658532009E-033
  0.27600000000000002         -1.2487581907622051E-032
  0.27710000000000001         -2.0896242668492475E-032
  0.27820000000000000         -2.0729432754605257E-032
  0.27930000000000005         -9.0057355557264120E-033
  0.28040000000000004          1.1885858766394254E-032
  0.28150000000000003          3.3622729103765549E-032
  0.28260000000000002          4.4493874252519598E-032
  0.28370000000000001          3.4712674177033847E-032
  0.28480000000000005          2.4951447789835338E-033
  0.28590000000000004         -4.2208263357238984E-032
  0.28700000000000003         -7.9191883856385121E-032
  0.28810000000000002         -8.5626293275309256E-032
  0.28920000000000001         -4.7695356997473750E-032
  0.29030000000000000          2.8832971298493152E-032
  0.29140000000000005          1.1526081652295988E-031
  0.29250000000000004          1.6804602578922367E-031
  0.29360000000000003          1.4762428070732625E-031
  0.29470000000000002          4.1169738791876381E-032
  0.29580000000000001         -1.2183802421296352E-031
  0.29690000000000005         -2.7200029121352874E-031
  0.29800000000000004         -3.2473560122569067E-031
  0.29910000000000003         -2.2100885320398288E-031
  0.30020000000000002          3.2955890075882467E-032
  0.30130000000000001          3.4870910114721983E-031
  0.30240000000000000          5.7749403741947862E-031
  0.30350000000000005          5.7117100807817224E-031
  0.30460000000000004          2.6133550470446005E-031
  0.30570000000000003         -2.8020862439062536E-031
  0.30680000000000002         -8.3748799289655539E-031
  0.30790000000000001         -1.1218095134277502E-030
  0.30900000000000005         -9.0286410390119266E-031
  0.31010000000000004         -1.4736310312013820E-031
  0.31120000000000003          9.0604046835985567E-031
  0.31230000000000002          1.7935320212054299E-030
  0.31340000000000001          2.0047732496455766E-030
  0.31450000000000006          1.2367790747869649E-030
  0.31560000000000005         -3.8919518538928442E-031
  0.31670000000000004         -2.2718978376829250E-030
  0.31780000000000003         -3.5093997936725558E-030
  0.31890000000000002         -3.2845523755420049E-030
  0.32000000000000001         -1.3118659014004656E-030
  0.32110000000000005          1.8702338555272794E-030
  0.32220000000000004          4.9553375658375971E-030
  0.32330000000000003          6.3372092314530059E-030
  0.32440000000000002          4.8570045846366369E-030
  0.32550000000000001          5.1661780799293451E-031
  0.32660000000000006         -5.2189273858941876E-030
  0.32770000000000005         -9.7924290631297780E-030
  0.32880000000000004         -1.0581192943798970E-029
  0.32990000000000003         -6.2195398477151248E-030
  0.33100000000000002          2.3861357077512793E-030
  0.33210000000000001          1.1946910410066673E-029
  0.33320000000000005          1.7867974369356418E-029
  0.33430000000000004          1.6257284621842918E-029
  0.33540000000000003          6.0720279534692012E-030
  0.33650000000000002         -9.6557391030953242E-030
  0.33760000000000001         -2.4360768580467225E-029
  0.33870000000000006         -3.0405161304715078E-029
  0.33980000000000005         -2.2671185032826348E-029
  0.34090000000000004         -1.7386894519968059E-030
  0.34200000000000003          2.5055460439523736E-029
  0.34310000000000002          4.5707255262618043E-029
  0.34420000000000001          4.8466938445876988E-029
  0.34530000000000005          2.7774536813953442E-029
  0.34640000000000004         -1.1535030515041705E-029
  0.34750000000000003         -5.4258043936468355E-029
  0.34860000000000002         -8.0025084646750123E-029
  0.34970000000000001         -7.2248510852913865E-029
  0.35080000000000006         -2.7191910070492495E-029
  0.35190000000000005          4.1323037939413864E-029
  0.35300000000000004          1.0486930359771895E-028
  0.35410000000000003          1.3123415308871665E-028
  0.35520000000000002          9.9452692537724288E-029
  0.35630000000000001          1.2529295736339337E-029
  0.35740000000000005         -9.8925751088575303E-029
  0.35850000000000004         -1.8586021800449506E-028
  0.35960000000000003         -2.0092268774361651E-028
  0.36070000000000002         -1.2197050302546561E-028
  0.36180000000000001          3.1905459705597188E-029
  0.36290000000000006          2.0124152437366179E-028
  0.36400000000000005          3.0698095184678877E-028
  0.36510000000000004          2.8505123114336146E-028
  0.36620000000000003          1.2061894597588323E-028
  0.36730000000000002         -1.3478055900676480E-028
  0.36840000000000006         -3.7503248125626627E-028
  0.36950000000000005         -4.8017366701248513E-028
  0.37060000000000004         -3.7197952300634986E-028
  0.37170000000000003         -6.0309197051769942E-029
  0.37280000000000002          3.4412689062822121E-028
  0.37390000000000001          6.6336600215756318E-028
  0.37500000000000006          7.2496037188046792E-028
  0.37610000000000005          4.4637326127179717E-028
  0.37720000000000004         -1.0744937410431101E-028
  0.37830000000000003         -7.2620923966639227E-028
  0.37940000000000002         -1.1264995238077928E-027
  0.38050000000000006         -1.0728931918441574E-027
  0.38160000000000005         -4.9923825747151612E-028
  0.38270000000000004          4.2760131508892373E-028
  0.38380000000000003          1.3425119199124578E-027
  0.38490000000000002          1.8169673594464864E-027
  0.38600000000000001          1.5482890634381380E-027
  0.38710000000000000          5.2375958561512950E-028
  0.38819999999999999         -9.2213437686494095E-028
  0.38930000000000009         -2.2028715211839454E-027
  0.39040000000000008         -2.7090355699089364E-027
  0.39150000000000007         -2.0867522085809388E-027
  0.39260000000000006         -4.4323665391833479E-028
  0.39370000000000005          1.6289299504077243E-027
  0.39480000000000004          3.2499793963179335E-027
  0.39590000000000003          3.6169953965404662E-027
  0.39700000000000002          2.3899561754889003E-027
  0.39810000000000001         -7.7957129722459965E-029
  0.39920000000000000         -2.7992530398044760E-027
  0.40029999999999999         -4.5193424697747357E-027
  0.40140000000000009         -4.2691341381862676E-027
  0.40250000000000008         -1.8726315575004599E-027
  0.40360000000000007          1.8375601544572900E-027
  0.40470000000000006          5.2472730998861515E-027
  0.40580000000000005          6.5977729153060757E-027
  0.40690000000000004          4.8023278302665974E-027
  0.40800000000000003          8.9443402086664331E-029
  0.40910000000000002         -5.8582023597609229E-027
  0.41020000000000001         -1.0420726888455266E-026
  0.41130000000000000         -1.1086931474595663E-026
  0.41239999999999999         -6.6373677431528842E-027
  0.41350000000000009          2.0538553994477415E-027
  0.41460000000000008          1.2026219850759816E-026
  0.41570000000000007          1.9176855648066923E-026
  0.41680000000000006          1.9866361695729198E-026
  0.41790000000000005          1.2573086937168679E-026
  0.41900000000000004         -1.1278519542498624E-027
  0.42010000000000003         -1.6785104856158452E-026
  0.42120000000000002         -2.8553763227094038E-026
  0.42230000000000001         -3.1452226230117221E-026
  0.42340000000000000         -2.3502864242994030E-026
  0.42449999999999999         -6.8127801572598805E-027
  0.42560000000000009          1.2985073903670761E-026
  0.42670000000000008          2.8842094853248053E-026
  0.42780000000000007          3.5161952460682262E-026
  0.42890000000000006          3.0207823036354021E-026
  0.43000000000000005          1.6915678837173108E-026
  0.43110000000000004          1.5995896840003973E-027
  0.43220000000000003         -9.0318174027959126E-027
  0.43330000000000002         -1.1275869624612075E-026
  0.43440000000000001         -6.6193851299080888E-027
  0.43550000000000000         -1.4382031090452584E-027
  0.43659999999999999         -3.9731747291169321E-027
  0.43770000000000009         -1.9645789853117476E-026
  0.43880000000000008         -4.6783948253760515E-026
  0.43990000000000007         -7.5021485760779285E-026
  0.44100000000000006         -8.7793056923121689E-026
  0.44210000000000005         -6.8688521630838052E-026
  0.44320000000000004         -9.5837567276756742E-027
  0.44430000000000003          8.2767817234599405E-026
  0.44540000000000002          1.8496708904164070E-025
  0.44650000000000001          2.6183092180310380E-025
  0.44760000000000000          2.7719697038455288E-025
  0.44869999999999999          2.0740462162626099E-025
  0.44980000000000009          5.2603703629349398E-026
  0.45090000000000008         -1.5875317941595834E-025
  0.45200000000000007         -3.7477598377139129E-025
  0.45310000000000006         -5.3358280550208597E-025
  0.45420000000000005         -5.8127107473259488E-025
  0.45530000000000004         -4.8847352117755854E-025
  0.45640000000000003         -2.5991672783710635E-025
  0.45750000000000002          6.6043199773611792E-026
  0.45860000000000001          4.2718326784474687E-025
  0.45970000000000000          7.5238279678890650E-025
  0.46079999999999999          9.7621429111859917E-025
  0.46190000000000009          1.0486523328413661E-024
  0.46300000000000008          9.3856965303013540E-025
  0.46410000000000007          6.3342070033370788E-025
  0.46520000000000006          1.3981100162172852E-025
  0.46630000000000005         -5.1095305351997745E-025
  0.46740000000000004         -1.2519479064017863E-024
  0.46850000000000003         -1.9693370316692576E-024
  0.46960000000000002         -2.5001311644582302E-024
  0.47070000000000001         -2.6491582273504254E-024
  0.47180000000000000         -2.2308268595971507E-024
  0.47289999999999999         -1.1319096872501906E-024
  0.47400000000000009          6.1965784953093733E-025
  0.47510000000000008          2.8036410678150601E-024
  0.47620000000000007          4.9994730717731394E-024
  0.47730000000000006          6.6391583292028207E-024
  0.47840000000000005          7.1227773897530627E-024