-0.1200000E+00  0.0000000E+00
-0.1189000E+00  0.0000000E+00
-0.1178000E+00  0.0000000E+00
-0.1167000E+00  0.0000000E+00
-0.1156000E+00  0.0000000E+00
-0.1145000E+00  0.0000000E+00
-0.1134000E+00  0.0000000E+00
-0.1123000E+00  0.0000000E+00
-0.1112000E+00  0.0000000E+00
-0.1101000E+00  0.0000000E+00
-0.1090000E+00  0.0000000E+00
-0.1079000E+00  0.0000000E+00
-0.1068000E+00  0.0000000E+00
-0.1057000E+00  0.0000000E+00
-0.1046000E+00  0.0000000E+00
-0.1035000E+00  0.0000000E+00
-0.1024000E+00  0.0000000E+00
-0.1013000E+00  0.0000000E+00
-0.1002000E+00  0.0000000E+00
-0.9910000E-01  0.0000000E+00
-0.9800000E-01  0.0000000E+00
-0.9690000E-01  0.0000000E+00
-0.9580000E-01  0.0000000E+00
-0.9470000E-01  0.0000000E+00
-0.9360000E-01  0.0000000E+00
-0.9250000E-01  0.0000000E+00
-0.9140000E-01  0.0000000E+00
-0.9030000E-01  0.0000000E+00
-0.8920000E-01  0.0000000E+00
-0.8810000E-01  0.0000000E+00
-0.8700000E-01  0.0000000E+00
-0.8590000E-01  0.0000000E+00
-0.8480000E-01  0.0000000E+00
-0.8370000E-01  0.0000000E+00
-0.8260000E-01  0.0000000E+00
-0.8150000E-01  0.0000000E+00
-0.8040000E-01  0.0000000E+00
-0.7930000E-01  0.0000000E+00
-0.7820000E-01  0.0000000E+00
-0.7710000E-01  0.0000000E+00
-0.7600000E-01  0.0000000E+00
-0.7490000E-01  0.0000000E+00
-0.7380000E-01  0.0000000E+00
-0.7270000E-01 -0.0000000E+00
-0.7160000E-01 -0.0000000E+00
-0.7050000E-01 -0.0000000E+00
-0.6940000E-01  0.0000000E+00
-0.6830000E-01  0.2881579E-37
-0.6720000E-01  0.3479855E-37
-0.6610000E-01 -0.3209151E-37
-0.6500000E-01 -0.2779637E-36
-0.6390000E-01 -0.6161141E-36
-0.6280000E-01 -0.5214960E-36
-0.6170000E-01  0.1029229E-35
-0.6060000E-01  0.4725893E-35
-0.5950000E-01  0.8678326E-35
-0.5840000E-01  0.5890199E-35
-0.5730000E-01 -0.1451938E-34
-0.5620000E-01 -0.5616897E-34
-0.5510000E-01 -0.9282507E-34
-0.5400000E-01 -0.5007236E-34
-0.5290000E-01  0.1680484E-33
-0.5180000E-01  0.5613539E-33
-0.5070000E-01  0.8401940E-33
-0.4960000E-01  0.3260949E-33
-0.4850000E-01 -0.1714466E-32
-0.4740000E-01 -0.5020870E-32
-0.4630000E-01 -0.6891211E-32
-0.4520000E-01 -0.1828838E-32
-0.4410000E-01  0.1525957E-31
-0.4300000E-01  0.4088059E-31
-0.4190000E-01  0.5316693E-31
-0.4080000E-01  0.1173482E-31
-0.3970000E-01 -0.1168611E-30
-0.3860000E-01 -0.3020338E-30
-0.3750000E-01 -0.3878321E-30
-0.3640000E-01 -0.1023645E-30
-0.3530000E-01  0.7671713E-30
-0.3420000E-01  0.2012899E-29
-0.3310000E-01  0.2643940E-29
-0.3200000E-01  0.9743080E-30
-0.3090000E-01 -0.4313554E-29
-0.2980000E-01 -0.1206911E-28
-0.2870000E-01 -0.1663704E-28
-0.2760000E-01 -0.8363396E-29
-0.2650000E-01  0.2061168E-28
-0.2540000E-01  0.6509827E-28
-0.2430000E-01  0.9593650E-28
-0.2320000E-01  0.6200197E-28
-0.2210000E-01 -0.8125987E-28
-0.2100000E-01 -0.3158741E-27
-0.1990000E-01 -0.5055919E-27
-0.1880000E-01 -0.3997649E-27
-0.1770000E-01  0.2389272E-27
-0.1660000E-01  0.1375708E-26
-0.1550000E-01  0.2433813E-26
-0.1440000E-01  0.2275068E-26
-0.1330000E-01 -0.2801125E-27
-0.1220000E-01 -0.5338097E-26
-0.1110000E-01 -0.1069762E-25
-0.1000000E-01 -0.1157335E-25
-0.8900000E-02 -0.2513880E-26
-0.7800000E-02  0.1812488E-25
-0.6700000E-02  0.4286418E-25
-0.5600000E-02  0.5310278E-25
-0.4500000E-02  0.2545644E-25
-0.3400000E-02 -0.5153300E-25
-0.2300000E-02 -0.1559040E-24
-0.1200000E-02 -0.2210178E-24
-0.1000000E-03 -0.1538569E-24
 0.1000000E-02  0.1070321E-24
 0.2100000E-02  0.5101064E-24
 0.3200000E-02  0.8366146E-24
 0.4300000E-02  0.7437991E-24
 0.5400000E-02 -0.4943233E-25
 0.6500000E-02 -0.1474004E-23
 0.7600000E-02 -0.2878804E-23
 0.8700000E-02 -0.3095829E-23
 0.9800000E-02 -0.9855327E-24
 0.1090000E-01  0.3609480E-23
 0.1200000E-01  0.8966879E-23
 0.1310000E-01  0.1141725E-22
 0.1420000E-01  0.6791065E-23
 0.1530000E-01 -0.6648412E-23
 0.1640000E-01 -0.2502704E-22
 0.1750000E-01 -0.3777479E-22
 0.1860000E-01 -0.3099423E-22
 0.1970000E-01  0.4184327E-23
 0.2080000E-01  0.6124831E-22
 0.2190000E-01  0.1125509E-21
 0.2300000E-01  0.1157176E-21
 0.2410000E-01  0.3554337E-22
 0.2520000E-01 -0.1248684E-21
 0.2630000E-01 -0.3010649E-21
 0.2740000E-01 -0.3747964E-21
 0.2850000E-01 -0.2261852E-21
 0.2960000E-01  0.1797690E-21
 0.3070000E-01  0.7144193E-21
 0.3180000E-01  0.1076770E-20
 0.3290000E-01  0.9039283E-21
 0.3400000E-01 -0.7279549E-23
 0.3510000E-01 -0.1460626E-20
 0.3620000E-01 -0.2763427E-20
 0.3730000E-01 -0.2923930E-20
 0.3840000E-01 -0.1172333E-20
 0.3950000E-01  0.2377932E-20
 0.4060000E-01  0.6313224E-20
 0.4170000E-01  0.8172460E-20
 0.4280000E-01  0.5559805E-20
 0.4390000E-01 -0.2186975E-20
 0.4500000E-01 -0.1262231E-19
 0.4610000E-01 -0.2020653E-19
 0.4720000E-01 -0.1841906E-19
 0.4830000E-01 -0.3617055E-20
 0.4940000E-01  0.2107716E-19
 0.5050000E-01  0.4445449E-19
 0.5160000E-01  0.5061530E-19
 0.5270000E-01  0.2712838E-19
 0.5380000E-01 -0.2515440E-19
 0.5490000E-01 -0.8631343E-19
 0.5600000E-01 -0.1213053E-18
 0.5710000E-01 -0.9558099E-19
 0.5820000E-01  0.2434646E-20
 0.5930000E-01  0.1434770E-18
 0.6040000E-01  0.2578103E-18
 0.6150000E-01  0.2616727E-18
 0.6260000E-01  0.1042473E-18
 0.6370000E-01 -0.1859836E-18
 0.6480000E-01 -0.4852766E-18
 0.6590000E-01 -0.6120065E-18
 0.6700000E-01 -0.4159972E-18
 0.6810000E-01  0.1150589E-18
 0.6920000E-01  0.7919083E-18
 0.7030000E-01  0.1259749E-17
 0.7140000E-01  0.1151062E-17
 0.7250000E-01  0.3061406E-18
 0.7360000E-01 -0.1048919E-17
 0.7470000E-01 -0.2292759E-17
 0.7580000E-01 -0.2637211E-17
 0.7690000E-01 -0.1542332E-17
 0.7800000E-01  0.8667385E-18
 0.7910000E-01  0.3634103E-17
 0.8020000E-01  0.5249131E-17
 0.8130000E-01  0.4353498E-17
 0.8240000E-01  0.6034491E-18
 0.8350000E-01 -0.4777585E-17
 0.8460000E-01 -0.9192639E-17
 0.8570000E-01 -0.9745997E-17
 0.8680000E-01 -0.4850449E-17
 0.8790000E-01  0.4414404E-17
 0.8900000E-01  0.1407885E-16
 0.9010000E-01  0.1868880E-16
 0.9120000E-01  0.1402379E-16
 0.9230000E-01 -0.6550410E-19
 0.9340000E-01 -0.1833083E-16
 0.9450000E-01 -0.3154706E-16
 0.9560000E-01 -0.3067155E-16
 0.9670000E-01 -0.1212337E-16
 0.9780000E-01  0.1856746E-16
 0.9890000E-01  0.4733537E-16
 0.1000000E+00  0.5725260E-16
 0.1011000E+00  0.3745214E-16
 0.1022000E+00 -0.8955894E-17
 0.1033000E+00 -0.6282664E-16
 0.1044000E+00 -0.9557187E-16
 0.1055000E+00 -0.8294830E-16
 0.1066000E+00 -0.2004840E-16
 0.1077000E+00  0.7078486E-16
 0.1088000E+00  0.1455080E-15
 0.1099000E+00  0.1577207E-15
 0.1110000E+00  0.8432695E-16
 0.1121000E+00 -0.5546978E-16
 0.1132000E+00 -0.2002863E-15
 0.1143000E+00 -0.2704778E-15
 0.1154000E+00 -0.2082080E-15
 0.1165000E+00 -0.1504680E-16
 0.1176000E+00  0.2345770E-15
 0.1187000E+00  0.4172784E-15
 0.1198000E+00  0.4173200E-15
 0.1209000E+00  0.1919343E-15
 0.1220000E+00 -0.1888478E-15
 0.1231000E+00 -0.5554565E-15
 0.1242000E+00 -0.7092749E-15
 0.1253000E+00 -0.5237738E-15
 0.1264000E+00 -0.2728159E-16
 0.1275000E+00  0.5814669E-15
 0.1286000E+00  0.1006672E-14
 0.1297000E+00  0.9948529E-15
 0.1308000E+00  0.4769404E-15
 0.1319000E+00 -0.3634368E-15
 0.1330000E+00 -0.1145436E-14
 0.1341000E+00 -0.1461282E-14
 0.1352000E+00 -0.1087967E-14
 0.1363000E+00 -0.1319648E-15
 0.1374000E+00  0.9823878E-15
 0.1385000E+00  0.1698242E-14
 0.1396000E+00  0.1609206E-14
 0.1407000E+00  0.6975690E-15
 0.1418000E+00 -0.6114660E-15
 0.1429000E+00 -0.1636307E-14
 0.1440000E+00 -0.1794740E-14
 0.1451000E+00 -0.9490572E-15
 0.1462000E+00  0.4617860E-15
 0.1473000E+00  0.1613668E-14
 0.1484000E+00  0.1750252E-14
 0.1495000E+00  0.6676811E-15
 0.1506000E+00 -0.1060816E-14
 0.1517000E+00 -0.2311103E-14
 0.1528000E+00 -0.2038365E-14
 0.1539000E+00 -0.4057303E-17
 0.1550000E+00  0.2840141E-14
 0.1561000E+00  0.4646271E-14
 0.1572000E+00  0.3641664E-14
 0.1583000E+00 -0.6432044E-15
 0.1594000E+00 -0.6589253E-14
 0.1605000E+00 -0.1077642E-13
 0.1616000E+00 -0.9511535E-14
 0.1627000E+00 -0.1069971E-14
 0.1638000E+00  0.1245935E-13
 0.1649000E+00  0.2494757E-13
 0.1660000E+00  0.2828783E-13
 0.1671000E+00  0.1632907E-13
 0.1682000E+00 -0.1090010E-13
 0.1693000E+00 -0.4489376E-13
 0.1704000E+00 -0.7013911E-13
 0.1715000E+00 -0.6975341E-13
 0.1726000E+00 -0.3365333E-13
 0.1737000E+00  0.3410772E-13
 0.1748000E+00  0.1126870E-12
 0.1759000E+00  0.1690589E-12
 0.1770000E+00  0.1696410E-12
 0.1781000E+00  0.9536367E-13
 0.1792000E+00 -0.4578598E-13
 0.1803000E+00 -0.2148903E-12
 0.1814000E+00 -0.3505047E-12
 0.1825000E+00 -0.3883731E-12
 0.1836000E+00 -0.2865480E-12
 0.1847000E+00 -0.4677436E-13
 0.1858000E+00  0.2769410E-12
 0.1869000E+00  0.5879145E-12
 0.1880000E+00  0.7735871E-12
 0.1891000E+00  0.7420507E-12
 0.1902000E+00  0.4565299E-12
 0.1913000E+00 -0.4418129E-13
 0.1924000E+00 -0.6472611E-12
 0.1935000E+00 -0.1190370E-11
 0.1946000E+00 -0.1502805E-11
 0.1957000E+00 -0.1451901E-11
 0.1968000E+00 -0.9820939E-12
 0.1979000E+00 -0.1368169E-12
 0.1990000E+00  0.9413391E-12
 0.2001000E+00  0.2031192E-11
 0.2012000E+00  0.2869409E-11
 0.2023000E+00  0.3196700E-11
 0.2034000E+00  0.2808454E-11
 0.2045000E+00  0.1605667E-11
 0.2056000E+00 -0.3582480E-12
 0.2067000E+00 -0.2841986E-11
 0.2078000E+00 -0.5404092E-11
 0.2089000E+00 -0.7429905E-11
 0.2100000E+00 -0.8213511E-11
 0.2111000E+00 -0.7102588E-11
 0.2122000E+00 -0.3696643E-11
 0.2133000E+00  0.1935668E-11
 0.2144000E+00  0.9080379E-11
 0.2155000E+00  0.1632026E-10
 0.2166000E+00  0.2166840E-10
 0.2177000E+00  0.2293366E-10
 0.2188000E+00  0.1829565E-10
 0.2199000E+00  0.6985252E-11
 0.2210000E+00 -0.1011067E-10
 0.2221000E+00 -0.3014391E-10
 0.2232000E+00 -0.4850022E-10
 0.2243000E+00 -0.5959615E-10
 0.2254000E+00 -0.5820931E-10
 0.2265000E+00 -0.4107803E-10
 0.2276000E+00 -0.8345867E-11
 0.2287000E+00  0.3563015E-10
 0.2298000E+00  0.8249589E-10
 0.2309000E+00  0.1212845E-09
 0.2320000E+00  0.1407724E-09
 0.2331000E+00  0.1322755E-09
 0.2342000E+00  0.9214875E-10
 0.2353000E+00  0.2326573E-10
 0.2364000E+00 -0.6499148E-10
 0.2375000E+00 -0.1582640E-09
 0.2386000E+00 -0.2398396E-09
 0.2397000E+00 -0.2936153E-09
 0.2408000E+00 -0.3066037E-09
 0.2419000E+00 -0.2704663E-09
 0.2430000E+00 -0.1820406E-09
 0.2441000E+00 -0.4333126E-10
 0.2452000E+00  0.1383069E-09
 0.2463000E+00  0.3492193E-09
 0.2474000E+00  0.5677344E-09
 0.2485000E+00  0.7624912E-09
 0.2496000E+00  0.8923211E-09
 0.2507000E+00  0.9093907E-09
 0.2518000E+00  0.7667568E-09
 0.2529000E+00  0.4301574E-09
 0.2540000E+00 -0.1078775E-09
 0.2551000E+00 -0.8151222E-09
 0.2562000E+00 -0.1612290E-08
 0.2573000E+00 -0.2375067E-08
 0.2584000E+00 -0.2947582E-08
 0.2595000E+00 -0.3166516E-08
 0.2606000E+00 -0.2892084E-08
 0.2617000E+00 -0.2039852E-08
 0.2628000E+00 -0.6066727E-09
 0.2639000E+00  0.1314866E-08
 0.2650000E+00  0.3536435E-08
 0.2661000E+00  0.5788095E-08
 0.2672000E+00  0.7743448E-08
 0.2683000E+00  0.9051262E-08
 0.2694000E+00  0.9369407E-08
 0.2705000E+00  0.8398676E-08
 0.2716000E+00  0.5916246E-08
 0.2727000E+00  0.1809975E-08
 0.2738000E+00 -0.3885638E-08
 0.2749000E+00 -0.1095306E-07
 0.2760000E+00 -0.1895932E-07
 0.2771000E+00 -0.2723455E-07
 0.2782000E+00 -0.3486884E-07
 0.2793000E+00 -0.4073183E-07
 0.2804000E+00 -0.4351304E-07
 0.2815000E+00 -0.4177292E-07
 0.2826000E+00 -0.3398789E-07
 0.2837000E+00 -0.1856854E-07
 0.2848000E+00  0.6167122E-08
 0.2859000E+00  0.4207565E-07
 0.2870000E+00  0.9132442E-07
 0.2881000E+00  0.1565693E-06
 0.2892000E+00  0.2411547E-06
 0.2903000E+00  0.3493168E-06
 0.2914000E+00  0.4863817E-06
 0.2925000E+00  0.6589624E-06
 0.2936000E+00  0.8751794E-06
 0.2947000E+00  0.1144936E-05
 0.2958000E+00  0.1480287E-05
 0.2969000E+00  0.1895922E-05
 0.2980000E+00  0.2409782E-05
 0.2991000E+00  0.3043790E-05
 0.3002000E+00  0.3824669E-05
 0.3013000E+00  0.4784836E-05
 0.3024000E+00  0.5963340E-05
 0.3035000E+00  0.7406868E-05
 0.3046000E+00  0.9170853E-05
 0.3057000E+00  0.1132074E-04
 0.3068000E+00  0.1393350E-04
 0.3079000E+00  0.1709937E-04
 0.3090000E+00  0.2092401E-04
 0.3101000E+00  0.2553080E-04
 0.3112000E+00  0.3106352E-04
 0.3123000E+00  0.3768916E-04
 0.3134000E+00  0.4560083E-04
 0.3145000E+00  0.5502090E-04
 0.3156000E+00  0.6620416E-04
 0.3167000E+00  0.7944123E-04
 0.3178000E+00  0.9506219E-04
 0.3189000E+00  0.1134404E-03
 0.3200000E+00  0.1349966E-03
 0.3211000E+00  0.1602034E-03
 0.3222000E+00  0.1895890E-03
 0.3233000E+00  0.2237419E-03
 0.3244000E+00  0.2633140E-03
 0.3255000E+00  0.3090243E-03
 0.3266000E+00  0.3616613E-03
 0.3277000E+00  0.4220847E-03
 0.3288000E+00  0.4912268E-03
 0.3299000E+00  0.5700928E-03
 0.3310000E+00  0.6597596E-03
 0.3321000E+00  0.7613746E-03
 0.3332000E+00  0.8761519E-03
 0.3343000E+00  0.1005367E-02
 0.3354000E+00  0.1150349E-02
 0.3365000E+00  0.1312471E-02
 0.3376000E+00  0.1493138E-02
 0.3387000E+00  0.1693770E-02
 0.3398000E+00  0.1915786E-02
 0.3409000E+00  0.2160583E-02
 0.3420000E+00  0.2429513E-02
 0.3431000E+00  0.2723855E-02
 0.3442000E+00  0.3044791E-02
 0.3453000E+00  0.3393371E-02
 0.3464000E+00  0.3770481E-02
 0.3475000E+00  0.4176809E-02
 0.3486000E+00  0.4612798E-02
 0.3497000E+00  0.5078621E-02
 0.3508000E+00  0.5574125E-02
 0.3519000E+00  0.6098803E-02
 0.3530000E+00  0.6651746E-02
 0.3541000E+00  0.7231610E-02
 0.3552000E+00  0.7836584E-02
 0.3563000E+00  0.8464349E-02
 0.3574000E+00  0.9112062E-02
 0.3585000E+00  0.9776328E-02
 0.3596000E+00  0.1045319E-01
 0.3607000E+00  0.1113811E-01
 0.3618000E+00  0.1182599E-01
 0.3629000E+00  0.1251115E-01
 0.3640000E+00  0.1318739E-01
 0.3651000E+00  0.1384800E-01
 0.3662000E+00  0.1448578E-01
 0.3673000E+00  0.1509316E-01
 0.3684000E+00  0.1566220E-01
 0.3695000E+00  0.1618469E-01
 0.3706000E+00  0.1665227E-01
 0.3717000E+00  0.1705648E-01
 0.3728000E+00  0.1738890E-01
 0.3739000E+00  0.1764127E-01
 0.3750000E+00  0.1780560E-01
 0.3761000E+00  0.1787429E-01
 0.3772000E+00  0.1784030E-01
 0.3783000E+00  0.1769724E-01
 0.3794000E+00  0.1743953E-01
 0.3805000E+00  0.1706251E-01
 0.3816000E+00  0.1656257E-01
 0.3827000E+00  0.1593725E-01
 0.3838000E+00  0.1518534E-01
 0.3849000E+00  0.1430695E-01
 0.3860000E+00  0.1330359E-01
 0.3871000E+00  0.1217821E-01
 0.3882000E+00  0.1093523E-01
 0.3893000E+00  0.9580537E-02
 0.3904000E+00  0.8121466E-02
 0.3915000E+00  0.6566764E-02
 0.3926000E+00  0.4926512E-02
 0.3937000E+00  0.3212037E-02
 0.3948000E+00  0.1435800E-02
 0.3959000E+00 -0.3887417E-03
 0.3970000E+00 -0.2247285E-02
 0.3981000E+00 -0.4124853E-02
 0.3992000E+00 -0.6005981E-02
 0.4003000E+00 -0.7874913E-02
 0.4014000E+00 -0.9715800E-02
 0.4025000E+00 -0.1151292E-01
 0.4036000E+00 -0.1325087E-01
 0.4047000E+00 -0.1491480E-01
 0.4058000E+00 -0.1649057E-01
 0.4069000E+00 -0.1796498E-01
 0.4080000E+00 -0.1932594E-01
 0.4091000E+00 -0.2056258E-01
 0.4102000E+00 -0.2166545E-01
 0.4113000E+00 -0.2262659E-01
 0.4124000E+00 -0.2343964E-01
 0.4135000E+00 -0.2409989E-01
 0.4146000E+00 -0.2460433E-01
 0.4157000E+00 -0.2495166E-01
 0.4168000E+00 -0.2514230E-01
 0.4179000E+00 -0.2517829E-01
 0.4190000E+00 -0.2506329E-01
 0.4201000E+00 -0.2480246E-01
 0.4212000E+00 -0.2440236E-01
 0.4223000E+00 -0.2387082E-01
 0.4234000E+00 -0.2321678E-01
 0.4245000E+00 -0.2245018E-01
 0.4256000E+00 -0.2158174E-01
 0.4267000E+00 -0.2062284E-01
 0.4278000E+00 -0.1958531E-01
 0.4289000E+00 -0.1848128E-01
 0.4300000E+00 -0.1732300E-01
 0.4311000E+00 -0.1612269E-01
 0.4322000E+00 -0.1489238E-01
 0.4333000E+00 -0.1364376E-01
 0.4344000E+00 -0.1238805E-01
 0.4355000E+00 -0.1113590E-01
 0.4366000E+00 -0.9897269E-02
 0.4377000E+00 -0.8681356E-02
 0.4388000E+00 -0.7496521E-02
 0.4399000E+00 -0.6350241E-02
 0.4410000E+00 -0.5249073E-02
 0.4421000E+00 -0.4198636E-02
 0.4432000E+00 -0.3203611E-02
 0.4443000E+00 -0.2267749E-02
 0.4454000E+00 -0.1393904E-02
 0.4465000E+00 -0.5840641E-03
 0.4476000E+00  0.1606030E-03
 0.4487000E+00  0.8396968E-03
 0.4498000E+00  0.1453525E-02
 0.4509000E+00  0.2003039E-02
 0.4520000E+00  0.2489759E-02
 0.4531000E+00  0.2915709E-02
 0.4542000E+00  0.3283337E-02
 0.4553000E+00  0.3595445E-02
 0.4564000E+00  0.3855123E-02
 0.4575000E+00  0.4065681E-02
 0.4586000E+00  0.4230583E-02
 0.4597000E+00  0.4353390E-02
 0.4608000E+00  0.4437705E-02
 0.4619000E+00  0.4487125E-02
 0.4630000E+00  0.4505197E-02
 0.4641000E+00  0.4495377E-02
 0.4652000E+00  0.4461003E-02
 0.4663000E+00  0.4405267E-02
 0.4674000E+00  0.4331188E-02
 0.4685000E+00  0.4241599E-02
 0.4696000E+00  0.4139137E-02
 0.4707000E+00  0.4026234E-02
 0.4718000E+00  0.3905109E-02
 0.4729000E+00  0.3777778E-02
 0.4740000E+00  0.3646048E-02
 0.4751000E+00  0.3511523E-02
 0.4762000E+00  0.3375615E-02
 0.4773000E+00  0.3239552E-02
 0.4784000E+00  0.3104387E-02
 0.4795000E+00  0.2971016E-02
 0.4806000E+00  0.2840184E-02
 0.4817000E+00  0.2712505E-02
 0.4828000E+00  0.2588468E-02
 0.4839000E+00  0.2468457E-02
 0.4850000E+00  0.2352759E-02
 0.4861000E+00  0.2241576E-02
 0.4872000E+00  0.2135037E-02
 0.4883000E+00  0.2033208E-02
 0.4894000E+00  0.1936097E-02
 0.4905000E+00  0.1843667E-02
 0.4916000E+00  0.1755846E-02
 0.4927000E+00  0.1672536E-02
 0.4938000E+00  0.1593617E-02
 0.4949000E+00  0.1518959E-02
 0.4960000E+00  0.1448418E-02
 0.4971000E+00  0.1381843E-02
 0.4982000E+00  0.1319072E-02
 0.4993000E+00  0.1259938E-02
 0.5004000E+00  0.1204268E-02
 0.5015000E+00  0.1151892E-02
 0.5026000E+00  0.1102639E-02
 0.5037000E+00  0.1056344E-02
 0.5048000E+00  0.1012848E-02
 0.5059000E+00  0.9719961E-03
 0.5070000E+00  0.9336375E-03
 0.5081000E+00  0.8976265E-03
 0.5092000E+00  0.8638207E-03
 0.5103000E+00  0.8320797E-03
 0.5114000E+00  0.8022650E-03
 0.5125000E+00  0.7742387E-03
 0.5136000E+00  0.7478663E-03
 0.5147000E+00  0.7230180E-03
 0.5158000E+00  0.6995716E-03
 0.5169000E+00  0.6774146E-03
 0.5180000E+00  0.6564440E-03
 0.5191000E+00  0.6365639E-03
 0.5202000E+00  0.6176840E-03
 0.5213000E+00  0.5997177E-03
 0.5224000E+00  0.5825826E-03
 0.5235000E+00  0.5662022E-03
 0.5246000E+00  0.5505080E-03
 0.5257000E+00  0.5354402E-03
 0.5268000E+00  0.5209480E-03
 0.5279000E+00  0.5069881E-03
 0.5290000E+00  0.4935234E-03
 0.5301000E+00  0.4805223E-03
 0.5312000E+00  0.4679580E-03
 0.5323000E+00  0.4558079E-03
 0.5334000E+00  0.4440527E-03
 0.5345000E+00  0.4326750E-03
 0.5356000E+00  0.4216579E-03
 0.5367000E+00  0.4109849E-03
 0.5378000E+00  0.4006407E-03
 0.5389000E+00  0.3906115E-03
 0.5400000E+00  0.3808860E-03
 0.5411000E+00  0.3714548E-03
 0.5422000E+00  0.3623083E-03
 0.5433000E+00  0.3534359E-03
 0.5444000E+00  0.3448258E-03
 0.5455000E+00  0.3364654E-03
 0.5466000E+00  0.3283426E-03
 0.5477000E+00  0.3204472E-03
 0.5488000E+00  0.3127708E-03
 0.5499000E+00  0.3053054E-03
 0.5510000E+00  0.2980431E-03
 0.5521000E+00  0.2909749E-03
 0.5532000E+00  0.2840921E-03
 0.5543000E+00  0.2773873E-03
 0.5554000E+00  0.2708551E-03
 0.5565000E+00  0.2644923E-03
 0.5576000E+00  0.2582952E-03
 0.5587000E+00  0.2522578E-03
 0.5598000E+00  0.2463690E-03
 0.5609000E+00  0.2406108E-03
 0.5620000E+00  0.2349572E-03
 0.5631000E+00  0.2293731E-03
 0.5642000E+00  0.2238136E-03
 0.5653000E+00  0.2182225E-03
 0.5664000E+00  0.2125316E-03
 0.5675000E+00  0.2066599E-03
 0.5686000E+00  0.2005142E-03
 0.5697000E+00  0.1939892E-03
 0.5708000E+00  0.1869669E-03
 0.5719000E+00  0.1793154E-03
 0.5730000E+00  0.1708867E-03
 0.5741000E+00  0.1615150E-03
 0.5752000E+00  0.1510148E-03
 0.5763000E+00  0.1391810E-03
 0.5774000E+00  0.1257898E-03
 0.5785000E+00  0.1105995E-03
 0.5796000E+00  0.9335137E-04
 0.5807000E+00  0.7377019E-04
 0.5818000E+00  0.5156383E-04
 0.5829000E+00  0.2642331E-04
 0.5840000E+00 -0.1977322E-05
 0.5851000E+00 -0.3398105E-04
 0.5862000E+00 -0.6994825E-04
 0.5873000E+00 -0.1102577E-03
 0.5884000E+00 -0.1553081E-03
 0.5895000E+00 -0.2055199E-03
 0.5906000E+00 -0.2613364E-03
 0.5917000E+00 -0.3232252E-03
 0.5928000E+00 -0.3916772E-03
 0.5939000E+00 -0.4672051E-03
 0.5950000E+00 -0.5503410E-03
 0.5961000E+00 -0.6416332E-03
 0.5972000E+00 -0.7416435E-03
 0.5983000E+00 -0.8509445E-03
 0.5994000E+00 -0.9701171E-03
 0.6005000E+00 -0.1099749E-02
 0.6016000E+00 -0.1240433E-02
 0.6027000E+00 -0.1392760E-02
 0.6038000E+00 -0.1557316E-02
 0.6049000E+00 -0.1734674E-02
 0.6060000E+00 -0.1925383E-02
 0.6071000E+00 -0.2129959E-02
 0.6082000E+00 -0.2348877E-02
 0.6093000E+00 -0.2582561E-02
 0.6104000E+00 -0.2831373E-02
 0.6115000E+00 -0.3095601E-02
 0.6126000E+00 -0.3375452E-02
 0.6137000E+00 -0.3671031E-02
 0.6148000E+00 -0.3982336E-02
 0.6159000E+00 -0.4309233E-02
 0.6170000E+00 -0.4651446E-02
 0.6181000E+00 -0.5008537E-02
 0.6192000E+00 -0.5379883E-02
 0.6203000E+00 -0.5764658E-02
 0.6214000E+00 -0.6161812E-02
 0.6225000E+00 -0.6570050E-02
 0.6236000E+00 -0.6987806E-02
 0.6247000E+00 -0.7413232E-02
 0.6258000E+00 -0.7844167E-02
 0.6269000E+00 -0.8278118E-02
 0.6280000E+00 -0.8712243E-02
 0.6291000E+00 -0.9143326E-02
 0.6302000E+00 -0.9567770E-02
 0.6313000E+00 -0.9981582E-02
 0.6324000E+00 -0.1038038E-01
 0.6335000E+00 -0.1075938E-01
 0.6346000E+00 -0.1111344E-01
 0.6357000E+00 -0.1143704E-01
 0.6368000E+00 -0.1172435E-01
 0.6379000E+00 -0.1196922E-01
 0.6390000E+00 -0.1216530E-01
 0.6401000E+00 -0.1230602E-01
 0.6412000E+00 -0.1238476E-01
 0.6423000E+00 -0.1239485E-01
 0.6434000E+00 -0.1232976E-01
 0.6445000E+00 -0.1218312E-01
 0.6456000E+00 -0.1194892E-01
 0.6467000E+00 -0.1162160E-01
 0.6478000E+00 -0.1119619E-01
 0.6489000E+00 -0.1066844E-01
 0.6500000E+00 -0.1003500E-01
 0.6511000E+00 -0.9293504E-02
 0.6522000E+00 -0.8442724E-02
 0.6533000E+00 -0.7482706E-02
 0.6544000E+00 -0.6414873E-02
 0.6555000E+00 -0.5242122E-02
 0.6566000E+00 -0.3968906E-02
 0.6577000E+00 -0.2601281E-02
 0.6588000E+00 -0.1146936E-02
 0.6599000E+00  0.3848169E-03
 0.6610000E+00  0.1983074E-02
 0.6621000E+00  0.3635407E-02
 0.6632000E+00  0.5327959E-02
 0.6643000E+00  0.7045571E-02
 0.6654000E+00  0.8771949E-02
 0.6665000E+00  0.1048985E-01
 0.6676000E+00  0.1218128E-01
 0.6687000E+00  0.1382778E-01
 0.6698000E+00  0.1541064E-01
 0.6709000E+00  0.1691123E-01
 0.6720000E+00  0.1831122E-01
 0.6731000E+00  0.1959295E-01
 0.6742000E+00  0.2073969E-01
 0.6753000E+00  0.2173594E-01
 0.6764000E+00  0.2256769E-01
 0.6775000E+00  0.2322270E-01
 0.6786000E+00  0.2369072E-01
 0.6797000E+00  0.2396368E-01
 0.6808000E+00  0.2403589E-01
 0.6819000E+00  0.2390412E-01
 0.6830000E+00  0.2356773E-01
 0.6841000E+00  0.2302870E-01
 0.6852000E+00  0.2229162E-01
 0.6863000E+00  0.2136365E-01
 0.6874000E+00  0.2025444E-01
 0.6885000E+00  0.1897597E-01
 0.6896000E+00  0.1754243E-01
 0.6907000E+00  0.1596992E-01
 0.6918000E+00  0.1427627E-01
 0.6929000E+00  0.1248076E-01
 0.6940000E+00  0.1060379E-01
 0.6951000E+00  0.8666595E-02
 0.6962000E+00  0.6690898E-02
 0.6973000E+00  0.4698611E-02
 0.6984000E+00  0.2711484E-02
 0.6995000E+00  0.7507892E-03
 0.7006000E+00 -0.1162980E-02
 0.7017000E+00 -0.3010397E-02
 0.7028000E+00 -0.4773357E-02
 0.7039000E+00 -0.6435306E-02
 0.7050000E+00 -0.7981441E-02
 0.7061000E+00 -0.9398875E-02
 0.7072000E+00 -0.1067676E-01
 0.7083000E+00 -0.1180639E-01
 0.7094000E+00 -0.1278123E-01
 0.7105000E+00 -0.1359696E-01
 0.7116000E+00 -0.1425142E-01
 0.7127000E+00 -0.1474457E-01
 0.7138000E+00 -0.1507840E-01
 0.7149000E+00 -0.1525679E-01
 0.7160000E+00 -0.1528539E-01
 0.7171000E+00 -0.1517142E-01
 0.7182000E+00 -0.1492353E-01
 0.7193000E+00 -0.1455155E-01
 0.7204000E+00 -0.1406633E-01
 0.7215000E+00 -0.1347952E-01
 0.7226000E+00 -0.1280332E-01
 0.7237000E+00 -0.1205031E-01
 0.7248000E+00 -0.1123323E-01
 0.7259000E+00 -0.1036480E-01
 0.7270000E+00 -0.9457501E-02
 0.7281000E+00 -0.8523448E-02
 0.7292000E+00 -0.7574223E-02
 0.7303000E+00 -0.6620741E-02
 0.7314000E+00 -0.5673140E-02
 0.7325000E+00 -0.4740692E-02
 0.7336000E+00 -0.3831729E-02
 0.7347000E+00 -0.2953598E-02
 0.7358000E+00 -0.2112624E-02
 0.7369000E+00 -0.1314098E-02
 0.7380000E+00 -0.5622762E-03
 0.7391000E+00  0.1395983E-03
 0.7402000E+00  0.7892652E-03
 0.7413000E+00  0.1385399E-02
 0.7424000E+00  0.1927545E-02
 0.7435000E+00  0.2416052E-02
 0.7446000E+00  0.2851991E-02
 0.7457000E+00  0.3237076E-02
 0.7468000E+00  0.3573576E-02
 0.7479000E+00  0.3864229E-02
 0.7490000E+00  0.4112157E-02
 0.7501000E+00  0.4320770E-02
 0.7512000E+00  0.4493687E-02
 0.7523000E+00  0.4634649E-02
 0.7534000E+00  0.4747445E-02
 0.7545000E+00  0.4835840E-02
 0.7556000E+00  0.4903511E-02
 0.7567000E+00  0.4953986E-02
 0.7578000E+00  0.4990592E-02
 0.7589000E+00  0.5016409E-02
 0.7600000E+00  0.5034226E-02
 0.7611000E+00  0.5046519E-02
 0.7622000E+00  0.5055427E-02
 0.7633000E+00  0.5062738E-02
 0.7644000E+00  0.5069884E-02
 0.7655000E+00  0.5077944E-02
 0.7666000E+00  0.5087641E-02
 0.7677000E+00  0.5099359E-02
 0.7688000E+00  0.5113158E-02
 0.7699000E+00  0.5128797E-02
 0.7710000E+00  0.5145756E-02
 0.7721000E+00  0.5163264E-02
 0.7732000E+00  0.5180329E-02
 0.7743000E+00  0.5195762E-02
 0.7754000E+00  0.5208220E-02
 0.7765000E+00  0.5216233E-02
 0.7776000E+00  0.5218244E-02
 0.7787000E+00  0.5212646E-02
 0.7798000E+00  0.5197815E-02
 0.7809000E+00  0.5172142E-02
 0.7820000E+00  0.5134065E-02
 0.7831000E+00  0.5082099E-02
 0.7842000E+00  0.5014867E-02
 0.7853000E+00  0.4931128E-02
 0.7864000E+00  0.4829806E-02
 0.7875000E+00  0.4710014E-02
 0.7886000E+00  0.4571072E-02
 0.7897000E+00  0.4412526E-02
 0.7908000E+00  0.4234159E-02
 0.7919000E+00  0.4036006E-02
 0.7930000E+00  0.3818358E-02
 0.7941000E+00  0.3581777E-02
 0.7952000E+00  0.3327093E-02
 0.7963000E+00  0.3055409E-02
 0.7974000E+00  0.2768093E-02
 0.7985000E+00  0.2466771E-02
 0.7996000E+00  0.2153317E-02
 0.8007000E+00  0.1829829E-02
 0.8018000E+00  0.1498615E-02
 0.8029000E+00  0.1162166E-02
 0.8040000E+00  0.8231294E-03
 0.8051000E+00  0.4842833E-03
 0.8062000E+00  0.1485081E-03
 0.8073000E+00 -0.1812467E-03
 0.8084000E+00 -0.5019972E-03
 0.8095000E+00 -0.8107647E-03
 0.8106000E+00 -0.1104616E-02
 0.8117000E+00 -0.1380706E-02
 0.8128000E+00 -0.1636313E-02
 0.8139000E+00 -0.1868878E-02
 0.8150000E+00 -0.2076033E-02
 0.8161000E+00 -0.2255639E-02
 0.8172000E+00 -0.2405812E-02
 0.8183000E+00 -0.2524949E-02
 0.8194000E+00 -0.2611756E-02
 0.8205000E+00 -0.2665260E-02
 0.8216000E+00 -0.2684830E-02
 0.8227000E+00 -0.2670180E-02
 0.8238000E+00 -0.2621380E-02
 0.8249000E+00 -0.2538857E-02
 0.8260000E+00 -0.2423395E-02
 0.8271000E+00 -0.2276125E-02
 0.8282000E+00 -0.2098506E-02
 0.8293000E+00 -0.1892310E-02
 0.8304000E+00 -0.1659592E-02
 0.8315000E+00 -0.1402671E-02
 0.8326000E+00 -0.1124101E-02
 0.8337000E+00 -0.8266491E-03
 0.8348000E+00 -0.5132654E-03
 0.8359000E+00 -0.1870511E-03
 0.8370000E+00  0.1487771E-03
 0.8381000E+00  0.4909221E-03
 0.8392000E+00  0.8360396E-03
 0.8403000E+00  0.1180766E-02
 0.8414000E+00  0.1521745E-02
 0.8425000E+00  0.1855653E-02
 0.8436000E+00  0.2179232E-02
 0.8447000E+00  0.2489313E-02
 0.8458000E+00  0.2782850E-02
 0.8469000E+00  0.3056942E-02
 0.8480000E+00  0.3308856E-02
 0.8491000E+00  0.3536042E-02
 0.8502000E+00  0.3736147E-02
 0.8513000E+00  0.3907028E-02
 0.8524000E+00  0.4046769E-02
 0.8535000E+00  0.4153702E-02
 0.8546000E+00  0.4226418E-02
 0.8557000E+00  0.4263787E-02
 0.8568000E+00  0.4264967E-02
 0.8579000E+00  0.4229420E-02
 0.8590000E+00  0.4156915E-02
 0.8601000E+00  0.4047545E-02
 0.8612000E+00  0.3901729E-02
 0.8623000E+00  0.3720216E-02
 0.8634000E+00  0.3504087E-02
 0.8645000E+00  0.3254752E-02
 0.8656000E+00  0.2973940E-02
 0.8667000E+00  0.2663701E-02
 0.8678000E+00  0.2326388E-02
 0.8689000E+00  0.1964653E-02
 0.8700000E+00  0.1581426E-02
 0.8711000E+00  0.1179890E-02
 0.8722000E+00  0.7634474E-03
 0.8733000E+00  0.3356896E-03
 0.8744000E+00 -0.9964562E-04
 0.8755000E+00 -0.5387137E-03
 0.8766000E+00 -0.9776064E-03
 0.8777000E+00 -0.1412398E-02
 0.8788000E+00 -0.1839196E-02
 0.8799000E+00 -0.2254189E-02
 0.8810000E+00 -0.2653703E-02
 0.8821000E+00 -0.3034248E-02
 0.8832000E+00 -0.3392569E-02
 0.8843000E+00 -0.3725688E-02
 0.8854000E+00 -0.4030947E-02
 0.8865000E+00 -0.4306046E-02
 0.8876000E+00 -0.4549075E-02
 0.8887000E+00 -0.4758537E-02
 0.8898000E+00 -0.4933372E-02
 0.8909000E+00 -0.5072961E-02
 0.8920000E+00 -0.5177134E-02
 0.8931000E+00 -0.5246163E-02
 0.8942000E+00 -0.5280748E-02
 0.8953000E+00 -0.5281998E-02
 0.8964000E+00 -0.5251402E-02
 0.8975000E+00 -0.5190798E-02
 0.8986000E+00 -0.5102328E-02
 0.8997000E+00 -0.4988403E-02
 0.9008000E+00 -0.4851650E-02
 0.9019000E+00 -0.4694871E-02
 0.9030000E+00 -0.4520987E-02
 0.9041000E+00 -0.4332985E-02
 0.9052000E+00 -0.4133871E-02
 0.9063000E+00 -0.3926610E-02
 0.9074000E+00 -0.3714083E-02
 0.9085000E+00 -0.3499039E-02
 0.9096000E+00 -0.3284058E-02
 0.9107000E+00 -0.3071513E-02
 0.9118000E+00 -0.2863546E-02
 0.9129000E+00 -0.2662043E-02
 0.9140000E+00 -0.2468616E-02
 0.9151000E+00 -0.2284597E-02
 0.9162000E+00 -0.2111034E-02
 0.9173000E+00 -0.1948687E-02
 0.9184000E+00 -0.1798041E-02
 0.9195000E+00 -0.1659304E-02
 0.9206000E+00 -0.1532423E-02
 0.9217000E+00 -0.1417098E-02
 0.9228000E+00 -0.1312799E-02
 0.9239000E+00 -0.1218792E-02
 0.9250000E+00 -0.1134166E-02
 0.9261000E+00 -0.1057858E-02
 0.9272000E+00 -0.9886856E-03
 0.9283000E+00 -0.9253714E-03
 0.9294000E+00 -0.8665724E-03
 0.9305000E+00 -0.8109056E-03
 0.9316000E+00 -0.7569739E-03
 0.9327000E+00 -0.7033909E-03
 0.9338000E+00 -0.6488030E-03
 0.9349000E+00 -0.5919112E-03
 0.9360000E+00 -0.5314901E-03
 0.9371000E+00 -0.4664072E-03
 0.9382000E+00 -0.3956410E-03
 0.9393000E+00 -0.3182993E-03
 0.9404000E+00 -0.2336348E-03
 0.9415000E+00 -0.1410594E-03
 0.9426000E+00 -0.4015497E-04
 0.9437000E+00  0.6931836E-04
 0.9448000E+00  0.1874152E-03
 0.9459000E+00  0.3140004E-03
 0.9470000E+00  0.4487453E-03
 0.9481000E+00  0.5911271E-03
 0.9492000E+00  0.7404307E-03
 0.9503000E+00  0.8957542E-03
 0.9514000E+00  0.1056018E-02
 0.9525000E+00  0.1219978E-02
 0.9536000E+00  0.1386236E-02
 0.9547000E+00  0.1553260E-02
 0.9558000E+00  0.1719399E-02
 0.9569000E+00  0.1882903E-02
 0.9580000E+00  0.2041950E-02
 0.9591000E+00  0.2194670E-02
 0.9602000E+00  0.2339179E-02
 0.9613000E+00  0.2473609E-02
 0.9624000E+00  0.2596139E-02
 0.9635000E+00  0.2705029E-02
 0.9646000E+00  0.2798648E-02
 0.9657000E+00  0.2875500E-02
 0.9668000E+00  0.2934253E-02
 0.9679000E+00  0.2973761E-02
 0.9690000E+00  0.2993090E-02
 0.9701000E+00  0.2991537E-02
 0.9712000E+00  0.2968647E-02
 0.9723000E+00  0.2924226E-02
 0.9734000E+00  0.2858348E-02
 0.9745000E+00  0.2771361E-02
 0.9756000E+00  0.2663880E-02
 0.9767000E+00  0.2536780E-02
 0.9778000E+00  0.2391187E-02
 0.9789000E+00  0.2228457E-02