 -0.119999997         0.00000000    
 -0.119000003         0.00000000    
 -0.118000001         0.00000000    
 -0.116999999         0.00000000    
 -0.115999997         0.00000000    
 -0.115000002         0.00000000    
 -0.114000000         0.00000000    
 -0.112999998         0.00000000    
 -0.112000003         0.00000000    
 -0.111000001         0.00000000    
 -0.109999999         0.00000000    
 -0.108999997         0.00000000    
 -0.108000003         0.00000000    
 -0.107000001         0.00000000    
 -0.105999999         0.00000000    
 -0.104999997         0.00000000    
 -0.104000002         0.00000000    
 -0.103000000         0.00000000    
 -0.101999998         0.00000000    
 -0.101000004         0.00000000    
 -0.100000001         0.00000000    
  -9.89999995E-02     0.00000000    
  -9.79999974E-02     0.00000000    
  -9.70000029E-02     0.00000000    
  -9.60000008E-02     0.00000000    
  -9.49999988E-02     0.00000000    
  -9.39999968E-02     0.00000000    
  -9.30000022E-02     0.00000000    
  -9.20000002E-02     0.00000000    
  -9.09999982E-02     0.00000000    
  -9.00000036E-02     0.00000000    
  -8.90000015E-02     0.00000000    
  -8.79999995E-02     0.00000000    
  -8.69999975E-02     0.00000000    
  -8.60000029E-02     0.00000000    
  -8.50000009E-02     0.00000000    
  -8.39999989E-02     0.00000000    
  -8.29999968E-02     0.00000000    
  -8.20000023E-02     0.00000000    
  -8.10000002E-02     0.00000000    
  -7.99999982E-02     0.00000000    
  -7.90000036E-02     0.00000000    
  -7.80000016E-02     0.00000000    
  -7.69999996E-02     0.00000000    
  -7.59999976E-02     0.00000000    
  -7.50000030E-02     0.00000000    
  -7.40000010E-02     0.00000000    
  -7.29999989E-02     0.00000000    
  -7.19999969E-02     0.00000000    
  -7.10000023E-02     0.00000000    
  -7.00000003E-02     0.00000000    
  -6.89999983E-02     0.00000000    
  -6.80000037E-02     0.00000000    
  -6.70000017E-02     0.00000000    
  -6.59999996E-02     0.00000000    
  -6.49999976E-02     0.00000000    
  -6.40000030E-02     0.00000000    
  -6.30000010E-02     0.00000000    
  -6.19999990E-02     0.00000000    
  -6.10000007E-02     0.00000000    
  -5.99999987E-02     0.00000000    
  -5.90000004E-02     0.00000000    
  -5.79999983E-02     0.00000000    
  -5.70000000E-02     0.00000000    
  -5.60000017E-02     0.00000000    
  -5.49999997E-02     0.00000000    
  -5.40000014E-02     0.00000000    
  -5.29999994E-02     0.00000000    
  -5.20000011E-02     0.00000000    
  -5.09999990E-02     0.00000000    
  -5.00000007E-02     0.00000000    
  -4.89999987E-02     0.00000000    
  -4.80000004E-02     0.00000000    
  -4.69999984E-02     0.00000000    
  -4.60000001E-02     0.00000000    
  -4.50000018E-02     0.00000000    
  -4.39999998E-02     0.00000000    
  -4.30000015E-02     0.00000000    
  -4.19999994E-02     0.00000000    
  -4.10000011E-02     0.00000000    
  -3.99999991E-02     0.00000000    
  -3.90000008E-02     0.00000000    
  -3.79999988E-02     0.00000000    
  -3.70000005E-02     0.00000000    
  -3.59999985E-02     0.00000000    
  -3.50000001E-02     0.00000000    
  -3.40000018E-02     0.00000000    
  -3.29999998E-02     0.00000000    
  -3.20000015E-02     0.00000000    
  -3.09999995E-02     0.00000000    
  -2.99999993E-02     0.00000000    
  -2.89999992E-02     0.00000000    
  -2.80000009E-02     0.00000000    
  -2.70000007E-02     0.00000000    
  -2.60000005E-02     0.00000000    
  -2.50000004E-02     0.00000000    
  -2.40000002E-02     0.00000000    
  -2.30000000E-02     0.00000000    
  -2.19999999E-02     0.00000000    
  -2.09999997E-02     0.00000000    
  -1.99999996E-02     0.00000000    
  -1.89999994E-02     0.00000000    
  -1.79999992E-02     0.00000000    
  -1.70000009E-02     0.00000000    
  -1.60000008E-02     0.00000000    
  -1.49999997E-02     0.00000000    
  -1.40000004E-02     0.00000000    
  -1.30000003E-02     0.00000000    
  -1.20000001E-02     0.00000000    
  -1.09999999E-02     0.00000000    
  -9.99999978E-03     0.00000000    
  -8.99999961E-03     0.00000000    
  -8.00000038E-03     0.00000000    
  -7.00000022E-03     0.00000000    
  -6.00000005E-03     0.00000000    
  -4.99999989E-03     0.00000000    
  -4.00000019E-03     0.00000000    
  -3.00000003E-03     0.00000000    
  -2.00000009E-03     0.00000000    
  -1.00000005E-03     0.00000000    
   0.00000000         0.00000000    
   1.00000005E-03     0.00000000    
   2.00000009E-03     0.00000000    
   3.00000003E-03     0.00000000    
   4.00000019E-03     0.00000000    
   4.99999989E-03     0.00000000    
   6.00000005E-03     0.00000000    
   7.00000022E-03     0.00000000    
   8.00000038E-03     0.00000000    
   8.99999961E-03     0.00000000    
   9.99999978E-03     0.00000000    
   1.09999999E-02     0.00000000    
   1.20000001E-02     0.00000000    
   1.30000003E-02     0.00000000    
   1.40000004E-02     0.00000000    
   1.49999997E-02     0.00000000    
   1.60000008E-02     0.00000000    
   1.70000009E-02     0.00000000    
   1.79999992E-02     0.00000000    
   1.89999994E-02     0.00000000    
   1.99999996E-02     0.00000000    
   2.09999997E-02     0.00000000    
   2.19999999E-02     0.00000000    
   2.30000000E-02     0.00000000    
   2.40000002E-02     0.00000000    
   2.50000004E-02     0.00000000    
   2.60000005E-02     0.00000000    
   2.70000007E-02     0.00000000    
   2.80000009E-02     0.00000000    
   2.89999992E-02     0.00000000    
   2.99999993E-02     0.00000000    
   3.09999995E-02     0.00000000    
   3.20000015E-02     0.00000000    
   3.29999998E-02     0.00000000    
   3.40000018E-02     0.00000000    
   3.50000001E-02     0.00000000    
   3.59999985E-02     0.00000000    
   3.70000005E-02     0.00000000    
   3.79999988E-02     0.00000000    
   3.90000008E-02     0.00000000    
   3.99999991E-02     0.00000000    
   4.10000011E-02     0.00000000    
   4.19999994E-02     0.00000000    
   4.30000015E-02     0.00000000    
   4.39999998E-02     0.00000000    
   4.50000018E-02     0.00000000    
   4.60000001E-02     0.00000000    
   4.69999984E-02     0.00000000    
   4.80000004E-02     0.00000000    
   4.89999987E-02     0.00000000    
   5.00000007E-02     0.00000000    
   5.09999990E-02     0.00000000    
   5.20000011E-02     0.00000000    
   5.29999994E-02     0.00000000    
   5.40000014E-02     0.00000000    
   5.49999997E-02     0.00000000    
   5.60000017E-02     0.00000000    
   5.70000000E-02     0.00000000    
   5.79999983E-02     0.00000000    
   5.90000004E-02     0.00000000    
   5.99999987E-02     0.00000000    
   6.10000007E-02     0.00000000    
   6.19999990E-02     0.00000000    
   6.30000010E-02     0.00000000    
   6.40000030E-02     0.00000000    
   6.49999976E-02     0.00000000    
   6.59999996E-02     0.00000000    
   6.70000017E-02     0.00000000    
   6.80000037E-02     0.00000000    
   6.89999983E-02     0.00000000    
   7.00000003E-02     0.00000000    
   7.10000023E-02     0.00000000    
   7.19999969E-02     0.00000000    
   7.29999989E-02     0.00000000    
   7.40000010E-02     0.00000000    
   7.50000030E-02     0.00000000    
   7.59999976E-02     0.00000000    
   7.69999996E-02     0.00000000    
   7.80000016E-02     0.00000000    
   7.90000036E-02     0.00000000    
   7.99999982E-02     0.00000000    
   8.10000002E-02     0.00000000    
   8.20000023E-02     0.00000000    
   8.29999968E-02     0.00000000    
   8.39999989E-02     0.00000000    
   8.50000009E-02     0.00000000    
   8.60000029E-02     0.00000000    
   8.69999975E-02     0.00000000    
   8.79999995E-02     0.00000000    
   8.90000015E-02     0.00000000    
   9.00000036E-02     0.00000000    
   9.09999982E-02     0.00000000    
   9.20000002E-02     0.00000000    
   9.30000022E-02     0.00000000    
   9.39999968E-02     0.00000000    
   9.49999988E-02     0.00000000    
   9.60000008E-02     0.00000000    
   9.70000029E-02     0.00000000    
   9.79999974E-02     0.00000000    
   9.89999995E-02     0.00000000    
  0.100000001         0.00000000    
  0.101000004         0.00000000    
  0.101999998         0.00000000    
  0.103000000         0.00000000    
  0.104000002         0.00000000    
  0.104999997         0.00000000    
  0.105999999         0.00000000    
  0.107000001         0.00000000    
  0.108000003         0.00000000    
  0.108999997         0.00000000    
  0.109999999         0.00000000    
  0.111000001        -1.73703907E-38
  0.112000003        -5.25209019E-38
  0.112999998        -8.30721399E-38
  0.114000000        -7.90434965E-38
  0.115000002        -2.53477012E-38
  0.115999997         9.55055193E-38
  0.116999999         2.49663249E-37
  0.118000001         3.55726678E-37
  0.119000003         3.24575454E-37
  0.119999997         8.47309914E-38
  0.120999999        -3.23387848E-37
  0.122000001        -8.03481222E-37
  0.123000003        -1.15708788E-36
  0.123999998        -1.12711005E-36
  0.125000000        -5.19187987E-37
  0.126000002         7.02021608E-37
  0.127000004         2.29438862E-36
  0.128000006         3.70309921E-36
  0.128999993         4.15964180E-36
  0.129999995         2.90293384E-36
  0.130999997        -4.01574249E-37
  0.131999999        -5.30339874E-36
  0.133000001        -1.03500168E-35
  0.134000003        -1.32328622E-35
  0.135000005        -1.14517113E-35
  0.136000007        -3.41327213E-36
  0.136999995         1.03367143E-35
  0.137999997         2.62840020E-35
  0.138999999         3.81174706E-35
  0.140000001         3.83136599E-35
  0.141000003         2.10509701E-35
  0.142000005        -1.42333511E-35
  0.143000007        -6.00566033E-35
  0.143999994        -1.00537300E-34
  0.144999996        -1.14765040E-34
  0.145999998        -8.40926274E-35
  0.147000000        -1.71908946E-36
  0.148000002         1.18811186E-34
  0.149000004         2.40618161E-34
  0.150000006         3.09842701E-34
  0.150999993         2.72563138E-34
  0.151999995         9.91342141E-35
  0.152999997        -1.91974356E-34
  0.153999999        -5.21946951E-34
  0.155000001        -7.61511965E-34
  0.156000003        -7.67764998E-34
  0.157000005        -4.42422416E-34
  0.158000007         2.06070887E-34
  0.158999994         1.02312879E-33
  0.159999996         1.71830550E-33
  0.160999998         1.94053087E-33
  0.162000000         1.41012826E-33
  0.163000003         7.04533171E-35
  0.164000005        -1.80144234E-33
  0.165000007        -3.59064190E-33
  0.165999994        -4.48918978E-33
  0.166999996        -3.78122884E-33
  0.167999998        -1.19311859E-33
  0.169000000         2.82429011E-33
  0.170000002         7.03266973E-33
  0.171000004         9.67069945E-33
  0.172000006         9.04600796E-33
  0.172999993         4.30693600E-33
  0.173999995        -3.88752365E-33
  0.174999997        -1.31356513E-32
  0.175999999        -1.97562588E-32
  0.177000001        -1.99816642E-32
  0.178000003        -1.15977704E-32
  0.179000005         4.55093152E-33
  0.180000007         2.39129655E-32
  0.180999994         3.90197974E-32
  0.181999996         4.18441723E-32
  0.182999998         2.71922935E-32
  0.184000000        -4.05186878E-33
  0.185000002        -4.33405943E-32
  0.186000004        -7.57978329E-32
  0.187000006        -8.48349689E-32
  0.187999994        -5.90376462E-32
  0.188999996         1.04764116E-33
  0.189999998         7.93306402E-32
  0.191000000         1.46460096E-31
  0.192000002         1.68835184E-31
  0.193000004         1.22427807E-31
  0.194000006         6.68630517E-33
  0.194999993        -1.47774851E-31
  0.195999995        -2.83193281E-31
  0.196999997        -3.32306305E-31
  0.197999999        -2.45944263E-31
  0.199000001        -2.11587337E-32
  0.200000003         2.82793613E-31
  0.201000005         5.51803473E-31
  0.202000007         6.51702532E-31
  0.202999994         4.83355848E-31
  0.203999996         3.93237714E-32
  0.204999998        -5.63370667E-31
  0.206000000        -1.09706612E-30
  0.207000002        -1.29253588E-30
  0.208000004        -9.49454404E-31
  0.209000006        -5.10003329E-32
  0.209999993         1.16855743E-30
  0.210999995         2.24944442E-30
  0.211999997         2.64365068E-30
  0.213000000         1.93746352E-30
  0.214000002         8.55098143E-32
  0.215000004        -2.44645389E-30
  0.216000006        -4.72449687E-30
  0.216999993        -5.61609485E-30
  0.217999995        -4.23804646E-30
  0.218999997        -4.38658522E-31
  0.219999999         4.89137456E-30
  0.221000001         9.87390654E-30
  0.222000003         1.21571883E-29
  0.223000005         9.80701959E-30
  0.224000007         2.30044451E-30
  0.224999994        -8.78448546E-30
  0.225999996        -1.97825656E-29
  0.226999998        -2.58738878E-29
  0.228000000        -2.28142065E-29
  0.229000002        -8.95721730E-30
  0.230000004         1.32189015E-29
  0.231000006         3.68926777E-29
  0.231999993         5.24800984E-29
  0.232999995         5.08789404E-29
  0.233999997         2.74855541E-29
  0.234999999        -1.45010337E-29
  0.236000001        -6.31045391E-29
  0.237000003        -1.00022293E-28
  0.238000005        -1.06459991E-28
  0.238999993        -7.08637196E-29
  0.239999995         4.16300440E-30
  0.240999997         9.88947151E-29
  0.241999999         1.79830531E-28
  0.243000001         2.09723347E-28
  0.244000003         1.61970287E-28
  0.245000005         3.45825428E-29
  0.246000007        -1.42182849E-28
  0.246999994        -3.09424455E-28
  0.247999996        -3.95994139E-28
  0.248999998        -3.44381865E-28
  0.250000000        -1.37978737E-28
  0.250999987         1.81109938E-28
  0.252000004         5.13507186E-28
  0.252999991         7.27748067E-28
  0.254000008         7.05155512E-28
  0.254999995         3.91282496E-28
  0.256000012        -1.65249086E-28
  0.256999999        -8.05464251E-28
  0.257999986        -1.29529208E-27
  0.259000003        -1.39994769E-27
  0.259999990        -9.77421580E-28
  0.261000007        -5.84295969E-29
  0.261999995         1.12243188E-27
  0.263000011         2.16868455E-27
  0.263999999         2.63823302E-27
  0.264999986         2.20576352E-27
  0.266000003         8.18169033E-28
  0.266999990        -1.21985340E-27
  0.268000007        -3.28001739E-27
  0.268999994        -4.57884182E-27
  0.270000011        -4.44517650E-27
  0.270999998        -2.60496566E-27
  0.272000015         6.23835576E-28
  0.273000002         4.32207723E-27
  0.273999989         7.19060890E-27
  0.275000006         7.96654836E-27
  0.275999993         5.91571222E-27
  0.277000010         1.22700958E-27
  0.277999997        -4.86474843E-27
  0.279000014        -1.03328368E-26
  0.280000001        -1.29709101E-26
  0.280999988        -1.12025428E-26
  0.282000005        -4.81691604E-27
  0.282999992         4.66835211E-27
  0.284000009         1.42343464E-26
  0.284999996         2.02123436E-26
  0.286000013         1.95606150E-26
  0.287000000         1.11631029E-26
  0.287999988        -3.34412621E-27
  0.289000005        -1.96319053E-26
  0.289999992        -3.17800535E-26
  0.291000009        -3.42129714E-26
  0.291999996        -2.38990819E-26
  0.293000013        -2.03037043E-27
  0.294000000         2.55593660E-26
  0.294999987         4.96467793E-26
  0.296000004         6.03990366E-26
  0.296999991         5.09348813E-26
  0.298000008         2.04822942E-26
  0.298999995        -2.41260104E-26
  0.300000012        -6.94930251E-26
  0.300999999        -9.93235229E-26
  0.301999986        -9.98432528E-26
  0.303000003        -6.52875337E-26
  0.303999990        -1.44620891E-27
  0.305000007         7.43861937E-26
  0.305999994         1.37666039E-25
  0.307000011         1.64223646E-25
  0.307999998         1.39027687E-25
  0.308999985         6.30650660E-26
  0.310000002        -4.45012707E-26
  0.310999990        -1.50460513E-25
  0.312000006        -2.17465631E-25
  0.312999994        -2.17001362E-25
  0.314000010        -1.41103797E-25
  0.314999998        -8.28981493E-27
  0.316000015         1.39429033E-25
  0.317000002         2.48760680E-25
  0.317999989         2.73492135E-25
  0.319000006         1.93109526E-25
  0.319999993         2.47214001E-26
  0.321000010        -1.77319550E-25
  0.321999997        -3.36035640E-25
  0.323000014        -3.77615710E-25
  0.324000001        -2.60606979E-25
  0.324999988         1.87124913E-27
  0.326000005         3.36463597E-25
  0.326999992         6.25549688E-25
  0.328000009         7.42814503E-25
  0.328999996         5.98814847E-25
  0.330000013         1.81621369E-25
  0.331000000        -4.23138235E-25
  0.331999987        -1.04369384E-24
  0.333000004        -1.46634619E-24
  0.333999991        -1.50229537E-24
  0.335000008        -1.05723109E-24
  0.335999995        -1.79756403E-25
  0.337000012         9.31446824E-25
  0.338000000         1.97028680E-24
  0.338999987         2.60814159E-24
  0.340000004         2.59757105E-24
  0.340999991         1.86185117E-24
  0.342000008         5.38068021E-25
  0.342999995        -1.04623910E-24
  0.344000012        -2.46203350E-24
  0.344999999        -3.30935669E-24
  0.345999986        -3.34820099E-24
  0.347000003        -2.58376815E-24
  0.347999990        -1.27167169E-24
  0.349000007         1.65976088E-25
  0.349999994         1.29084317E-24
  0.351000011         1.81488929E-24
  0.351999998         1.72074683E-24
  0.352999985         1.28313926E-24
  0.354000002         9.69334630E-25
  0.354999989         1.24037984E-24
  0.356000006         2.31715151E-24
  0.356999993         4.00011880E-24
  0.358000010         5.62717558E-24
  0.358999997         6.21691300E-24
  0.360000014         4.78354801E-24
  0.361000001         7.42728073E-25
  0.361999989        -5.72224278E-24
  0.363000005        -1.34759972E-23
  0.363999993        -2.05344533E-23
  0.365000010        -2.44826122E-23
  0.365999997        -2.31321454E-23
  0.367000014        -1.52518573E-23
  0.368000001        -1.15342824E-24
  0.368999988         1.70720954E-23
  0.370000005         3.57912472E-23
  0.370999992         5.05335776E-23
  0.372000009         5.70197182E-23
  0.372999996         5.22577877E-23
  0.374000013         3.54148848E-23
  0.375000000         8.21896822E-24
  0.375999987        -2.52294441E-23
  0.377000004        -5.91924241E-23
  0.377999991        -8.73828735E-23
  0.379000008        -1.04124919E-22
  0.379999995        -1.05311719E-22
  0.381000012        -8.89826771E-23
  0.381999999        -5.54923762E-23
  0.382999986        -7.38732739E-24
  0.384000003         5.08171132E-23
  0.384999990         1.12797971E-22
  0.386000007         1.70495738E-22
  0.386999995         2.14253764E-22
  0.388000011         2.33339275E-22
  0.388999999         2.17192037E-22
  0.389999986         1.57596928E-22
  0.391000003         5.16442338E-23
  0.391999990        -9.50958884E-23
  0.393000007        -2.66158691E-22
  0.393999994        -4.33699014E-22
  0.395000011        -5.60950129E-22
  0.395999998        -6.08083925E-22
  0.397000015        -5.41029536E-22
  0.398000002        -3.41764836E-22
  0.398999989        -1.76949453E-23
  0.400000006         3.92707252E-22
  0.400999993         8.20566500E-22
  0.402000010         1.17509791E-21
  0.402999997         1.35973973E-21
  0.404000014         1.29369473E-21
  0.405000001         9.34756400E-22
  0.405999988         2.98072974E-22
  0.407000005        -5.34609900E-22
  0.407999992        -1.41947323E-21
  0.409000009        -2.17069338E-21
  0.409999996        -2.59449420E-21
  0.411000013        -2.53205701E-21
  0.412000000        -1.90313438E-21
  0.412999988        -7.40498961E-22
  0.414000005         7.94477140E-22
  0.414999992         2.42250142E-21
  0.416000009         3.78632595E-21
  0.416999996         4.51716991E-21
  0.418000013         4.31832749E-21
  0.419000000         3.05084304E-21
  0.419999987         8.02205756E-22
  0.421000004        -2.08173229E-21
  0.421999991        -5.01806897E-21
  0.423000008        -7.27002174E-21
  0.423999995        -8.08871810E-21
  0.425000012        -6.89593496E-21
  0.425999999        -3.47556373E-21
  0.426999986         1.86984379E-21
  0.428000003         8.24562796E-21
  0.428999990         1.42174237E-20
  0.430000007         1.80146835E-20
  0.430999994         1.78815914E-20
  0.432000011         1.25342864E-20
  0.432999998         1.64425149E-21
  0.433999985        -1.37641755E-20
  0.435000002        -3.11286159E-20
  0.435999990        -4.64902388E-20
  0.437000006        -5.50324748E-20
  0.437999994        -5.20121799E-20
  0.439000010        -3.39806571E-20
  0.439999998        -8.87946379E-23
  0.441000015         4.68154468E-20
  0.442000002         9.96311066E-20
  0.442999989         1.47299037E-19
  0.444000006         1.76150761E-19
  0.444999993         1.72327907E-19
  0.446000010         1.25041804E-19
  0.446999997         3.01735002E-20
  0.448000014        -1.06519007E-19
  0.449000001        -2.67456159E-19
  0.449999988        -4.23401987E-19
  0.451000005        -5.36365416E-19
  0.451999992        -5.65435231E-19
  0.453000009        -4.75145572E-19
  0.453999996        -2.45281024E-19
  0.455000013         1.19622595E-19
  0.456000000         5.83284703E-19
  0.456999987         1.07551068E-18
  0.458000004         1.49680689E-18
  0.458999991         1.73085496E-18
  0.460000008         1.66454237E-18
  0.460999995         1.21352845E-18
  0.462000012         3.49543314E-19
  0.463000000        -8.75890384E-19
  0.463999987        -2.31743603E-18
  0.465000004        -3.73751592E-18
  0.465999991        -4.82783799E-18
  0.467000008        -5.25235577E-18
  0.467999995        -4.70910449E-18
  0.469000012        -3.00371738E-18
  0.469999999        -1.22887374E-19
  0.470999986         3.70735361E-18
  0.472000003         7.99498021E-18
  0.472999990         1.20017141E-17
  0.474000007         1.48188166E-17
  0.474999994         1.55000627E-17
  0.476000011         1.32418580E-17
  0.476999998         7.58816286E-18
  0.477999985        -1.37347354E-18
  0.479000002        -1.28663254E-17
  0.479999989        -2.53728058E-17
  0.481000006        -3.67140310E-17
  0.481999993        -4.42829023E-17
  0.483000010        -4.54293250E-17
  0.483999997        -3.79662964E-17
  0.485000014        -2.07333730E-17
  0.486000001         5.87480463E-18
  0.486999989         3.95266304E-17
  0.488000005         7.58330995E-17
  0.488999993         1.08586256E-16
  0.490000010         1.30413031E-16
  0.490999997         1.33838551E-16
  0.492000014         1.12674348E-16
  0.493000001         6.35628479E-17
  0.493999988        -1.25669373E-17
  0.495000005        -1.09428114E-16
  0.495999992        -2.14996219E-16
  0.497000009        -3.12085187E-16
  0.497999996        -3.80040972E-16
  0.499000013        -3.97555178E-16
  0.500000000        -3.46397353E-16
  0.500999987        -2.15643445E-16
  0.501999974        -5.77210891E-18
  0.503000021         2.68148449E-16
  0.504000008         5.75008687E-16
  0.504999995         8.68683851E-16
  0.505999982         1.09204104E-15
  0.507000029         1.18403993E-15
  0.508000016         1.08952313E-15
  0.509000003         7.70708873E-16
  0.509999990         2.18833529E-16
  0.510999978        -5.36058247E-16
  0.512000024        -1.41939513E-15
  0.513000011        -2.31254669E-15
  0.513999999        -3.06109194E-15
  0.514999986        -3.49159771E-15
  0.515999973        -3.43634258E-15
  0.517000020        -2.76391488E-15
  0.518000007        -1.41205527E-15
  0.518999994         5.82238748E-16
  0.519999981         3.06120079E-15
  0.521000028         5.73934490E-15
  0.522000015         8.21619587E-15
  0.523000002         1.00118803E-14
  0.523999989         1.06258174E-14
  0.524999976         9.61493695E-15
  0.526000023         6.68372692E-15
  0.527000010         1.77436684E-15
  0.527999997        -4.85784364E-15
  0.528999984        -1.26001098E-14
  0.529999971        -2.04843466E-14
  0.531000018        -2.72480453E-14
  0.532000005        -3.14595355E-14
  0.532999992        -3.17045042E-14
  0.533999979        -2.68199989E-14
  0.535000026        -1.61509329E-14
  0.536000013         2.05909845E-16
  0.537000000         2.12124900E-14
  0.537999988         4.47991220E-14
  0.538999975         6.79132992E-14
  0.540000021         8.67364787E-14
  0.541000009         9.70787917E-14
  0.541999996         9.49364150E-14
  0.542999983         7.71674120E-14
  0.544000030         4.22122596E-14
  0.545000017        -9.24029004E-15
  0.546000004        -7.37581993E-14
  0.546999991        -1.44961395E-13
  0.547999978        -2.13712999E-13
  0.549000025        -2.68778814E-13
  0.550000012        -2.97975349E-13
  0.550999999        -2.89758506E-13
  0.551999986        -2.35127564E-13
  0.552999973        -1.29641442E-13
  0.554000020         2.47225895E-14
  0.555000007         2.18181457E-13
  0.555999994         4.32551293E-13
  0.556999981         6.41730375E-13
  0.558000028         8.13458188E-13
  0.559000015         9.12414892E-13
  0.560000002         9.04545807E-13
  0.560999990         7.62297506E-13
  0.561999977         4.70241901E-13
  0.563000023         3.03882828E-14
  0.564000010        -5.33642412E-13
  0.564999998        -1.17444498E-12
  0.565999985        -1.82144686E-12
  0.566999972        -2.38490781E-12
  0.568000019        -2.76356282E-12
  0.569000006        -2.85573973E-12
  0.569999993        -2.57325931E-12
  0.570999980        -1.85689810E-12
  0.572000027        -6.91692363E-13
  0.573000014         8.80009715E-13
  0.574000001         2.75002872E-12
  0.574999988         4.74256225E-12
  0.575999975         6.62093557E-12
  0.577000022         8.10400618E-12
  0.578000009         8.89231137E-12
  0.578999996         8.70282926E-12
  0.579999983         7.30984023E-12
  0.580999970         4.58804652E-12
  0.582000017         5.52971351E-13
  0.583000004        -4.60711981E-12
  0.583999991        -1.05137002E-11
  0.584999979        -1.66003079E-11
  0.586000025        -2.21389018E-11
  0.587000012        -2.62922965E-11
  0.588000000        -2.81921153E-11
  0.588999987        -2.70383074E-11
  0.589999974        -2.22129763E-11
  0.591000021        -1.33979433E-11
  0.592000008        -6.82817193E-13
  0.592999995         1.53513036E-11
  0.593999982         3.35875668E-11
  0.595000029         5.23821542E-11
  0.596000016         6.96363661E-11
  0.597000003         8.29370878E-11
  0.597999990         8.97638908E-11
  0.598999977         8.77533116E-11
  0.600000024         7.50023724E-11
  0.601000011         5.03856089E-11
  0.601999998         1.38534288E-11
  0.602999985        -3.33247527E-11
  0.603999972        -8.84100224E-11
  0.605000019        -1.47170803E-10
  0.606000006        -2.04014722E-10
  0.606999993        -2.52292021E-10
  0.607999980        -2.84772150E-10
  0.609000027        -2.94277352E-10
  0.610000014        -2.74439027E-10
  0.611000001        -2.20522281E-10
  0.611999989        -1.30249353E-10
  0.612999976        -4.53940748E-12
  0.614000022         1.51923391E-10
  0.615000010         3.30380223E-10
  0.615999997         5.18022958E-10
  0.616999984         6.98412272E-10
  0.617999971         8.52318660E-10
  0.619000018         9.58983226E-10
  0.620000005         9.97756211E-10
  0.620999992         9.50030166E-10
  0.621999979         8.01348543E-10
  0.623000026         5.43534329E-10
  0.624000013         1.76662990E-10
  0.625000000        -2.89311242E-10
  0.625999987        -8.33461411E-10
  0.626999974        -1.42349443E-09
  0.628000021        -2.01619321E-09
  0.629000008        -2.55877941E-09
  0.629999995        -2.99122416E-09
  0.630999982        -3.24946736E-09
  0.632000029        -3.26943850E-09
  0.633000016        -2.99170466E-09
  0.634000003        -2.36652542E-09
  0.634999990        -1.35904543E-09
  0.635999978         4.56557431E-11
  0.637000024         1.83793203E-09
  0.638000011         3.97960376E-09
  0.638999999         6.40083897E-09
  0.639999986         8.99799701E-09
  0.640999973         1.16324257E-08
  0.642000020         1.41301149E-08
  0.643000007         1.62819607E-08
  0.643999994         1.78443038E-08
  0.644999981         1.85392448E-08
  0.646000028         1.80541857E-08
  0.647000015         1.60399409E-08
  0.648000002         1.21066801E-08
  0.648999989         5.81698290E-09
  0.649999976        -3.32479000E-09
  0.651000023        -1.58875597E-08
  0.652000010        -3.25337552E-08
  0.652999997        -5.40454863E-08
  0.653999984        -8.13572214E-08
  0.654999971        -1.15595839E-07
  0.656000018        -1.58128614E-07
  0.657000005        -2.10619959E-07
  0.657999992        -2.75097619E-07
  0.658999979        -3.54029396E-07
  0.660000026        -4.50411221E-07
  0.661000013        -5.67868142E-07
  0.662000000        -7.10769314E-07
  0.662999988        -8.84358712E-07
  0.663999975        -1.09490418E-06
  0.665000021        -1.34986578E-06
  0.666000009        -1.65808649E-06
  0.666999996        -2.03000877E-06
  0.667999983        -2.47791718E-06
  0.669000030        -3.01621390E-06
  0.670000017        -3.66172662E-06
  0.671000004        -4.43405224E-06
  0.671999991        -5.35594154E-06
  0.672999978        -6.45372529E-06
  0.674000025        -7.75778426E-06
  0.675000012        -9.30306760E-06
  0.675999999        -1.11296540E-05
  0.676999986        -1.32833666E-05
  0.677999973        -1.58164330E-05
  0.679000020        -1.87881906E-05
  0.680000007        -2.22658437E-05
  0.680999994        -2.63252459E-05
  0.681999981        -3.10517316E-05
  0.683000028        -3.65409687E-05
  0.684000015        -4.28998319E-05
  0.685000002        -5.02472722E-05
  0.685999990        -5.87152063E-05
  0.686999977        -6.84493716E-05
  0.688000023        -7.96101231E-05
  0.689000010        -9.23731786E-05