 -0.12000000000000000          0.0000000000000000     
 -0.11889999999999999          0.0000000000000000     
 -0.11780000000000000          0.0000000000000000     
 -0.11670000000000000          0.0000000000000000     
 -0.11559999999999999          0.0000000000000000     
 -0.11449999999999999          0.0000000000000000     
 -0.11340000000000000          0.0000000000000000     
 -0.11230000000000000          0.0000000000000000     
 -0.11119999999999999          0.0000000000000000     
 -0.11009999999999999          0.0000000000000000     
 -0.10900000000000000          0.0000000000000000     
 -0.10790000000000000          0.0000000000000000     
 -0.10679999999999999          0.0000000000000000     
 -0.10569999999999999          0.0000000000000000     
 -0.10460000000000000          0.0000000000000000     
 -0.10349999999999999          0.0000000000000000     
 -0.10239999999999999          1.3992409377896489E-038
 -0.10130000000000000         -1.5999035147646484E-038
 -0.10020000000000000         -5.5453326289808550E-037
  -9.9099999999999994E-002    -6.3233568539804398E-037
  -9.7999999999999990E-002     1.0107543850814985E-035
  -9.6899999999999986E-002     5.7356105933369336E-035
  -9.5799999999999996E-002     1.1874435264048845E-034
  -9.4699999999999993E-002    -1.2334537987462593E-034
  -9.3599999999999989E-002    -1.4966074487142735E-033
  -9.2499999999999999E-002    -4.0781759794283636E-033
  -9.1399999999999995E-002    -1.9123963309894250E-033
  -9.0299999999999991E-002     2.4205222781683842E-032
  -8.9200000000000002E-002     9.5052389263282008E-032
  -8.8099999999999984E-002     1.5727630110329668E-031
  -8.6999999999999994E-002    -6.8561560245114265E-032
  -8.5899999999999990E-002    -1.1228862766455869E-030
  -8.4799999999999986E-002    -3.1520403296395465E-030
  -8.3699999999999997E-002    -3.9320116763818999E-030
  -8.2599999999999993E-002     3.5789981215305261E-030
  -8.1499999999999989E-002     2.9301498406223974E-029
  -8.0399999999999999E-002     7.0623501985877519E-029
  -7.9299999999999995E-002     7.9217049545981975E-029
  -7.8199999999999992E-002    -6.6599590349227428E-029
  -7.7100000000000002E-002    -5.0952845572595921E-028
  -7.5999999999999984E-002    -1.1773534269234802E-027
  -7.4899999999999994E-002    -1.3617452338800196E-027
  -7.3799999999999991E-002     5.4609165794116756E-028
  -7.2699999999999987E-002     6.3198066085265406E-027
  -7.1599999999999997E-002     1.5195789098673463E-026
  -7.0499999999999993E-002     1.9476470385889374E-026
  -6.9399999999999989E-002     2.0123194579726697E-027
  -6.8300000000000000E-002    -5.6711734329283412E-026
  -6.7199999999999996E-002    -1.5388361447143182E-025
  -6.6099999999999992E-002    -2.2505900872735351E-025
  -6.5000000000000002E-002    -1.1946270425205108E-025
  -6.3899999999999985E-002     3.5010603467556084E-025
  -6.2799999999999995E-002     1.2216186579497463E-024
  -6.1699999999999991E-002     2.0786618958927549E-024
  -6.0599999999999994E-002     1.8206318046822037E-024
  -5.9499999999999990E-002    -1.0879099885660189E-024
  -5.8399999999999994E-002    -7.4566587972254904E-024
  -5.7299999999999990E-002    -1.5311119638570401E-023
  -5.6199999999999986E-002    -1.8009902725474678E-023
  -5.5099999999999996E-002    -4.9114416850187777E-024
  -5.3999999999999992E-002     3.2632802755390354E-023
  -5.2899999999999989E-002     8.9279654803637341E-023
  -5.1799999999999985E-002     1.3252165223584059E-022
  -5.0699999999999995E-002     1.0050724069949661E-022
  -4.9599999999999991E-002    -7.3196686834127925E-023
  -4.8499999999999988E-002    -3.9974530514068022E-022
  -4.7399999999999998E-002    -7.5686475739234550E-022
  -4.6299999999999994E-002    -8.4627806416598901E-022
  -4.5199999999999990E-002    -2.6746787161932158E-022
  -4.4099999999999986E-002     1.2311315181951711E-021
  -4.2999999999999997E-002     3.3595142882693860E-021
  -4.1899999999999993E-002     4.9538372662541150E-021
  -4.0799999999999989E-002     4.0610840109042202E-021
  -3.9699999999999985E-002    -1.2069463807491902E-021
  -3.8599999999999995E-002    -1.1011750623939116E-020
  -3.7499999999999992E-002    -2.1927906957165805E-020
  -3.6399999999999988E-002    -2.6239366180248252E-020
  -3.5299999999999984E-002    -1.4056028117520712E-020
  -3.4199999999999994E-002     2.0857502932779509E-020
  -3.3099999999999991E-002     7.2823998852191150E-020
  -3.1999999999999987E-002     1.1789320594578136E-019
  -3.0899999999999997E-002     1.1594802611187756E-019
  -2.9799999999999993E-002     2.6876752463072975E-020
  -2.8699999999999989E-002    -1.5962972820078956E-019
  -2.7599999999999986E-002    -3.9165828441891801E-019
  -2.6499999999999996E-002    -5.4172451226888745E-019
  -2.5399999999999992E-002    -4.3719245748964251E-019
  -2.4299999999999988E-002     5.3490978479236933E-020
  -2.3199999999999985E-002     8.9740793636605002E-019
  -2.2099999999999995E-002     1.7951845884901455E-018
  -2.0999999999999991E-002     2.1864126872917477E-018
  -1.9899999999999987E-002     1.4356931350455185E-018
  -1.8799999999999983E-002    -7.9920096983948009E-019
  -1.7699999999999994E-002    -4.1367807013950571E-018
  -1.6599999999999990E-002    -7.2203073657426688E-018
  -1.5499999999999986E-002    -7.9279124033062559E-018
  -1.4399999999999996E-002    -4.2098025515100133E-018
  -1.3299999999999992E-002     4.5797541173906796E-018
  -1.2199999999999989E-002     1.6384204620854234E-017
  -1.1099999999999985E-002     2.6009746412747969E-017
  -9.9999999999999950E-003     2.6342901676259827E-017
  -8.8999999999999913E-003     1.1457458989845523E-017
  -7.7999999999999875E-003    -1.9164868202902293E-017
  -6.6999999999999837E-003    -5.7183366322705227E-017
  -5.5999999999999939E-003    -8.5184846190833904E-017
  -4.4999999999999901E-003    -8.1608381919950630E-017
  -3.3999999999999864E-003    -3.0725716497510819E-017
  -2.2999999999999826E-003     6.5365459747720452E-017
  -1.1999999999999927E-003     1.7848417537213540E-016
  -9.9999999999988987E-005     2.5636680346424918E-016
   1.0000000000000148E-003     2.3891575422888326E-016
   2.1000000000000185E-003     8.6720318400858938E-017
   3.2000000000000084E-003    -1.8778450448875901E-016
   4.3000000000000121E-003    -5.0204098063971530E-016
   5.4000000000000159E-003    -7.1360477045233632E-016
   6.5000000000000058E-003    -6.6630216257336072E-016
   7.6000000000000234E-003    -2.6403483391706476E-016
   8.7000000000000133E-003     4.5395306733951655E-016
   9.8000000000000032E-003     1.2741678397530025E-015
   1.0900000000000021E-002     1.8409729595397816E-015
   1.2000000000000011E-002     1.7722868460886936E-015
   1.3100000000000001E-002     8.3456832803986128E-016
   1.4200000000000018E-002    -8.8576416404221366E-016
   1.5300000000000008E-002    -2.8989088520891670E-015
   1.6400000000000026E-002    -4.3886708232365040E-015
   1.7500000000000016E-002    -4.4710452008734584E-015
   1.8600000000000005E-002    -2.5768105978520896E-015
   1.9700000000000023E-002     1.1769894437804111E-015
   2.0800000000000013E-002     5.8009817957528024E-015
   2.1900000000000003E-002     9.5778004871225307E-015
   2.3000000000000020E-002     1.0577101159172948E-014
   2.4100000000000010E-002     7.4274498023893000E-015
   2.5200000000000000E-002     8.3887390238987329E-017
   2.6300000000000018E-002    -9.7430091812867985E-015
   2.7400000000000008E-002    -1.8777170370334363E-014
   2.8500000000000025E-002    -2.3077720967936213E-014
   2.9600000000000015E-002    -1.9465581151622245E-014
   3.0700000000000005E-002    -7.0249185700303751E-015
   3.1800000000000023E-002     1.1913348149509336E-014
   3.2900000000000013E-002     3.1829241662045121E-014
   3.4000000000000002E-002     4.5338756485052353E-014
   3.5100000000000020E-002     4.5561678616110740E-014
   3.6200000000000010E-002     2.8853594589550030E-014
   3.7300000000000028E-002    -3.0560635334744672E-015
   3.8400000000000017E-002    -4.2443594483205366E-014
   3.9500000000000007E-002    -7.7024161788258327E-014
   4.0600000000000025E-002    -9.3323034033605118E-014
   4.1700000000000015E-002    -8.1154477398186903E-014
   4.2800000000000005E-002    -3.7849240343452994E-014
   4.3900000000000022E-002     2.9260820925535586E-014
   4.5000000000000012E-002     1.0323464766414173E-013
   4.6100000000000002E-002     1.6114429127016272E-013
   4.7200000000000020E-002     1.8029256202128224E-013
   4.8300000000000010E-002     1.4548914373593846E-013
   4.9400000000000027E-002     5.5317428019957190E-014
   5.0500000000000017E-002    -7.4652022302550136E-014
   5.1600000000000007E-002    -2.1313839907409482E-013
   5.2700000000000025E-002    -3.1929133273954358E-013
   5.3800000000000014E-002    -3.5279439959678971E-013
   5.4900000000000004E-002    -2.8583689234973342E-013
   5.6000000000000022E-002    -1.1402589484600656E-013
   5.7100000000000012E-002     1.3694491233281342E-013
   5.8200000000000002E-002     4.1159759519952821E-013
   5.9300000000000019E-002     6.3346745383940917E-013
   6.0400000000000009E-002     7.2205880597558947E-013
   6.1500000000000027E-002     6.1534653240935544E-013
   6.2600000000000017E-002     2.9295614328503361E-013
   6.3700000000000007E-002    -2.0646223446163514E-013
   6.4800000000000024E-002    -7.8044119561013203E-013
   6.5900000000000014E-002    -1.2756298838415003E-012
   6.7000000000000004E-002    -1.5198408937627805E-012
   6.8100000000000022E-002    -1.3691347318031677E-012
   6.9200000000000012E-002    -7.5987837983709783E-013
   7.0300000000000029E-002     2.4898556523836324E-013
   7.1400000000000019E-002     1.4596290755924946E-012
   7.2500000000000009E-002     2.5576910381297502E-012
   7.3600000000000027E-002     3.1773054239708776E-012
   7.4700000000000016E-002     3.0002322241179380E-012
   7.5800000000000006E-002     1.8671188727059640E-012
   7.6900000000000024E-002    -1.3101040976896960E-013
   7.8000000000000014E-002    -2.6151498501436610E-012
   7.9100000000000004E-002    -4.9604083861287673E-012
   8.0200000000000021E-002    -6.4248567403779600E-012
   8.1300000000000011E-002    -6.3465044851385155E-012
   8.2400000000000029E-002    -4.3638716772098629E-012
   8.3500000000000019E-002    -5.9776554366119949E-013
   8.4600000000000009E-002     4.2704485780920010E-012
   8.5700000000000026E-002     9.0714406472680587E-012
   8.6800000000000016E-002     1.2383026028184307E-011
   8.7900000000000006E-002     1.2892700795852363E-011
   8.9000000000000024E-002     9.8068627871206182E-012
   9.0100000000000013E-002     3.1955785673859483E-012
   9.1200000000000003E-002    -5.8414622965130558E-012
   9.2300000000000021E-002    -1.5272198436444562E-011
   9.3400000000000011E-002    -2.2516825209928371E-011
   9.4500000000000028E-002    -2.5065784517441791E-011
   9.5600000000000018E-002    -2.1200437239077274E-011
   9.6700000000000008E-002    -1.0632774175012294E-011
   9.7800000000000026E-002     5.1298791603482385E-012
   9.8900000000000016E-002     2.2847125233371735E-011
  0.10000000000000001          3.8095540610960654E-011
  0.10110000000000002          4.6244268830930579E-011
  0.10220000000000001          4.3667427312987783E-011
  0.10330000000000003          2.8908580390618610E-011
  0.10440000000000002          3.4768156235986947E-012
  0.10550000000000001         -2.8001809204702965E-011
  0.10660000000000003         -5.8429622251665592E-011
  0.10770000000000002         -7.9647399786608730E-011
  0.10880000000000001         -8.4371620800993696E-011
  0.10990000000000003         -6.8244646045378943E-011
  0.11100000000000002         -3.1485515583629109E-011
  0.11210000000000001          2.0351985721700494E-011
  0.11320000000000002          7.6859352216018806E-011
  0.11430000000000001          1.2457572473589806E-010
  0.11540000000000003          1.4987286411916045E-010
  0.11650000000000002          1.4236851975102383E-010
  0.11760000000000001          9.8090105482562251E-011
  0.11870000000000003          2.1550155757110723E-011
  0.11980000000000002         -7.3963599134252433E-011
  0.12090000000000001         -1.6823964443801742E-010
  0.12200000000000003         -2.3800930670780929E-010
  0.12310000000000001         -2.6217822357565979E-010
  0.12420000000000003         -2.2733397109231390E-010
  0.12530000000000002         -1.3221146399899908E-010
  0.12640000000000001          1.0135873043659593E-011
  0.12750000000000003          1.7332267565617343E-010
  0.12860000000000002          3.2198388399962141E-010
  0.12970000000000001          4.1890482749273872E-010
  0.13080000000000003          4.3358652779268425E-010
  0.13190000000000002          3.5038086321215189E-010
  0.13300000000000001          1.7419822528896844E-010
  0.13410000000000000         -6.7874289522151798E-011
  0.13520000000000004         -3.2992880649729273E-010
  0.13630000000000003         -5.5537724419352230E-010
  0.13740000000000002         -6.8853833745663451E-010
  0.13850000000000001         -6.8738315039951203E-010
  0.13960000000000000         -5.3463855564928053E-010
  0.14070000000000005         -2.4454469005341650E-010
  0.14180000000000004          1.3671194731834646E-010
  0.14290000000000003          5.3761972651500400E-010
  0.14400000000000002          8.7422591388275350E-010
  0.14510000000000001          1.0670258010492262E-009
  0.14620000000000000          1.0585214926805975E-009
  0.14730000000000004          8.2769480158617625E-010
  0.14840000000000003          3.9802114382148090E-010
  0.14950000000000002         -1.6321481666192739E-010
  0.15060000000000001         -7.5484130057645871E-010
  0.15170000000000000         -1.2595844367524478E-009
  0.15280000000000005         -1.5666034025585418E-009
  0.15390000000000004         -1.5944812137291819E-009
  0.15500000000000003         -1.3100234230734031E-009
  0.15610000000000002         -7.3880407347459709E-010
  0.15720000000000001          3.5164440803647778E-011
  0.15830000000000000          8.8123580654908551E-010
  0.15940000000000004          1.6437770034016808E-009
  0.16050000000000003          2.1700401475754916E-009
  0.16160000000000002          2.3392827674939554E-009
  0.16270000000000001          2.0877148898534870E-009
  0.16380000000000000          1.4244166957055882E-009
  0.16490000000000005          4.3485576251001135E-010
  0.16600000000000004         -7.2924272176422278E-010
  0.16710000000000003         -1.8725123673846156E-009
  0.16820000000000002         -2.7876605468435400E-009
  0.16930000000000001         -3.2911988689932059E-009
  0.17040000000000000         -3.2572557984167361E-009
  0.17150000000000004         -2.6436477451596829E-009
  0.17260000000000003         -1.5054348878607016E-009
  0.17370000000000002          6.9908800970353013E-012
  0.17480000000000001          1.6659063017954168E-009
  0.17590000000000000          3.1984721537980931E-009
  0.17700000000000005          4.3289576368010785E-009
  0.17810000000000004          4.8249253481458254E-009
  0.17920000000000003          4.5402401838146034E-009
  0.18030000000000002          3.4476499433111485E-009
  0.18140000000000001          1.6546219949731267E-009
  0.18250000000000000         -6.0183247274636642E-010
  0.18360000000000004         -2.9826889846873428E-009
  0.18470000000000003         -5.0945598850660190E-009
  0.18580000000000002         -6.5515513014702265E-009
  0.18690000000000001         -7.0422143672033144E-009
  0.18800000000000000         -6.3904534997050177E-009
  0.18910000000000005         -4.5989509978028309E-009
  0.19020000000000004         -1.8654739974977019E-009
  0.19130000000000003          1.4336891673849550E-009
  0.19240000000000002          4.7934323177400984E-009
  0.19350000000000001          7.6567276963146469E-009
  0.19460000000000005          9.5070351591175495E-009
  0.19570000000000004          9.9605408365732728E-009
  0.19680000000000003          8.8412743792787296E-009
  0.19790000000000002          6.2241847231803149E-009
  0.19900000000000001          2.4364088524464478E-009
  0.20010000000000000         -1.9856429833708944E-009
  0.20120000000000005         -6.3774820979745073E-009
  0.20230000000000004         -1.0052706223007135E-008
  0.20340000000000003         -1.2415831029954916E-008
  0.20450000000000002         -1.3061920434154217E-008
  0.20560000000000000         -1.1845417979827744E-008
  0.20670000000000005         -8.9061895636177724E-009
  0.20780000000000004         -4.6484851523587167E-009
  0.20890000000000003          3.2315405906757633E-010
  0.21000000000000002          5.2997393140685745E-009
  0.21110000000000001          9.5791312659798677E-009
  0.21220000000000000          1.2574487229244369E-008
  0.21330000000000005          1.3902587525649324E-008
  0.21440000000000003          1.3438407719945644E-008
  0.21550000000000002          1.1327765392366018E-008
  0.21660000000000001          7.9562489929685398E-009
  0.21770000000000000          3.8791725387454790E-009
  0.21880000000000005         -2.7681876235696734E-010
  0.21990000000000004         -3.9252099348630054E-009
  0.22100000000000003         -6.6261423015134824E-009
  0.22210000000000002         -8.1697670850644499E-009
  0.22320000000000001         -8.6207885274802720E-009
  0.22430000000000000         -8.3139584106106668E-009
  0.22540000000000004         -7.7979356305490910E-009
  0.22650000000000003         -7.7337167780910931E-009
  0.22760000000000002         -8.7618676758438596E-009
  0.22870000000000001         -1.1358776141889848E-008
  0.22980000000000000         -1.5704147315886985E-008
  0.23090000000000005         -2.1579447562203313E-008
  0.23200000000000004         -2.8310633837236310E-008
  0.23310000000000003         -3.4759228384473317E-008
  0.23420000000000002         -3.9356052639050176E-008
  0.23530000000000001         -4.0163552483818421E-008
  0.23640000000000000         -3.4947806426544048E-008
  0.23750000000000004         -2.1241218561840469E-008
  0.23860000000000003          3.6208578357843635E-009
  0.23970000000000002          4.2500314378912663E-008
  0.24080000000000001          9.8500684941882355E-008
  0.24190000000000000          1.7505939808870608E-007
  0.24300000000000005          2.7609095809566497E-007
  0.24410000000000004          4.0618724028718134E-007
  0.24520000000000003          5.7088345783995464E-007
  0.24630000000000002          7.7700002520941780E-007
  0.24740000000000001          1.0330686563975178E-006
  0.24850000000000005          1.3498456610250287E-006
  0.24960000000000004          1.7409064412277075E-006
  0.25070000000000003          2.2233073195820907E-006
  0.25180000000000002          2.8182964797451859E-006
  0.25290000000000001          3.5520554320100928E-006
  0.25400000000000000          4.4564703784999438E-006
  0.25510000000000005          5.5699474614812061E-006
  0.25620000000000004          6.9383104346343316E-006
  0.25730000000000003          8.6158433987293392E-006
  0.25840000000000002          1.0666538400982972E-005
  0.25950000000000001          1.3165603377274238E-005
  0.26060000000000005          1.6201280232053250E-005
  0.26170000000000004          1.9876977603416890E-005
  0.26280000000000003          2.4313716494361870E-005
  0.26390000000000002          2.9652841476490721E-005
  0.26500000000000001          3.6058980185771361E-005
  0.26610000000000000          4.3723212002078071E-005
  0.26720000000000005          5.2866391342831776E-005
  0.26830000000000004          6.3742641941644251E-005
  0.26940000000000003          7.6643060310743749E-005
  0.27050000000000002          9.1899637482129037E-005
  0.27160000000000001          1.0988944268319756E-004
  0.27270000000000005          1.3103909441269934E-004
  0.27380000000000004          1.5582941705361009E-004
  0.27490000000000003          1.8480024300515652E-004
  0.27600000000000002          2.1855517115909606E-004
  0.27710000000000001          2.5776610709726810E-004
  0.27820000000000000          3.0317745404317975E-004
  0.27930000000000005          3.5560963442549109E-004
  0.28040000000000004          4.1596207302063704E-004
  0.28150000000000003          4.8521530698053539E-004
  0.28260000000000002          5.6443194625899196E-004
  0.28370000000000001          6.5475690644234419E-004
  0.28480000000000005          7.5741636101156473E-004
  0.28590000000000004          8.7371544213965535E-004
  0.28700000000000003          1.0050341952592134E-003
  0.28810000000000002          1.1528213508427143E-003
  0.28920000000000001          1.3185858260840178E-003
  0.29030000000000000          1.5038852579891682E-003
  0.29140000000000005          1.7103120917454362E-003
  0.29250000000000004          1.9394771661609411E-003
  0.29360000000000003          2.1929889917373657E-003
  0.29470000000000002          2.4724295362830162E-003
  0.29580000000000001          2.7793287299573421E-003
  0.29690000000000005          3.1151333823800087E-003
  0.29800000000000004          3.4811759833246469E-003
  0.29910000000000003          3.8786372169852257E-003
  0.30020000000000002          4.3085091747343540E-003
  0.30130000000000001          4.7715562395751476E-003
  0.30240000000000000          5.2682701498270035E-003
  0.30350000000000005          5.7988269254565239E-003
  0.30460000000000004          6.3630407676100731E-003
  0.30570000000000003          6.9603202864527702E-003
  0.30680000000000002          7.5896233320236206E-003
  0.30790000000000001          8.2494132220745087E-003
  0.30900000000000005          8.9376242831349373E-003
  0.31010000000000004          9.6516236662864685E-003
  0.31120000000000003          1.0388178750872612E-002
  0.31230000000000002          1.1143438518047333E-002
  0.31340000000000001          1.1912917718291283E-002
  0.31450000000000006          1.2691484764218330E-002
  0.31560000000000005          1.3473367318511009E-002
  0.31670000000000004          1.4252160675823689E-002
  0.31780000000000003          1.5020856633782387E-002
  0.31890000000000002          1.5771875157952309E-002
  0.32000000000000001          1.6497112810611725E-002
  0.32110000000000005          1.7188012599945068E-002
  0.32220000000000004          1.7835635691881180E-002
  0.32330000000000003          1.8430745229125023E-002
  0.32440000000000002          1.8963908776640892E-002
  0.32550000000000001          1.9425613805651665E-002
  0.32660000000000006          1.9806381314992905E-002
  0.32770000000000005          2.0096911117434502E-002
  0.32880000000000004          2.0288214087486267E-002
  0.32990000000000003          2.0371751859784126E-002
  0.33100000000000002          2.0339589565992355E-002
  0.33210000000000001          2.0184537395834923E-002
  0.33320000000000005          1.9900301471352577E-002
  0.33430000000000004          1.9481623545289040E-002
  0.33540000000000003          1.8924409523606300E-002
  0.33650000000000002          1.8225854262709618E-002
  0.33760000000000001          1.7384551465511322E-002
  0.33870000000000006          1.6400581225752831E-002
  0.33980000000000005          1.5275591984391212E-002
  0.34090000000000004          1.4012847095727921E-002
  0.34200000000000003          1.2617260217666626E-002
  0.34310000000000002          1.1095397174358368E-002
  0.34420000000000001          9.4554573297500610E-003
  0.34530000000000005          7.7072251588106155E-003
  0.34640000000000004          5.8620017953217030E-003
  0.34750000000000003          3.9325025863945484E-003
  0.34860000000000002          1.9327333429828286E-003
  0.34970000000000001         -1.2215647439006716E-004
  0.35080000000000006         -2.2160469088703394E-003
  0.35190000000000005         -4.3320376425981522E-003
  0.35300000000000004         -6.4526535570621490E-003
  0.35410000000000003         -8.5600614547729492E-003
  0.35520000000000002         -1.0636300779879093E-002
  0.35630000000000001         -1.2663515284657478E-002
  0.35740000000000005         -1.4624184928834438E-002
  0.35850000000000004         -1.6501367092132568E-002
  0.35960000000000003         -1.8278924748301506E-002
  0.36070000000000002         -1.9941743463277817E-002
  0.36180000000000001         -2.1475935354828835E-002
  0.36290000000000006         -2.2869020700454712E-002
  0.36400000000000005         -2.4110093712806702E-002
  0.36510000000000004         -2.5189941748976707E-002
  0.36620000000000003         -2.6101171970367432E-002
  0.36730000000000002         -2.6838289573788643E-002
  0.36840000000000006         -2.7397746220231056E-002
  0.36950000000000005         -2.7777971699833870E-002
  0.37060000000000004         -2.7979359030723572E-002
  0.37170000000000003         -2.8004238381981850E-002
  0.37280000000000002         -2.7856796979904175E-002
  0.37390000000000001         -2.7542976662516594E-002
  0.37500000000000006         -2.7070362120866776E-002
  0.37610000000000005         -2.6448033750057220E-002
  0.37720000000000004         -2.5686401873826981E-002
  0.37830000000000003         -2.4797040969133377E-002
  0.37940000000000002         -2.3792501538991928E-002
  0.38050000000000006         -2.2686101496219635E-002
  0.38160000000000005         -2.1491715684533119E-002
  0.38270000000000004         -2.0223572850227356E-002
  0.38380000000000003         -1.8896050751209259E-002
  0.38490000000000002         -1.7523467540740967E-002
  0.38600000000000001         -1.6119908541440964E-002
  0.38710000000000000         -1.4699053019285202E-002
  0.38819999999999999         -1.3274010270833969E-002
  0.38930000000000009         -1.1857174336910248E-002
  0.39040000000000008         -1.0460095480084419E-002
  0.39150000000000007         -9.0933684259653091E-003
  0.39260000000000006         -7.7665508724749088E-003
  0.39370000000000005         -6.4880987629294395E-003
  0.39480000000000004         -5.2653313614428043E-003
  0.39590000000000003         -4.1044135577976704E-003
  0.39700000000000002         -3.0103533063083887E-003
  0.39810000000000001         -1.9870179239660501E-003
  0.39920000000000000         -1.0371648240834475E-003
  0.40029999999999999         -1.6248930478468537E-004
  0.40140000000000009          6.3631188822910190E-004
  0.40250000000000008          1.3594613410532475E-003
  0.40360000000000007          2.0080131944268942E-003
  0.40470000000000006          2.5837598368525505E-003
  0.40580000000000005          3.0891348142176867E-003
  0.40690000000000004          3.5271183587610722E-003
  0.40800000000000003          3.9011402986943722E-003
  0.40910000000000002          4.2149857617914677E-003
  0.41020000000000001          4.4726999476552010E-003
  0.41130000000000000          4.6784975565969944E-003
  0.41239999999999999          4.8366766422986984E-003
  0.41350000000000009          4.9515408463776112E-003
  0.41460000000000008          5.0273342058062553E-003
  0.41570000000000007          5.0681857392191887E-003
  0.41680000000000006          5.0780586898326874E-003
  0.41790000000000005          5.0607114098966122E-003
  0.41900000000000004          5.0196624360978603E-003
  0.42010000000000003          4.9581662751734257E-003
  0.42120000000000002          4.8791957087814808E-003
  0.42230000000000001          4.7854385338723660E-003
  0.42340000000000000          4.6792984940111637E-003
  0.42449999999999999          4.5629092492163181E-003
  0.42560000000000009          4.4381464831531048E-003
  0.42670000000000008          4.3066437356173992E-003
  0.42780000000000007          4.1698096320033073E-003
  0.42890000000000006          4.0288469754159451E-003
  0.43000000000000005          3.8847743999212980E-003
  0.43110000000000004          3.7384564056992531E-003
  0.43220000000000003          3.5906308330595493E-003
  0.43330000000000002          3.4419363364577293E-003
  0.43440000000000001          3.2929407898336649E-003
  0.43550000000000000          3.1441617757081985E-003
  0.43659999999999999          2.9960866086184978E-003
  0.43770000000000009          2.8491858392953873E-003
  0.43880000000000008          2.7039274573326111E-003
  0.43990000000000007          2.5607876013964415E-003
  0.44100000000000006          2.4202573113143444E-003
  0.44210000000000005          2.2828471846878529E-003
  0.44320000000000004          2.1490850485861301E-003
  0.44430000000000003          2.0195126999169588E-003
  0.44540000000000002          1.8946782220155001E-003
  0.44650000000000001          1.7751271370798349E-003
  0.44760000000000000          1.6613928601145744E-003
  0.44869999999999999          1.5539850573986769E-003
  0.44980000000000009          1.4533769572153687E-003
  0.45090000000000008          1.3599903322756290E-003
  0.45200000000000007          1.2741816462948918E-003
  0.45310000000000006          1.1962287826463580E-003
  0.45420000000000005          1.1263192864134908E-003
  0.45530000000000004          1.0645402362570167E-003
  0.45640000000000003          1.0108709102496505E-003
  0.45750000000000002          9.6517562633380294E-004
  0.45860000000000001          9.2720042448490858E-004
  0.45970000000000000          8.9657219359651208E-004
  0.46079999999999999          8.7280303705483675E-004
  0.46190000000000009          8.5529964417219162E-004
  0.46300000000000008          8.4337580483406782E-004
  0.46410000000000007          8.3626795094460249E-004
  0.46520000000000006          8.3315058145672083E-004
  0.46630000000000005          8.3315232768654823E-004
  0.46740000000000004          8.3537126192823052E-004
  0.46850000000000003          8.3889282541349530E-004
  0.46960000000000002          8.4280990995466709E-004
  0.47070000000000001          8.4624538430944085E-004
  0.47180000000000000          8.4837537724524736E-004
  0.47289999999999999          8.4845098899677396E-004
  0.47400000000000009          8.4581697592511773E-004
  0.47510000000000008          8.3992542931810021E-004
  0.47620000000000007          8.3034561248496175E-004
  0.47730000000000006          8.1677123671397567E-004
  0.47840000000000005          7.9902546713128686E-004