 -0.12000000000000000          0.0000000000000000     
 -0.11889999999999999          0.0000000000000000     
 -0.11780000000000000          0.0000000000000000     
 -0.11670000000000000          0.0000000000000000     
 -0.11559999999999999          0.0000000000000000     
 -0.11449999999999999          0.0000000000000000     
 -0.11340000000000000          0.0000000000000000     
 -0.11230000000000000          0.0000000000000000     
 -0.11119999999999999          0.0000000000000000     
 -0.11009999999999999          0.0000000000000000     
 -0.10900000000000000          0.0000000000000000     
 -0.10790000000000000          1.5416104420948845E-037
 -0.10679999999999999          3.4149204272783037E-034
 -0.10569999999999999          7.1230970436761299E-033
 -0.10460000000000000          7.5294043644580149E-032
 -0.10349999999999999          5.2532145109126029E-031
 -0.10239999999999999          2.6454514829466835E-030
 -0.10130000000000000          9.8095811077249970E-030
 -0.10020000000000000          2.5289999469654367E-029
  -9.9099999999999994E-002     3.0715756834577977E-029
  -9.7999999999999990E-002    -9.1652637182157091E-029
  -9.6899999999999986E-002    -7.2200790970697920E-028
  -9.5799999999999996E-002    -2.6234291242411113E-027
  -9.4699999999999993E-002    -6.4036757758470387E-027
  -9.3599999999999989E-002    -9.9459537541151076E-027
  -9.2499999999999999E-002    -2.4541815987945690E-027
  -9.1399999999999995E-002     4.2736936330706693E-026
  -9.0299999999999991E-002     1.6423774795568647E-025
  -8.9200000000000002E-002     3.7033349490445408E-025
  -8.8099999999999984E-002     5.2901722472396352E-025
  -8.6999999999999994E-002     2.0994324823740242E-025
  -8.5899999999999990E-002    -1.3639659700948813E-024
  -8.4799999999999986E-002    -4.9013875335612475E-024
  -8.3699999999999997E-002    -9.7547504424274019E-024
  -8.2599999999999993E-002    -1.1826297835868937E-023
  -8.1499999999999989E-002    -2.0895739017522451E-024
  -8.0399999999999999E-002     3.0920041062666324E-023
  -7.9299999999999995E-002     9.0471791289715693E-023
  -7.8199999999999992E-002     1.5208852196913056E-022
  -7.7100000000000002E-002     1.4457731753219030E-022
  -7.5999999999999984E-002    -4.3738517072167946E-023
  -7.4899999999999994E-002    -5.0032535120535779E-022
  -7.3799999999999991E-002    -1.1501831575558561E-021
  -7.2699999999999987E-002    -1.5914846076201908E-021
  -7.1599999999999997E-002    -1.0498689183833652E-021
  -7.0499999999999993E-002     1.3339035130961799E-021
  -6.9399999999999989E-002     5.7381629606904403E-021
  -6.8300000000000000E-002     1.0584005165509469E-020
  -6.7199999999999996E-002     1.1841529674844081E-020
  -6.6099999999999992E-002     3.8657080010302946E-021
  -6.5000000000000002E-002    -1.7245845547795726E-020
  -6.3899999999999985E-002    -4.8071860958836409E-020
  -6.2799999999999995E-002    -7.2774534453393893E-020
  -6.1699999999999991E-002    -6.3637720402419083E-020
  -6.0599999999999994E-002     7.4103493741204594E-021
  -5.9499999999999990E-002     1.4533950296015643E-019
  -5.8399999999999994E-002     3.0518136001524011E-019
  -5.7299999999999990E-002     3.8135562345645935E-019
  -5.6199999999999986E-002     2.3694311613198942E-019
  -5.5099999999999996E-002    -2.1543379333578618E-019
  -5.3999999999999992E-002    -9.0184262605684547E-019
  -5.2899999999999989E-002    -1.5077449239622215E-018
  -5.1799999999999985E-002    -1.5206936376426733E-018
  -5.0699999999999995E-002    -4.5966813217791212E-019
  -4.9599999999999991E-002     1.7401189220477772E-018
  -4.8499999999999988E-002     4.3627396562419502E-018
  -4.7399999999999998E-002     5.8590449097629442E-018
  -4.6299999999999994E-002     4.3734017377439632E-018
  -4.5199999999999990E-002    -1.1292083157290708E-018
  -4.4099999999999986E-002    -9.5493134688292253E-018
  -4.2999999999999997E-002    -1.6988708864660157E-017
  -4.1899999999999993E-002    -1.7657069969056257E-017
  -4.0799999999999989E-002    -6.7312862870871522E-018
  -3.9699999999999985E-002     1.5619580895674305E-017
  -3.8599999999999995E-002     4.1172534500782773E-017
  -3.7499999999999992E-002     5.4328236865390648E-017
  -3.6399999999999988E-002     3.8365641189444612E-017
  -3.5299999999999984E-002    -1.3696297265373409E-017
  -3.4199999999999994E-002    -8.8392325072821198E-017
  -3.3099999999999991E-002    -1.4871051837540596E-016
  -3.1999999999999987E-002    -1.4513598785807455E-016
  -3.0899999999999997E-002    -4.1483120309392150E-017
  -2.9799999999999993E-002     1.5341786040410933E-016
  -2.8699999999999989E-002     3.6588638621830907E-016
  -2.7599999999999986E-002     4.6879200783010171E-016
  -2.6499999999999996E-002     3.3340394264776098E-016
  -2.5399999999999992E-002    -9.0393418142378730E-017
  -2.4299999999999988E-002    -7.0167493856614928E-016
  -2.3199999999999985E-002    -1.2327192129091612E-015
  -2.2099999999999995E-002    -1.3268247988879399E-015
  -2.0999999999999991E-002    -7.0624478244168932E-016
  -1.9899999999999987E-002     6.2932211071850807E-016
  -1.8799999999999983E-002     2.2772824456923968E-015
  -1.7699999999999994E-002     3.4834234207270279E-015
  -1.6599999999999990E-002     3.4120647781090696E-015
  -1.5499999999999986E-002     1.5670937811066087E-015
  -1.4399999999999996E-002    -1.8155137283707730E-015
  -1.3299999999999992E-002    -5.6304432615834216E-015
  -1.2199999999999989E-002    -8.1811421388968023E-015
  -1.1099999999999985E-002    -7.8535492762401620E-015
  -9.9999999999999950E-003    -3.9412549449085763E-015
  -8.8999999999999913E-003     2.7746995984879019E-015
  -7.7999999999999875E-003     1.0059150496266129E-014
  -6.6999999999999837E-003     1.4991770790596533E-014
  -5.5999999999999939E-003     1.5216905080905842E-014
  -4.4999999999999901E-003     1.0097203551462215E-014
  -3.3999999999999864E-003     1.1326923522657508E-015
  -2.2999999999999826E-003    -8.6899817778150373E-015
  -1.1999999999999927E-003    -1.6377492223995980E-014
  -9.9999999999988987E-005    -2.0437773401446483E-014
   1.0000000000000148E-003    -2.1429783950878383E-014
   2.1000000000000185E-003    -2.0987081372657209E-014
   3.2000000000000084E-003    -1.9676993868162577E-014
   4.3000000000000121E-003    -1.5045853975810292E-014
   5.4000000000000159E-003    -1.6058793181912832E-015
   6.5000000000000058E-003     2.6144859158544727E-014
   7.6000000000000234E-003     6.8278053470885013E-014
   8.7000000000000133E-003     1.1420394881981521E-013
   9.8000000000000032E-003     1.4147171549575289E-013
   1.0900000000000021E-002     1.2167198641489520E-013
   1.2000000000000011E-002     3.3535008456106442E-014
   1.3100000000000001E-002    -1.2096342809803732E-013
   1.4200000000000018E-002    -3.0524568105773697E-013
   1.5300000000000008E-002    -4.4984691912486749E-013
   1.6400000000000026E-002    -4.7171832507815723E-013
   1.7500000000000016E-002    -3.0808037222459851E-013
   1.8600000000000005E-002     4.6688998740506097E-014
   1.9700000000000023E-002     5.1789863226557732E-013
   2.0800000000000013E-002     9.5631713005009603E-013
   2.1900000000000003E-002     1.1786464590308128E-012
   2.3000000000000020E-002     1.0338775351127174E-012
   2.4100000000000010E-002     4.7284121433906335E-013
   2.5200000000000000E-002    -4.0809868654465597E-013
   2.6300000000000018E-002    -1.3726623397201185E-012
   2.7400000000000008E-002    -2.1059646110500185E-012
   2.8500000000000025E-002    -2.3154266726033553E-012
   2.9600000000000015E-002    -1.8368181400197678E-012
   3.0700000000000005E-002    -7.0549508882525498E-013
   3.1800000000000023E-002     8.3598280900836950E-013
   3.2900000000000013E-002     2.3987809997044689E-012
   3.4000000000000002E-002     3.5557108812551108E-012
   3.5100000000000020E-002     3.9575752183219240E-012
   3.6200000000000010E-002     3.4197468734095228E-012
   3.7300000000000028E-002     1.9579775755046306E-012
   3.8400000000000017E-002    -2.2302361464316565E-013
   3.9500000000000007E-002    -2.7665466272635311E-012
   4.0600000000000025E-002    -5.2035283227295596E-012
   4.1700000000000015E-002    -6.9888566253315288E-012
   4.2800000000000005E-002    -7.5521918605055712E-012
   4.3900000000000022E-002    -6.3943432018186929E-012
   4.5000000000000012E-002    -3.2476758594415031E-012
   4.6100000000000002E-002     1.7214123089209637E-012
   4.7200000000000020E-002     7.7422981585580340E-012
   4.8300000000000010E-002     1.3411647604858250E-011
   4.9400000000000027E-002     1.6904185081162509E-011
   5.0500000000000017E-002     1.6448542283347462E-011
   5.1600000000000007E-002     1.0978140075462404E-011
   5.2700000000000025E-002     7.5110309991957695E-013
   5.3800000000000014E-002    -1.2325768413556221E-011
   5.4900000000000004E-002    -2.4890954026657032E-011
   5.6000000000000022E-002    -3.2909566061780208E-011
   5.7100000000000012E-002    -3.2890964553860689E-011
   5.8200000000000002E-002    -2.3183881032463248E-011
   5.9300000000000019E-002    -4.8870333663095237E-012
   6.0400000000000009E-002     1.8023889631015795E-011
   6.1500000000000027E-002     3.9522225810941856E-011
   6.2600000000000017E-002     5.3151684506938952E-011
   6.3700000000000007E-002     5.3979712468758541E-011
   6.4800000000000024E-002     4.0257157287589954E-011
   6.5900000000000014E-002     1.4214263250756339E-011
   6.7000000000000004E-002    -1.8311439391162289E-011
   6.8100000000000022E-002    -4.9336461660457785E-011
   6.9200000000000012E-002    -7.0843665506688037E-011
   7.0300000000000029E-002    -7.6905571718890629E-011
   7.1400000000000019E-002    -6.5204723167870267E-011
   7.2500000000000009E-002    -3.7568230543345714E-011
   7.3600000000000027E-002     5.3348007184727249E-013
   7.4700000000000016E-002     4.1274404190486304E-011
   7.5800000000000006E-002     7.6139429064256432E-011
   7.6900000000000024E-002     9.7575025329135351E-011
   7.8000000000000014E-002     1.0036154086571582E-010
   7.9100000000000004E-002     8.2592868290088050E-011
   8.0200000000000021E-002     4.6221635307167986E-011
   8.1300000000000011E-002    -2.9019051925136380E-012
   8.2400000000000029E-002    -5.5644685621995539E-011
   8.3500000000000019E-002    -1.0101686761198222E-010
   8.4600000000000009E-002    -1.2841537250632894E-010
   8.5700000000000026E-002    -1.3036781875538256E-010
   8.6800000000000016E-002    -1.0507433481686774E-010
   8.7900000000000006E-002    -5.7797870195284762E-011
   8.9000000000000024E-002    -2.4775719192191907E-013
   9.0100000000000013E-002     5.2372619468828874E-011
   9.1200000000000003E-002     8.6127276888741005E-011
   9.2300000000000021E-002     9.3503630501313562E-011
   9.3400000000000011E-002     7.7023634279234927E-011
   9.4500000000000028E-002     4.9537405160407161E-011
   9.5600000000000018E-002     3.0378208220953049E-011
   9.6700000000000008E-002     3.8058650873087565E-011
   9.7800000000000026E-002     8.1719562953252291E-011
   9.8900000000000016E-002     1.5447532146009202E-010
  0.10000000000000001          2.3164794697902524E-010
  0.10110000000000002          2.7553367891104038E-010
  0.10220000000000001          2.4615692136680113E-010
  0.10330000000000003          1.1517974753862719E-010
  0.10440000000000002         -1.2138721960408634E-010
  0.10550000000000001         -4.3612828492202337E-010
  0.10660000000000003         -7.7179826009293071E-010
  0.10770000000000002         -1.0518792292726421E-009
  0.10880000000000001         -1.1975777058505006E-009
  0.10990000000000003         -1.1465998535804508E-009
  0.11100000000000002         -8.6845080956949253E-010
  0.11210000000000001         -3.7216024119920997E-010
  0.11320000000000002          2.9520179948350194E-010
  0.11430000000000001          1.0579873146530909E-009
  0.11540000000000003          1.8259349458730374E-009
  0.11650000000000002          2.5082724263568293E-009
  0.11760000000000001          3.0242574232886891E-009
  0.11870000000000003          3.3082797385248828E-009
  0.11980000000000002          3.3098566175410838E-009
  0.12090000000000001          2.9906336735657536E-009
  0.12200000000000003          2.3213538087389700E-009
  0.12310000000000001          1.2815742600620459E-009
  0.12420000000000003         -1.3599417507422423E-010
  0.12530000000000002         -1.9158223955904913E-009
  0.12640000000000001         -4.0050258403815067E-009
  0.12750000000000003         -6.2954756415345316E-009
  0.12860000000000002         -8.6052520524540663E-009
  0.12970000000000001         -1.0663563242239055E-008
  0.13080000000000003         -1.2104790586294753E-008
  0.13190000000000002         -1.2478417689143829E-008
  0.13300000000000001         -1.1281304768890668E-008
  0.13410000000000000         -8.0163800193516662E-009
  0.13520000000000004         -2.2770672782668760E-009
  0.13630000000000003          6.1496333531888344E-009
  0.13740000000000002          1.7174545704578037E-008
  0.13850000000000001          3.0309283465397307E-008
  0.13960000000000000          4.4597227836599210E-008
  0.14070000000000005          5.8583040695650414E-008
  0.14180000000000004          7.0321667896699951E-008
  0.14290000000000003          7.7415643166503872E-008
  0.14400000000000002          7.7059795420841782E-008
  0.14510000000000001          6.6067463211126182E-008
  0.14620000000000000          4.0853806870615656E-008
  0.14730000000000004         -2.6404076295124494E-009
  0.14840000000000003         -6.9090022006008526E-008
  0.14950000000000002         -1.6398642280866351E-007
  0.15060000000000001         -2.9388743749716733E-007
  0.15170000000000000         -4.6670681154762051E-007
  0.15280000000000005         -6.9204114203121915E-007
  0.15390000000000004         -9.8154488014641876E-007
  0.15500000000000003         -1.3493771775196421E-006
  0.15610000000000002         -1.8127526837669212E-006
  0.15720000000000001         -2.3926325157581039E-006
  0.15830000000000000         -3.1145830147011351E-006
  0.15940000000000004         -4.0098276926676426E-006
  0.16050000000000003         -5.1165029897568661E-006
  0.16160000000000002         -6.4811218427003759E-006
  0.16270000000000001         -8.1602465782842528E-006
  0.16380000000000000         -1.0222386822734588E-005
  0.16490000000000005         -1.2750122005157559E-005
  0.16600000000000004         -1.5842488822153370E-005
  0.16710000000000003         -1.9617667744904518E-005
  0.16820000000000002         -2.4216005583179457E-005
  0.16930000000000001         -2.9803443663478832E-005
  0.17040000000000000         -3.6575352330011176E-005
  0.17150000000000004         -4.4760891079533313E-005
  0.17260000000000003         -5.4627856814213076E-005
  0.17370000000000002         -6.6488106095554059E-005
  0.17480000000000001         -8.0703530655939522E-005
  0.17590000000000000         -9.7692636802855048E-005
  0.17700000000000005         -1.1793766327264726E-004
  0.17810000000000004         -1.4199224529625544E-004
  0.17920000000000003         -1.7048960443139612E-004
  0.18030000000000002         -2.0415117007881447E-004
  0.18140000000000001         -2.4379560785271179E-004
  0.18250000000000000         -2.9034815508095747E-004
  0.18360000000000004         -3.4484999328643123E-004
  0.18470000000000003         -4.0846782340336625E-004
  0.18580000000000002         -4.8250326136681319E-004
  0.18690000000000001         -5.6840188246576285E-004
  0.18800000000000000         -6.6776178532895140E-004
  0.18910000000000005         -7.8234092406782928E-004
  0.19020000000000004         -9.1406372519462582E-004
  0.19130000000000003         -1.0650252179229879E-003
  0.19240000000000002         -1.2374943699946165E-003
  0.19350000000000001         -1.4339136231295638E-003
  0.19460000000000005         -1.6568959559323364E-003
  0.19570000000000004         -1.9092182944433858E-003
  0.19680000000000003         -2.1938114988978730E-003
  0.19790000000000002         -2.5137457265205169E-003
  0.19900000000000001         -2.8722104337533506E-003
  0.20010000000000000         -3.2724894177277560E-003
  0.20120000000000005         -3.7179306513042817E-003
  0.20230000000000004         -4.2119085444075072E-003
  0.20340000000000003         -4.7577810734880611E-003
  0.20450000000000002         -5.3588388917826671E-003
  0.20560000000000000         -6.0182492252450741E-003
  0.20670000000000005         -6.7389922040619150E-003
  0.20780000000000004         -7.5237905008465316E-003
  0.20890000000000003         -8.3750318726180800E-003
  0.21000000000000002         -9.2946867069715611E-003
  0.21110000000000001         -1.0284221733337829E-002
  0.21220000000000000         -1.1344508424978996E-002
  0.21330000000000005         -1.2475730402245106E-002
  0.21440000000000003         -1.3677287122983009E-002
  0.21550000000000002         -1.4947697736506844E-002
  0.21660000000000001         -1.6284511108874605E-002
  0.21770000000000000         -1.7684214842846730E-002
  0.21880000000000005         -1.9142159785264318E-002
  0.21990000000000004         -2.0652478286030090E-002
  0.22100000000000003         -2.2208028766380311E-002
  0.22210000000000002         -2.3800341905215652E-002
  0.22320000000000001         -2.5419596909691471E-002
  0.22430000000000000         -2.7054600555380188E-002
  0.22540000000000004         -2.8692798195680321E-002
  0.22650000000000003         -3.0320303967455046E-002
  0.22760000000000002         -3.1921959906043774E-002
  0.22870000000000001         -3.3481413244515368E-002
  0.22980000000000000         -3.4981234019608565E-002
  0.23090000000000005         -3.6403043501650328E-002
  0.23200000000000004         -3.7727693831045787E-002
  0.23310000000000003         -3.8935438369942843E-002
  0.23420000000000002         -4.0006173849351734E-002
  0.23530000000000001         -4.0919665474514762E-002
  0.23640000000000000         -4.1655826375981378E-002
  0.23750000000000004         -4.2195000586640566E-002
  0.23860000000000003         -4.2518267276389590E-002
  0.23970000000000002         -4.2607743454371898E-002
  0.24080000000000001         -4.2446900179699515E-002
  0.24190000000000000         -4.2020870138253258E-002
  0.24300000000000005         -4.1316768379242995E-002
  0.24410000000000004         -4.0323995976862773E-002
  0.24520000000000003         -3.9034514842509138E-002
  0.24630000000000002         -3.7443098577938816E-002
  0.24740000000000001         -3.5547567059249198E-002
  0.24850000000000005         -3.3348964321548380E-002
  0.24960000000000004         -3.0851716703056253E-002
  0.25070000000000003         -2.8063727702947835E-002
  0.25180000000000002         -2.4996429045472560E-002
  0.25290000000000001         -2.1664777807006041E-002
  0.25400000000000000         -1.8087203149727435E-002
  0.25510000000000005         -1.4285485150906930E-002
  0.25620000000000004         -1.0284587490756014E-002
  0.25730000000000003         -6.1124226777979265E-003
  0.25840000000000002         -1.7995719527598808E-003
  0.25950000000000001          2.6210518194718447E-003
  0.26060000000000005          7.1145804861648025E-003
  0.26170000000000004          1.1644609593122796E-002
  0.26280000000000003          1.6173651712266368E-002
  0.26390000000000002          2.0663609400940926E-002
  0.26500000000000001          2.5076266897419916E-002
  0.26610000000000000          2.9373794746913796E-002
  0.26720000000000005          3.3519252555568729E-002
  0.26830000000000004          3.7477077270552807E-002
  0.26940000000000003          4.1213573943404781E-002
  0.27050000000000002          4.4697355895635983E-002
  0.27160000000000001          4.7899771719502202E-002
  0.27270000000000005          5.0795260331995974E-002
  0.27380000000000004          5.3361680956219487E-002
  0.27490000000000003          5.5580580525474807E-002
  0.27600000000000002          5.7437404167679125E-002
  0.27710000000000001          5.8921639196919173E-002
  0.27820000000000000          6.0026894640518219E-002
  0.27930000000000005          6.0750927896393844E-002
  0.28040000000000004          6.1095607827685514E-002
  0.28150000000000003          6.1066797712324303E-002
  0.28260000000000002          6.0674185594766408E-002
  0.28370000000000001          5.9931059855585000E-002
  0.28480000000000005          5.8854046189390927E-002
  0.28590000000000004          5.7462781818182429E-002
  0.28700000000000003          5.5779578621704025E-002
  0.28810000000000002          5.3829040630353805E-002
  0.28920000000000001          5.1637656983062698E-002
  0.29030000000000000          4.9233405240422058E-002
  0.29140000000000005          4.6645312410052348E-002
  0.29250000000000004          4.3903045670631947E-002
  0.29360000000000003          4.1036493111582972E-002
  0.29470000000000002          3.8075378321569472E-002
  0.29580000000000001          3.5048880746296550E-002
  0.29690000000000005          3.1985286083007020E-002
  0.29800000000000004          2.8911694823390552E-002
  0.29910000000000003          2.5853738154828818E-002
  0.30020000000000002          2.2835348574148560E-002
  0.30130000000000001          1.9878547184294118E-002
  0.30240000000000000          1.7003295597856447E-002
  0.30350000000000005          1.4227367855066439E-002
  0.30460000000000004          1.1566274185901219E-002
  0.30570000000000003          9.0332224379480255E-003
  0.30680000000000002          6.6391210474395102E-003
  0.30790000000000001          4.3926207349030168E-003
  0.30900000000000005          2.3001807307294463E-003
  0.31010000000000004          3.6616470565762271E-004
  0.31120000000000003         -1.4070447857733542E-003
  0.31230000000000002         -3.0189148396509318E-003
  0.31340000000000001         -4.4706134482773822E-003
  0.31450000000000006         -5.7648500761410034E-003
  0.31560000000000005         -6.9057014302492193E-003
  0.31670000000000004         -7.8984357874935882E-003
  0.31780000000000003         -8.7493324294769196E-003
  0.31890000000000002         -9.4655050729879897E-003
  0.32000000000000001         -1.0054727623058025E-002
  0.32110000000000005         -1.0525277337449367E-002
  0.32220000000000004         -1.0885780271713436E-002
  0.32330000000000003         -1.1145070798701475E-002
  0.32440000000000002         -1.1312064503620642E-002
  0.32550000000000001         -1.1395637426800980E-002
  0.32660000000000006         -1.1404527382307158E-002
  0.32770000000000005         -1.1347235151471772E-002
  0.32880000000000004         -1.1231950774021515E-002
  0.32990000000000003         -1.1066488661309562E-002
  0.33100000000000002         -1.0858230474377622E-002
  0.33210000000000001         -1.0614092921627490E-002
  0.33320000000000005         -1.0340499237379903E-002
  0.33430000000000004         -1.0043364082832636E-002
  0.33540000000000003         -9.7280914015644704E-003
  0.33650000000000002         -9.3995710234263240E-003
  0.33760000000000001         -9.0621842771112689E-003
  0.33870000000000006         -8.7198163598092900E-003
  0.33980000000000005         -8.3758740663112102E-003
  0.34090000000000004         -8.0333037848952134E-003
  0.34200000000000003         -7.6946221770325500E-003
  0.34310000000000002         -7.3619457025262507E-003
  0.34420000000000001         -7.0370235488342002E-003
  0.34530000000000005         -6.7212709286852126E-003
  0.34640000000000004         -6.4158016422139518E-003
  0.34750000000000003         -6.1214551955803206E-003
  0.34860000000000002         -5.8388273407807053E-003
  0.34970000000000001         -5.5682989296841449E-003
  0.35080000000000006         -5.3100637026133740E-003
  0.35190000000000005         -5.0641539950245854E-003
  0.35300000000000004         -4.8304706536553676E-003
  0.35410000000000003         -4.6088047153792370E-003
  0.35520000000000002         -4.3988619986607561E-003
  0.35630000000000001         -4.2002819256674916E-003
  0.35740000000000005         -4.0126539145217185E-003
  0.35850000000000004         -3.8355302504613090E-003
  0.35960000000000003         -3.6684416050144497E-003
  0.36070000000000002         -3.5109072448751538E-003
  0.36180000000000001         -3.3624463713910219E-003
  0.36290000000000006         -3.2225860923746396E-003
  0.36400000000000005         -3.0908682651432399E-003
  0.36510000000000004         -2.9668533985130457E-003
  0.36620000000000003         -2.8501229765075281E-003
  0.36730000000000002         -2.7402814866641931E-003
  0.36840000000000006         -2.6369563793099842E-003
  0.36950000000000005         -2.5398005564554347E-003
  0.37060000000000004         -2.4484933002478920E-003
  0.37170000000000003         -2.3627405659183403E-003
  0.37280000000000002         -2.2822760859917833E-003
  0.37390000000000001         -2.2068587305665677E-003
  0.37500000000000006         -2.1362716306928312E-003
  0.37610000000000005         -2.0703188013178348E-003
  0.37720000000000004         -2.0088235988771235E-003
  0.37830000000000003         -1.9516267601603484E-003
  0.37940000000000002         -1.8985871834177413E-003
  0.38050000000000006         -1.8495830107611261E-003
  0.38160000000000005         -1.8045149111256249E-003
  0.38270000000000004         -1.7633084506149402E-003
  0.38380000000000003         -1.7259166066582339E-003
  0.38490000000000002         -1.6923226258278162E-003
  0.38600000000000001         -1.6625413800573318E-003
  0.38710000000000000         -1.6366201698835101E-003
  0.38819999999999999         -1.6146394179537354E-003
  0.38930000000000009         -1.5967139000494781E-003
  0.39040000000000008         -1.5829940253780980E-003
  0.39150000000000007         -1.5736679885434543E-003
  0.39260000000000006         -1.5689627473525827E-003
  0.39370000000000005         -1.5691439417874653E-003
  0.39480000000000004         -1.5745137841658961E-003
  0.39590000000000003         -1.5854072405974615E-003
  0.39700000000000002         -1.6021863927433654E-003
  0.39810000000000001         -1.6252336554668698E-003
  0.39920000000000000         -1.6549445327171354E-003
  0.40029999999999999         -1.6917179400624067E-003
  0.40140000000000009         -1.7359458182386099E-003
  0.40250000000000008         -1.7879992113840719E-003
  0.40360000000000007         -1.8482132728098797E-003
  0.40470000000000006         -1.9168694582364838E-003
  0.40580000000000005         -1.9941774020239876E-003
  0.40690000000000004         -2.0802571310402180E-003
  0.40800000000000003         -2.1751205492189273E-003
  0.40910000000000002         -2.2786550205962939E-003
  0.41020000000000001         -2.3906054595504598E-003
  0.41130000000000000         -2.5105568362630611E-003
  0.41239999999999999         -2.6379174952832572E-003
  0.41350000000000009         -2.7719020436653354E-003
  0.41460000000000008         -2.9115169245898910E-003
  0.41570000000000007         -3.0555491291298334E-003
  0.41680000000000006         -3.2025601722543546E-003
  0.41790000000000005         -3.3508831108947290E-003
  0.41900000000000004         -3.4986248417615416E-003
  0.42010000000000003         -3.6436704244267905E-003
  0.42120000000000002         -3.7836926689521783E-003
  0.42230000000000001         -3.9161638689385022E-003
  0.42340000000000000         -4.0383739747638682E-003
  0.42449999999999999         -4.1474536192682172E-003
  0.42560000000000009         -4.2403996386660720E-003
  0.42670000000000008         -4.3141108314228779E-003
  0.42780000000000007         -4.3654253867814359E-003
  0.42890000000000006         -4.3911635922055225E-003
  0.43000000000000005         -4.3881736051653176E-003
  0.43110000000000004         -4.3533802373941421E-003
  0.43220000000000003         -4.2838311060695491E-003
  0.43330000000000002         -4.1767482097034942E-003
  0.43440000000000001         -4.0295780193692760E-003
  0.43550000000000000         -3.8400423968048113E-003
  0.43659999999999999         -3.6061891424456092E-003
  0.43770000000000009         -3.3264438485959206E-003
  0.43880000000000008         -2.9996580709148700E-003
  0.43990000000000007         -2.6251504322492257E-003
  0.44100000000000006         -2.2027468487834582E-003
  0.44210000000000005         -1.7328075569217763E-003
  0.44320000000000004         -1.2162501170731310E-003
  0.44430000000000003         -6.5456289370510355E-004
  0.44540000000000002         -4.9814005492961467E-005
  0.44650000000000001          5.9534910919461874E-004
  0.44760000000000000          1.2777052377813012E-003
  0.44869999999999999          1.9934751921484774E-003
  0.44980000000000009          2.7383458713551119E-003
  0.45090000000000008          3.5075050602424917E-003
  0.45200000000000007          4.2956851739961843E-003
  0.45310000000000006          5.0972162721353974E-003
  0.45420000000000005          5.9060849732821413E-003
  0.45530000000000004          6.7159995379248378E-003
  0.45640000000000003          7.5204634767791750E-003
  0.45750000000000002          8.3128475085817027E-003
  0.45860000000000001          9.0864700497588248E-003
  0.45970000000000000          9.8346771842199761E-003
  0.46079999999999999          1.0550924084845155E-002
  0.46190000000000009          1.1228860988241459E-002
  0.46300000000000008          1.1862408772635195E-002
  0.46410000000000007          1.2445843205848402E-002
  0.46520000000000006          1.2973865505595629E-002
  0.46630000000000005          1.3441670009622353E-002
  0.46740000000000004          1.3845005266402232E-002
  0.46850000000000003          1.4180226622524453E-002
  0.46960000000000002          1.4444342903712454E-002
  0.47070000000000001          1.4635046264498165E-002
  0.47180000000000000          1.4750748338468515E-002
  0.47289999999999999          1.4790590648824688E-002
  0.47400000000000009          1.4754460584639500E-002
  0.47510000000000008          1.4642987382815040E-002
  0.47620000000000007          1.4457524754659716E-002
  0.47730000000000006          1.4200131591103357E-002
  0.47840000000000005          1.3873529395457029E-002