 -0.12000000000000000          0.0000000000000000     
 -0.11889999999999999          0.0000000000000000     
 -0.11780000000000000          0.0000000000000000     
 -0.11670000000000000          0.0000000000000000     
 -0.11559999999999999          0.0000000000000000     
 -0.11449999999999999          0.0000000000000000     
 -0.11340000000000000          0.0000000000000000     
 -0.11230000000000000          0.0000000000000000     
 -0.11119999999999999          0.0000000000000000     
 -0.11009999999999999          0.0000000000000000     
 -0.10900000000000000          0.0000000000000000     
 -0.10790000000000000          0.0000000000000000     
 -0.10679999999999999          0.0000000000000000     
 -0.10569999999999999          0.0000000000000000     
 -0.10460000000000000          0.0000000000000000     
 -0.10349999999999999          0.0000000000000000     
 -0.10239999999999999          0.0000000000000000     
 -0.10130000000000000          0.0000000000000000     
 -0.10020000000000000          0.0000000000000000     
  -9.9099999999999994E-002     0.0000000000000000     
  -9.7999999999999990E-002     0.0000000000000000     
  -9.6899999999999986E-002     0.0000000000000000     
  -9.5799999999999996E-002     0.0000000000000000     
  -9.4699999999999993E-002     0.0000000000000000     
  -9.3599999999999989E-002     0.0000000000000000     
  -9.2499999999999999E-002     0.0000000000000000     
  -9.1399999999999995E-002     0.0000000000000000     
  -9.0299999999999991E-002     0.0000000000000000     
  -8.9200000000000002E-002     0.0000000000000000     
  -8.8099999999999984E-002     0.0000000000000000     
  -8.6999999999999994E-002     0.0000000000000000     
  -8.5899999999999990E-002     0.0000000000000000     
  -8.4799999999999986E-002     0.0000000000000000     
  -8.3699999999999997E-002     0.0000000000000000     
  -8.2599999999999993E-002     0.0000000000000000     
  -8.1499999999999989E-002     0.0000000000000000     
  -8.0399999999999999E-002     0.0000000000000000     
  -7.9299999999999995E-002     0.0000000000000000     
  -7.8199999999999992E-002     0.0000000000000000     
  -7.7100000000000002E-002     0.0000000000000000     
  -7.5999999999999984E-002     0.0000000000000000     
  -7.4899999999999994E-002     0.0000000000000000     
  -7.3799999999999991E-002     0.0000000000000000     
  -7.2699999999999987E-002     0.0000000000000000     
  -7.1599999999999997E-002     0.0000000000000000     
  -7.0499999999999993E-002     0.0000000000000000     
  -6.9399999999999989E-002     0.0000000000000000     
  -6.8300000000000000E-002     0.0000000000000000     
  -6.7199999999999996E-002     0.0000000000000000     
  -6.6099999999999992E-002     0.0000000000000000     
  -6.5000000000000002E-002     0.0000000000000000     
  -6.3899999999999985E-002     0.0000000000000000     
  -6.2799999999999995E-002     0.0000000000000000     
  -6.1699999999999991E-002     0.0000000000000000     
  -6.0599999999999994E-002     0.0000000000000000     
  -5.9499999999999990E-002     0.0000000000000000     
  -5.8399999999999994E-002     0.0000000000000000     
  -5.7299999999999990E-002     0.0000000000000000     
  -5.6199999999999986E-002     0.0000000000000000     
  -5.5099999999999996E-002     0.0000000000000000     
  -5.3999999999999992E-002     0.0000000000000000     
  -5.2899999999999989E-002     0.0000000000000000     
  -5.1799999999999985E-002     0.0000000000000000     
  -5.0699999999999995E-002     0.0000000000000000     
  -4.9599999999999991E-002     0.0000000000000000     
  -4.8499999999999988E-002     0.0000000000000000     
  -4.7399999999999998E-002     0.0000000000000000     
  -4.6299999999999994E-002     0.0000000000000000     
  -4.5199999999999990E-002     0.0000000000000000     
  -4.4099999999999986E-002     0.0000000000000000     
  -4.2999999999999997E-002     0.0000000000000000     
  -4.1899999999999993E-002     0.0000000000000000     
  -4.0799999999999989E-002     0.0000000000000000     
  -3.9699999999999985E-002     0.0000000000000000     
  -3.8599999999999995E-002     0.0000000000000000     
  -3.7499999999999992E-002     0.0000000000000000     
  -3.6399999999999988E-002     0.0000000000000000     
  -3.5299999999999984E-002     0.0000000000000000     
  -3.4199999999999994E-002     0.0000000000000000     
  -3.3099999999999991E-002     0.0000000000000000     
  -3.1999999999999987E-002     0.0000000000000000     
  -3.0899999999999997E-002     0.0000000000000000     
  -2.9799999999999993E-002     0.0000000000000000     
  -2.8699999999999989E-002     0.0000000000000000     
  -2.7599999999999986E-002    -4.5706516415842378E-044
  -2.6499999999999996E-002    -2.7551958117998766E-043
  -2.5399999999999992E-002    -9.7446529029989682E-043
  -2.4299999999999988E-002    -2.6638961029839149E-042
  -2.3199999999999985E-002     1.0063553939867139E-039
  -2.2099999999999995E-002     6.4914836641936567E-039
  -2.0999999999999991E-002     1.6453183538937949E-038
  -1.9899999999999987E-002     1.7771785201798458E-038
  -1.8799999999999983E-002    -1.2908122330333065E-038
  -1.7699999999999994E-002    -1.0311589879667012E-037
  -1.6599999999999990E-002    -2.2633266485882181E-037
  -1.5499999999999986E-002    -2.7961873437469310E-037
  -1.4399999999999996E-002    -7.1829277309903947E-038
  -1.3299999999999992E-002     5.4585001298805447E-037
  -1.2199999999999989E-002     1.5640084835731786E-036
  -1.1099999999999985E-002     2.4877472998217532E-036
  -9.9999999999999950E-003     2.1900430538979798E-036
  -8.8999999999999913E-003    -8.5733334318794705E-037
  -7.7999999999999875E-003    -7.5682031840680809E-036
  -6.6999999999999837E-003    -1.6448163797821751E-035
  -5.5999999999999939E-003    -2.1705554257112414E-035
  -4.4999999999999901E-003    -1.3069946310604969E-035
  -3.3999999999999864E-003     2.0222782691592619E-035
  -2.2999999999999826E-003     7.9645026702311945E-035
  -1.1999999999999927E-003     1.4369058156655215E-034
  -9.9999999999988987E-005     1.5833380232495260E-034
   1.0000000000000148E-003     4.5877672685284650E-035
   2.1000000000000185E-003    -2.5309978405882632E-034
   3.2000000000000084E-003    -7.0268212705294565E-034
   4.3000000000000121E-003    -1.0871333568871055E-033
   5.4000000000000159E-003    -9.8629809259852686E-034
   6.5000000000000058E-003     9.6684847250063636E-035
   7.6000000000000234E-003     2.3912094836350141E-033
   8.7000000000000133E-003     5.3511532345273629E-033
   9.8000000000000032E-003     7.2365930846352506E-033
   1.0900000000000021E-002     5.2424219478913271E-033
   1.2000000000000011E-002    -3.3348298389676241E-033
   1.3100000000000001E-002    -1.8744751227382779E-032
   1.4200000000000018E-002    -3.5928298037688472E-032
   1.5300000000000008E-002    -4.2972084719927399E-032
   1.6400000000000026E-002    -2.3486085526486187E-032
   1.7500000000000016E-002     3.4986655441664175E-032
   1.8600000000000005E-002     1.2712556761817618E-031
   1.9700000000000023E-002     2.1604859406291707E-031
   2.0800000000000013E-002     2.3041415731107106E-031
   2.1900000000000003E-002     8.5223896830980316E-032
   2.3000000000000020E-002    -2.6690411667179908E-031
   2.4100000000000010E-002    -7.6411351517841114E-031
   2.5200000000000000E-002    -1.1782482937508253E-030
   2.6300000000000018E-002    -1.1283296246021686E-030
   2.7400000000000008E-002    -2.1875925376085404E-031
   2.8500000000000025E-002     1.6870483349960327E-030
   2.9600000000000015E-002     4.1363537845921289E-030
   3.0700000000000005E-002     5.8883743961222842E-030
   3.1800000000000023E-002     5.1026642831581049E-030
   3.2900000000000013E-002     1.1123980570798650E-031
   3.4000000000000002E-002    -9.2762562447451926E-030
   3.5100000000000020E-002    -2.0400024179908989E-029
   3.6200000000000010E-002    -2.7202516940489353E-029
   3.7300000000000028E-002    -2.1548895176354480E-029
   3.8400000000000017E-002     2.9876004961299261E-030
   3.9500000000000007E-002     4.5479804218489993E-029
   4.0600000000000025E-002     9.2463959793032865E-029
   4.1700000000000015E-002     1.1701391151612257E-028
   4.2800000000000005E-002     8.5916467639328502E-029
   4.3900000000000022E-002    -2.3657977681438275E-029
   4.5000000000000012E-002    -2.0175614683024565E-028
   4.6100000000000002E-002    -3.8772634884574477E-028
   4.7200000000000020E-002    -4.7146024911372077E-028
   4.8300000000000010E-002    -3.2667067473751426E-028
   4.9400000000000027E-002     1.2215520941216583E-028
   5.0500000000000017E-002     8.1749930080689494E-028
   5.1600000000000007E-002     1.5117174573347349E-027
   5.2700000000000025E-002     1.7872956053864590E-027
   5.3800000000000014E-002     1.1938748491943806E-027
   5.4900000000000004E-002    -5.0387140329107338E-028
   5.6000000000000022E-002    -3.0444545307979256E-027
   5.7100000000000012E-002    -5.5005860315261028E-027
   5.8200000000000002E-002    -6.3951758821582653E-027
   5.9300000000000019E-002    -4.2129535878788646E-027
   6.0400000000000009E-002     1.7466912629029453E-027
   6.1500000000000027E-002     1.0463165772785609E-026
   6.2600000000000017E-002     1.8726299173633261E-026
   6.3700000000000007E-002     2.1636954714983395E-026
   6.4800000000000024E-002     1.4362172282883830E-026
   6.5900000000000014E-002    -5.1205840977519881E-027
   6.7000000000000004E-002    -3.3268673385337524E-026
   6.8100000000000022E-002    -5.9746394613497966E-026
   6.9200000000000012E-002    -6.9263082766797633E-026
   7.0300000000000029E-002    -4.7155666717286309E-026
   7.1400000000000019E-002     1.2310715022297792E-026
   7.2500000000000009E-002     9.7998168856061645E-026
   7.3600000000000027E-002     1.7881623350448844E-025
   7.4700000000000016E-002     2.0972742644531537E-025
   7.5800000000000006E-002     1.4832287381317038E-025
   7.6900000000000024E-002    -2.1478886680617013E-026
   7.8000000000000014E-002    -2.6760547361453455E-025
   7.9100000000000004E-002    -5.0235003000988754E-025
   8.0200000000000021E-002    -6.0023759658095936E-025
   8.1300000000000011E-002    -4.4422249853134445E-025
   8.2400000000000029E-002     1.0219747537239065E-026
   8.3500000000000019E-002     6.7780690138386560E-025
   8.4600000000000009E-002     1.3256728331446630E-024
   8.5700000000000026E-002     1.6224743937597021E-024
   8.6800000000000016E-002     1.2598489530737583E-024
   8.7900000000000006E-002     1.1713312703447649E-025
   8.9000000000000024E-002    -1.5946950363599511E-024
   9.0100000000000013E-002    -3.2914515617472987E-024
   9.1200000000000003E-002    -4.1418410657606109E-024
   9.2300000000000021E-002    -3.3701654613935284E-024
   9.3400000000000011E-002    -6.5996701033296178E-025
   9.4500000000000028E-002     3.4990352117464085E-024
   9.5600000000000018E-002     7.7153374618355627E-024
   9.6700000000000008E-002     1.0001105735082098E-023
   9.7800000000000026E-002     8.4911668853679177E-024
   9.8900000000000016E-002     2.3898244334669928E-024
  0.10000000000000001         -7.2250687793594769E-024
  0.10110000000000002         -1.7186453781752051E-023
  0.10220000000000001         -2.2942546047396905E-023
  0.10330000000000003         -2.0193982435896901E-023
  0.10440000000000002         -7.0300996560609339E-024
  0.10550000000000001          1.4272175698602788E-023
  0.10660000000000003          3.6771755692473973E-023
  0.10770000000000002          5.0422742718585808E-023
  0.10880000000000001          4.5670633250582997E-023
  0.10990000000000003          1.8116199079535166E-023
  0.11100000000000002         -2.7576378564525404E-023
  0.11210000000000001         -7.6639727375345437E-023
  0.11320000000000002         -1.0753285107101722E-022
  0.11430000000000001         -9.9605824271606285E-023
  0.11540000000000003         -4.3015958392584485E-023
  0.11650000000000002          5.2960756454721190E-023
  0.11760000000000001          1.5764584493362075E-022
  0.11870000000000003          2.2581494006749559E-022
  0.11980000000000002          2.1360658754130846E-022
  0.12090000000000001          9.9170206565800845E-023
  0.12200000000000003         -9.9881807621344050E-023
  0.12310000000000001         -3.2129705871405137E-022
  0.12420000000000003         -4.7169730556965365E-022
  0.12530000000000002         -4.5873087506228557E-022
  0.12640000000000001         -2.3329360257139518E-022
  0.12750000000000003          1.7407538314807684E-022
  0.12860000000000002          6.4093367800300785E-022
  0.12970000000000001          9.7801344345170952E-022
  0.13080000000000003          9.9219015996625597E-022
  0.13190000000000002          5.7110178543747015E-022
  0.13300000000000001         -2.4148187181023687E-022
  0.13410000000000000         -1.2157669610777365E-021
  0.13520000000000004         -1.9785924624696257E-021
  0.13630000000000003         -2.1318578027333174E-021
  0.13740000000000002         -1.4176512443273978E-021
  0.13850000000000001          1.2794200535049015E-022
  0.13960000000000000          2.1023232900869283E-021
  0.14070000000000005          3.8000252595340770E-021
  0.14180000000000004          4.4242172034179537E-021
  0.14290000000000003          3.3974888929604955E-021
  0.14400000000000002          6.6729546571976188E-022
  0.14510000000000001         -3.1250057314590492E-021
  0.14620000000000000         -6.7201559457247926E-021
  0.14730000000000004         -8.5959525480522402E-021
  0.14840000000000003         -7.5262578701458727E-021
  0.14950000000000002         -3.1636979529706473E-021
  0.15060000000000001          3.5907299966280345E-021
  0.15170000000000000          1.0638986675661169E-020
  0.15280000000000005          1.5242532481078994E-020
  0.15390000000000004          1.4978800199184449E-020
  0.15500000000000003          8.8002392872147434E-021
  0.15610000000000002         -2.2159180949851998E-021
  0.15720000000000001         -1.4809271971509862E-020
  0.15830000000000000         -2.4355382833891934E-020
  0.15940000000000004         -2.6429033791634218E-020
  0.16050000000000003         -1.8639608510524610E-020
  0.16160000000000002         -2.0457163055760940E-021
  0.16270000000000001          1.8527719295787964E-020
  0.16380000000000000          3.5645967271730501E-020
  0.16490000000000005          4.1745678431160591E-020
  0.16600000000000004          3.2209959819818681E-020
  0.16710000000000003          7.8970538733401873E-021
  0.16820000000000002         -2.4046039044136264E-020
  0.16930000000000001         -5.1803496946102027E-020
  0.17040000000000000         -6.2813540914602779E-020
  0.17150000000000004         -4.8878110242114366E-020
  0.17260000000000003         -1.0599003391831688E-020
  0.17370000000000002          4.0861413702953913E-020
  0.17480000000000001          8.6042856358156709E-020
  0.17590000000000000          1.0346331421301076E-019
  0.17700000000000005          7.8238468911626466E-020
  0.17810000000000004          1.0023461213073547E-020
  0.17920000000000003         -8.3164054187213676E-020
  0.18030000000000002         -1.6779361357676279E-019
  0.18140000000000001         -2.0477452585280635E-019
  0.18250000000000000         -1.6416552726261761E-019
  0.18360000000000004         -3.9839784530523843E-020
  0.18470000000000003          1.4178323996279221E-019
  0.18580000000000002          3.2381787409636898E-019
  0.18690000000000001          4.3352910583178499E-019
  0.18800000000000000          4.0669913449592862E-019
  0.18910000000000005          2.1456211738849445E-019
  0.19020000000000004         -1.1642349296037924E-019
  0.19130000000000003         -5.0104737988456678E-019
  0.19240000000000002         -8.1291880062959154E-019
  0.19350000000000001         -9.2109120062551284E-019
  0.19460000000000005         -7.3622592600997911E-019
  0.19570000000000004         -2.5143073247560514E-019
  0.19680000000000003          4.3794840347040479E-019
  0.19790000000000002          1.1465660188225603E-018
  0.19900000000000001          1.6447987640533407E-018
  0.20010000000000000          1.7277720859443148E-018
  0.20120000000000005          1.2876874725072445E-018
  0.20230000000000004          3.6524294958855071E-019
  0.20340000000000003         -8.4031647512012988E-019
  0.20450000000000002         -2.0115374678510321E-018
  0.20560000000000000         -2.7964429656931751E-018
  0.20670000000000005         -2.9129910216257943E-018
  0.20780000000000004         -2.2423271514149466E-018
  0.20890000000000003         -8.7956122062780667E-019
  0.21000000000000002          8.7758597735958431E-019
  0.21110000000000001          2.6025333088564539E-018
  0.21220000000000000          3.8553626473384749E-018
  0.21330000000000005          4.3044962132557669E-018
  0.21440000000000003          3.8157123969542097E-018
  0.21550000000000002          2.4802469438649895E-018
  0.21660000000000001          5.7498540194082224E-019
  0.21770000000000000         -1.5277290268523426E-018
  0.21880000000000005         -3.4647114447566762E-018
  0.21990000000000004         -4.9604204289473108E-018
  0.22100000000000003         -5.8509139273488561E-018
  0.22210000000000002         -6.0501369976045702E-018
  0.22320000000000001         -5.4841885980580343E-018
  0.22430000000000000         -4.0392457011148279E-018
  0.22540000000000004         -1.5696732132876903E-018
  0.22650000000000003          2.0092861664135079E-018
  0.22760000000000002          6.5597350581918813E-018
  0.22870000000000001          1.1549487597518166E-017
  0.22980000000000000          1.5959117363125231E-017
  0.23090000000000005          1.8354930542780496E-017
  0.23200000000000004          1.7175809732725955E-017
  0.23310000000000003          1.1210844802846303E-017
  0.23420000000000002          1.6140590327980120E-019
  0.23530000000000001         -1.4885563910353467E-017
  0.23640000000000000         -3.1268536143372715E-017
  0.23750000000000004         -4.5001802327025680E-017
  0.23860000000000003         -5.1517396355408652E-017
  0.23970000000000002         -4.6806720683962399E-017
  0.24080000000000001         -2.8722997418593811E-017
  0.24190000000000000          1.8980396779614691E-018
  0.24300000000000005          4.0664239964641509E-017
  0.24410000000000004          7.9885124290166816E-017
  0.24520000000000003          1.0977356506397691E-016
  0.24630000000000002          1.2046929477917376E-016
  0.24740000000000001          1.0452482106741643E-016
  0.24850000000000005          5.9313280286735258E-017
  0.24960000000000004         -1.1254679858003330E-017
  0.25070000000000003         -9.6252301394433939E-017
  0.25180000000000002         -1.7884066094495877E-016
  0.25290000000000001         -2.3898981381281354E-016
  0.25400000000000000         -2.5749071879173951E-016
  0.25510000000000005         -2.2058777354393864E-016
  0.25620000000000004         -1.2430742583780308E-016
  0.25730000000000003          2.2545338367172649E-017
  0.25840000000000002          1.9765759691134201E-016
  0.25950000000000001          3.6737501004248605E-016
  0.26060000000000005          4.9189067695513246E-016
  0.26170000000000004          5.3294359633521905E-016
  0.26280000000000003          4.6284095755864951E-016
  0.26390000000000002          2.7305081417102120E-016
  0.26500000000000001         -1.9693430867984348E-017
  0.26610000000000000         -3.7173578583831920E-016
  0.26720000000000005         -7.1665910689665212E-016
  0.26830000000000004         -9.7557822666160838E-016
  0.26940000000000003         -1.0724912566510200E-015
  0.27050000000000002         -9.5217325311472346E-016
  0.27160000000000001         -5.9694765933393298E-016
  0.27270000000000005         -3.8180075068721467E-017
  0.27380000000000004          6.4122866080336807E-016
  0.27490000000000003          1.3156431250462415E-015
  0.27600000000000002          1.8368174638925401E-015
  0.27710000000000001          2.0627110113987105E-015
  0.27820000000000000          1.8898886570243294E-015
  0.27930000000000005          1.2827649548096667E-015
  0.28040000000000004          2.9266698801124550E-016
  0.28150000000000003         -9.3899839155359072E-016
  0.28260000000000002         -2.1964149229311709E-015
  0.28370000000000001         -3.2230626168732878E-015
  0.28480000000000005         -3.7687003547027176E-015
  0.28590000000000004         -3.6415679936005419E-015
  0.28700000000000003         -2.7558393737454382E-015
  0.28810000000000002         -1.1642997713839737E-015
  0.28920000000000001          9.3188117131136318E-016
  0.29030000000000000          3.2008650520941169E-015
  0.29140000000000005          5.2253072539411343E-015
  0.29250000000000004          6.5699686291318026E-015
  0.29360000000000003          6.8622477879074000E-015
  0.29470000000000002          5.8726815792747831E-015
  0.29580000000000001          3.5807386387152928E-015
  0.29690000000000005          2.1165690675263844E-016
  0.29800000000000004         -3.7670817752800994E-015
  0.29910000000000003         -7.6956904944922025E-015
  0.30020000000000002         -1.0816951642369560E-014
  0.30130000000000001         -1.2405646516722496E-014
  0.30240000000000000         -1.1913306446371754E-014
  0.30350000000000005         -9.1021680162727171E-015
  0.30460000000000004         -4.1394047825061678E-015
  0.30570000000000003          2.3743133808894374E-015
  0.30680000000000002          9.4583267169869550E-015
  0.30790000000000001          1.5888760005824035E-014
  0.30900000000000005          2.0401489051590611E-014
  0.31010000000000004          2.1927060619058785E-014
  0.31120000000000003          1.9811919483101805E-014
  0.31230000000000002          1.3978591862496160E-014
  0.31340000000000001          4.9873078744779056E-015
  0.31450000000000006         -6.0184174656978131E-015
  0.31560000000000005         -1.7474025852183491E-014
  0.31670000000000004         -2.7631189990826269E-014
  0.31780000000000003         -3.4821184896514240E-014
  0.31890000000000002         -3.7692890223948680E-014
  0.32000000000000001         -3.5386174274748713E-014
  0.32110000000000005         -2.7624733283566579E-014
  0.32220000000000004         -1.4738438068046977E-014
  0.32330000000000003          2.3558442622318098E-015
  0.32440000000000002          2.2182788880791858E-014
  0.32550000000000001          4.2729826551354549E-014
  0.32660000000000006          6.1474401053261893E-014
  0.32770000000000005          7.5463699249122158E-014
  0.32880000000000004          8.1513731488252484E-014
  0.32990000000000003          7.6587809254552327E-014
  0.33100000000000002          5.8373530794266549E-014
  0.33210000000000001          2.6006336783930409E-014
  0.33320000000000005         -1.9195370810104270E-014
  0.33430000000000004         -7.3186790030164387E-014
  0.33540000000000003         -1.2907147781460559E-013
  0.33650000000000002         -1.7757947653934754E-013
  0.33760000000000001         -2.0822210037492395E-013
  0.33870000000000006         -2.1103468050776917E-013
  0.33980000000000005         -1.7864397631190020E-013
  0.34090000000000004         -1.0826094367836853E-013
  0.34200000000000003         -3.1484206841319570E-015
  0.34310000000000002          1.2682594032660747E-013
  0.34420000000000001          2.6577221786604589E-013
  0.34530000000000005          3.9347935887826359E-013
  0.34640000000000004          4.8797529730212248E-013
  0.34750000000000003          5.2851150574528210E-013
  0.34860000000000002          4.9848479560552116E-013
  0.34970000000000001          3.8789547952517647E-013
  0.35080000000000006          1.9513517279500811E-013
  0.35190000000000005         -7.1878838272116282E-014
  0.35300000000000004         -3.9504801706627617E-013
  0.35410000000000003         -7.4573645755504522E-013
  0.35520000000000002         -1.0847185755767440E-012
  0.35630000000000001         -1.3627729481184952E-012
  0.35740000000000005         -1.5226352712347487E-012
  0.35850000000000004         -1.5032660194359281E-012
  0.35960000000000003         -1.2473193713756131E-012
  0.36070000000000002         -7.1220088044142008E-013
  0.36180000000000001          1.1584155749039280E-013
  0.36290000000000006          1.2064015868824975E-012
  0.36400000000000005          2.4714761374054737E-012
  0.36510000000000004          3.7579801822976844E-012
  0.36620000000000003          4.8505563042782308E-012
  0.36730000000000002          5.4883010830474812E-012
  0.36840000000000006          5.3971969296399698E-012
  0.36950000000000005          4.3372161524559527E-012
  0.37060000000000004          2.1596333620585207E-012
  0.37170000000000003         -1.1334181175746654E-012
  0.37280000000000002         -5.3379573142542942E-012
  0.37390000000000001         -1.0018072349122352E-011
  0.37500000000000006         -1.4508730099012529E-011
  0.37610000000000005         -1.7960844880256199E-011
  0.37720000000000004         -1.9433112119058624E-011
  0.37830000000000003         -1.8028192841150467E-011
  0.37940000000000002         -1.3062607199888499E-011
  0.38050000000000006         -4.2510267624732015E-012
  0.38160000000000005          8.1221763301698969E-012
  0.38270000000000004          2.3076805173494842E-011
  0.38380000000000003          3.8890609229018637E-011
  0.38490000000000002          5.3164073868035638E-011
  0.38600000000000001          6.3017871995074985E-011
  0.38710000000000000          6.5428914334969329E-011
  0.38819999999999999          5.7689547213295849E-011
  0.38930000000000009          3.7949523506057471E-011
  0.39040000000000008          5.7750717189264257E-012
  0.39150000000000007         -3.7362042124647178E-011
  0.39260000000000006         -8.7765410488040669E-011
  0.39370000000000005         -1.3946428813513313E-010
  0.39480000000000004         -1.8451593169800187E-010
  0.39590000000000003         -2.1370738829392746E-010
  0.39700000000000002         -2.1765277124454080E-010
  0.39810000000000001         -1.8821818851700459E-010
  0.39920000000000000         -1.2013828206552422E-010
  0.40029999999999999         -1.2624971126803387E-011
  0.40140000000000009          1.2927836144723140E-010
  0.40250000000000008          2.9386499574695162E-010
  0.40360000000000007          4.6270872801941216E-010
  0.40470000000000006          6.1158369845197740E-010
  0.40580000000000005          7.1246589617842977E-010
  0.40690000000000004          7.3659292572622005E-010
  0.40800000000000003          6.5840561863262457E-010
  0.40910000000000002          4.6003247244852405E-010
  0.41020000000000001          1.3582716707089187E-010
  0.41130000000000000         -3.0364911968819436E-010
  0.41239999999999999         -8.2887104743808038E-010
  0.41350000000000009         -1.3904777864166195E-009
  0.41460000000000008         -1.9208453438722417E-009
  0.41570000000000007         -2.3384689396787623E-009
  0.41680000000000006         -2.5552355525592250E-009
  0.41790000000000005         -2.4863211979862570E-009
  0.41900000000000004         -2.0620515343772242E-009
  0.42010000000000003         -1.2406874395508686E-009
  0.42120000000000002         -2.0763564007976351E-011
  0.42230000000000001          1.5486063496516715E-009
  0.42340000000000000          3.3611100413803890E-009
  0.42449999999999999          5.2518272400591510E-009
  0.42560000000000009          7.0022302739910578E-009
  0.42670000000000008          8.3522701034217130E-009
  0.42780000000000007          9.0195566102437203E-009
  0.42890000000000006          8.7248846931973742E-009
  0.43000000000000005          7.2226023227310425E-009
  0.43110000000000004          4.3336527286243273E-009
  0.43220000000000003         -2.1359122519248685E-011
  0.43330000000000002         -5.7919072644664832E-009
  0.43440000000000001         -1.2772826409721959E-008
  0.43550000000000000         -2.0587366104232816E-008
  0.43659999999999999         -2.8679452757008307E-008
  0.43770000000000009         -3.6315466417355984E-008
  0.43880000000000008         -4.2594559671248736E-008
  0.43990000000000007         -4.6465144344044460E-008
  0.44100000000000006         -4.6743777278415253E-008
  0.44210000000000005         -4.2131576321736551E-008
  0.44320000000000004         -3.1222336372702876E-008
  0.44430000000000003         -1.2496018901001943E-008
  0.44540000000000002          1.5708703326044640E-008
  0.44650000000000001          5.5248870322435359E-008
  0.44760000000000000          1.0826381965786815E-007
  0.44869999999999999          1.7729813691348040E-007
  0.44980000000000009          2.6546397744403243E-007
  0.45090000000000008          3.7664427065402431E-007
  0.45200000000000007          5.1573831562062873E-007
  0.45310000000000006          6.8894938341420914E-007
  0.45420000000000005          9.0411540989473725E-007
  0.45530000000000004          1.1710832822487916E-006
  0.45640000000000003          1.5021299980390848E-006
  0.45750000000000002          1.9124339361591990E-006
  0.45860000000000001          2.4206054469420847E-006
  0.45970000000000000          3.0492837978474778E-006
  0.46079999999999999          3.8258156490838556E-006
  0.46190000000000009          4.7830296602042283E-006
  0.46300000000000008          5.9601237255419794E-006
  0.46410000000000007          7.4036862818433031E-006
  0.46520000000000006          9.1688677910051052E-006
  0.46630000000000005          1.1320728262890517E-005
  0.46740000000000004          1.3935769996548891E-005
  0.46850000000000003          1.7103685292575381E-005
  0.46960000000000002          2.0929309251823452E-005
  0.47070000000000001          2.5534814209111160E-005
  0.47180000000000000          3.1062122217129309E-005
  0.47289999999999999          3.7675546068648274E-005
  0.47400000000000009          4.5564662016172133E-005
  0.47510000000000008          5.4947363717302683E-005
  0.47620000000000007          6.6073116567156077E-005
  0.47730000000000006          7.9226383530802078E-005
  0.47840000000000005          9.4730135120995104E-005