 -0.12000000000000000          0.0000000000000000     
 -0.11889999999999999          0.0000000000000000     
 -0.11780000000000000          0.0000000000000000     
 -0.11670000000000000          0.0000000000000000     
 -0.11559999999999999          0.0000000000000000     
 -0.11449999999999999          0.0000000000000000     
 -0.11340000000000000          0.0000000000000000     
 -0.11230000000000000          0.0000000000000000     
 -0.11119999999999999          0.0000000000000000     
 -0.11009999999999999          0.0000000000000000     
 -0.10900000000000000          0.0000000000000000     
 -0.10790000000000000          0.0000000000000000     
 -0.10679999999999999          0.0000000000000000     
 -0.10569999999999999          0.0000000000000000     
 -0.10460000000000000          0.0000000000000000     
 -0.10349999999999999          0.0000000000000000     
 -0.10239999999999999          0.0000000000000000     
 -0.10130000000000000          0.0000000000000000     
 -0.10020000000000000          0.0000000000000000     
  -9.9099999999999994E-002     0.0000000000000000     
  -9.7999999999999990E-002     0.0000000000000000     
  -9.6899999999999986E-002     0.0000000000000000     
  -9.5799999999999996E-002     0.0000000000000000     
  -9.4699999999999993E-002     0.0000000000000000     
  -9.3599999999999989E-002     0.0000000000000000     
  -9.2499999999999999E-002     0.0000000000000000     
  -9.1399999999999995E-002     0.0000000000000000     
  -9.0299999999999991E-002     0.0000000000000000     
  -8.9200000000000002E-002     0.0000000000000000     
  -8.8099999999999984E-002     0.0000000000000000     
  -8.6999999999999994E-002     0.0000000000000000     
  -8.5899999999999990E-002     0.0000000000000000     
  -8.4799999999999986E-002     0.0000000000000000     
  -8.3699999999999997E-002     0.0000000000000000     
  -8.2599999999999993E-002     0.0000000000000000     
  -8.1499999999999989E-002     0.0000000000000000     
  -8.0399999999999999E-002     0.0000000000000000     
  -7.9299999999999995E-002     0.0000000000000000     
  -7.8199999999999992E-002     0.0000000000000000     
  -7.7100000000000002E-002     0.0000000000000000     
  -7.5999999999999984E-002     0.0000000000000000     
  -7.4899999999999994E-002     0.0000000000000000     
  -7.3799999999999991E-002     0.0000000000000000     
  -7.2699999999999987E-002     0.0000000000000000     
  -7.1599999999999997E-002     0.0000000000000000     
  -7.0499999999999993E-002     0.0000000000000000     
  -6.9399999999999989E-002     0.0000000000000000     
  -6.8300000000000000E-002     0.0000000000000000     
  -6.7199999999999996E-002     0.0000000000000000     
  -6.6099999999999992E-002     0.0000000000000000     
  -6.5000000000000002E-002     0.0000000000000000     
  -6.3899999999999985E-002     0.0000000000000000     
  -6.2799999999999995E-002     0.0000000000000000     
  -6.1699999999999991E-002     0.0000000000000000     
  -6.0599999999999994E-002     0.0000000000000000     
  -5.9499999999999990E-002     0.0000000000000000     
  -5.8399999999999994E-002     0.0000000000000000     
  -5.7299999999999990E-002     0.0000000000000000     
  -5.6199999999999986E-002     0.0000000000000000     
  -5.5099999999999996E-002     0.0000000000000000     
  -5.3999999999999992E-002     0.0000000000000000     
  -5.2899999999999989E-002     0.0000000000000000     
  -5.1799999999999985E-002     0.0000000000000000     
  -5.0699999999999995E-002     0.0000000000000000     
  -4.9599999999999991E-002     0.0000000000000000     
  -4.8499999999999988E-002     0.0000000000000000     
  -4.7399999999999998E-002     0.0000000000000000     
  -4.6299999999999994E-002     0.0000000000000000     
  -4.5199999999999990E-002     0.0000000000000000     
  -4.4099999999999986E-002     0.0000000000000000     
  -4.2999999999999997E-002     0.0000000000000000     
  -4.1899999999999993E-002     0.0000000000000000     
  -4.0799999999999989E-002     0.0000000000000000     
  -3.9699999999999985E-002     0.0000000000000000     
  -3.8599999999999995E-002     0.0000000000000000     
  -3.7499999999999992E-002     0.0000000000000000     
  -3.6399999999999988E-002     0.0000000000000000     
  -3.5299999999999984E-002     0.0000000000000000     
  -3.4199999999999994E-002     0.0000000000000000     
  -3.3099999999999991E-002     0.0000000000000000     
  -3.1999999999999987E-002     0.0000000000000000     
  -3.0899999999999997E-002     0.0000000000000000     
  -2.9799999999999993E-002     0.0000000000000000     
  -2.8699999999999989E-002     0.0000000000000000     
  -2.7599999999999986E-002     6.3730733802846124E-044
  -2.6499999999999996E-002     1.5671491948352074E-043
  -2.5399999999999992E-002     8.5662928247936304E-040
  -2.4299999999999988E-002     1.9535514249170275E-039
  -2.3199999999999985E-002     1.8620344265690608E-039
  -2.2099999999999995E-002    -2.4910246703689849E-039
  -2.0999999999999991E-002    -1.1655970259338322E-038
  -1.9899999999999987E-002    -2.1408801013131372E-038
  -1.8799999999999983E-002    -1.3853477021061164E-038
  -1.7699999999999994E-002     2.8363874016043571E-038
  -1.6599999999999990E-002     1.2953356560993845E-037
  -1.5499999999999986E-002     2.3852877501554334E-037
  -1.4399999999999996E-002     2.4421685136690108E-037
  -1.3299999999999992E-002     1.7442244010231518E-038
  -1.2199999999999989E-002    -5.4403558379704241E-037
  -1.1099999999999985E-002    -1.3186344408256003E-036
  -9.9999999999999950E-003    -1.8095766399766167E-036
  -8.8999999999999913E-003    -1.1103432561423349E-036
  -7.7999999999999875E-003     1.7507123722496048E-036
  -6.6999999999999837E-003     6.9476567453756961E-036
  -5.5999999999999939E-003     1.2598310118332660E-035
  -4.4999999999999901E-003     1.3829282926883726E-035
  -3.3999999999999864E-003     3.5079056573298560E-036
  -2.2999999999999826E-003    -2.3906578718116222E-035
  -1.1999999999999927E-003    -6.5080484791755439E-035
  -9.9999999999988987E-005    -9.9636591689500678E-035
   1.0000000000000148E-003    -8.7594991856116673E-035
   2.1000000000000185E-003     1.8352075590577587E-035
   3.2000000000000084E-003     2.3906406867726023E-034
   4.3000000000000121E-003     5.1861137656881819E-034
   5.4000000000000159E-003     6.8289643760181627E-034
   6.5000000000000058E-003     4.5408306700454680E-034
   7.6000000000000234E-003    -4.2834748372834448E-034
   8.7000000000000133E-003    -1.9650856648371588E-033
   9.8000000000000032E-003    -3.6063469805897298E-033
   1.0900000000000021E-002    -4.1068420618843439E-033
   1.2000000000000011E-002    -1.8044217692900169E-033
   1.3100000000000001E-002     4.4601375416728004E-033
   1.4200000000000018E-002     1.3868750348266500E-032
   1.5300000000000008E-002     2.2226545510610968E-032
   1.6400000000000026E-002     2.1842921670398393E-032
   1.7500000000000016E-002     4.0727948273693930E-033
   1.8600000000000005E-002    -3.4862533194247044E-032
   1.9700000000000023E-002    -8.6142370855240728E-032
   2.0800000000000013E-002    -1.2287628485469611E-031
   2.1900000000000003E-002    -1.0326698745565581E-031
   2.3000000000000020E-002     1.1911351316883055E-032
   2.4100000000000010E-002     2.2751156942646620E-031
   2.5200000000000000E-002     4.7869993952752932E-031
   2.6300000000000018E-002     6.1528129540637862E-031
   2.7400000000000008E-002     4.3473484337507525E-031
   2.8500000000000025E-002    -2.1744610649203840E-031
   2.9600000000000015E-002    -1.2946839383660128E-030
   3.0700000000000005E-002    -2.4087800742752838E-030
   3.1800000000000023E-002    -2.8131000919656030E-030
   3.2900000000000013E-002    -1.6247138367995064E-030
   3.4000000000000002E-002     1.6741010444484021E-030
   3.5100000000000020E-002     6.5784074325900625E-030
   3.6200000000000010E-002     1.1078329175277742E-029
   3.7300000000000028E-002     1.1823326665989907E-029
   3.8400000000000017E-002     5.3273820447758874E-030
   3.9500000000000007E-002    -9.7979447489466237E-030
   4.0600000000000025E-002    -3.0303079662392981E-029
   4.1700000000000015E-002    -4.6922224582459886E-029
   4.2800000000000005E-002    -4.5940974031350765E-029
   4.3900000000000022E-002    -1.4843898042418560E-029
   4.5000000000000012E-002     4.8695992080312534E-029
   4.6100000000000002E-002     1.2794545124940987E-028
   4.7200000000000020E-002     1.8418833962022274E-028
   4.8300000000000010E-002     1.6580780801261510E-028
   4.9400000000000027E-002     3.1886135181506704E-029
   5.0500000000000017E-002    -2.1473739780227435E-028
   5.1600000000000007E-002    -4.9943899308162492E-028
   5.2700000000000025E-002    -6.7378516210441184E-028
   5.3800000000000014E-002    -5.5796787962240433E-028
   5.4900000000000004E-002    -3.0407963314438334E-029
   5.6000000000000022E-002     8.6032030535667278E-028
   5.7100000000000012E-002     1.8157030656066826E-027
   5.8200000000000002E-002     2.3086440406583796E-027
   5.9300000000000019E-002     1.7561346950524588E-027
   6.0400000000000009E-002    -1.6765924708806604E-028
   6.1500000000000027E-002    -3.1803092508926025E-027
   6.2600000000000017E-002    -6.1889624897999365E-027
   6.3700000000000007E-002    -7.4462733103740023E-027
   6.4800000000000024E-002    -5.1836689531494133E-027
   6.5900000000000014E-002     1.3720334805681856E-027
   6.7000000000000004E-002     1.0972772718944981E-026
   6.8100000000000022E-002     1.9907196872974944E-026
   6.9200000000000012E-002     2.2729550038727665E-026
   7.0300000000000029E-002     1.4394500697866466E-026
   7.1400000000000019E-002    -6.6500752836065225E-027
   7.2500000000000009E-002    -3.5657058224068840E-026
   7.3600000000000027E-002    -6.0816002010117069E-026
   7.4700000000000016E-002    -6.6063667626365957E-026
   7.5800000000000006E-002    -3.7786869764228500E-026
   7.6900000000000024E-002     2.6297579270614128E-026
   7.8000000000000014E-002     1.0992016083838014E-025
   7.9100000000000004E-002     1.7757851799936733E-025
   8.0200000000000021E-002     1.8413399097469873E-025
   8.1300000000000011E-002     9.4603540451494032E-026
   8.2400000000000029E-002    -9.1611849800529882E-026
   8.3500000000000019E-002    -3.2312576054599846E-025
   8.4600000000000009E-002    -4.9847258770866353E-025
   8.5700000000000026E-002    -4.9604177352483722E-025
   8.6800000000000016E-002    -2.2945429964452147E-025
   8.7900000000000006E-002     2.8920418843979347E-025
   8.9000000000000024E-002     9.0845696358475009E-025
   9.0100000000000013E-002     1.3512058651821008E-024
   9.1200000000000003E-002     1.3014851608705555E-024
   9.2300000000000021E-002     5.5214904334728925E-025
   9.3400000000000011E-002    -8.3630646588503269E-025
   9.4500000000000028E-002    -2.4440225568152182E-024
   9.5600000000000018E-002    -3.5453502140698407E-024
   9.6700000000000008E-002    -3.3448495518816185E-024
   9.7800000000000026E-002    -1.3544305143800461E-024
   9.8900000000000016E-002     2.2207194874307012E-024
  0.10000000000000001          6.2815402805870947E-024
  0.10110000000000002          9.0021299340853451E-024
  0.10220000000000001          8.4364085845370308E-024
  0.10330000000000003          3.4432538744880518E-024
  0.10440000000000002         -5.4026358736698534E-024
  0.10550000000000001         -1.5376970503141298E-023
  0.10660000000000003         -2.2061734587442906E-023
  0.10770000000000002         -2.0825785207130643E-023
  0.10880000000000001         -9.0098094363150674E-024
  0.10990000000000003          1.1980692836004494E-023
  0.11100000000000002          3.5738168815563548E-023
  0.11210000000000001          5.1981468942601128E-023
  0.11320000000000002          4.9999943725751321E-023
  0.11430000000000001          2.3630224412827344E-023
  0.11540000000000003         -2.4057044420098103E-023
  0.11650000000000002         -7.8724797942700191E-023
  0.11760000000000001         -1.1735319290377786E-022
  0.11870000000000003         -1.1590539112496074E-022
  0.11980000000000002         -6.0279973831423793E-023
  0.12090000000000001          4.3458195980084292E-023
  0.12200000000000003          1.6466438784259540E-022
  0.12310000000000001          2.5366041368598040E-022
  0.12420000000000003          2.5813420461787689E-022
  0.12530000000000002          1.4648888740140230E-022
  0.12640000000000001         -7.0366297519232184E-023
  0.12750000000000003         -3.2946653363079333E-022
  0.12860000000000002         -5.2707359038923196E-022
  0.12970000000000001         -5.5257483556538253E-022
  0.13080000000000003         -3.3688770002453793E-022
  0.13190000000000002          1.0213727723028994E-022
  0.13300000000000001          6.3918177820935289E-022
  0.13410000000000000          1.0633425088526571E-021
  0.13520000000000004          1.1461853089075873E-021
  0.13630000000000003          7.3978700564456443E-022
  0.13740000000000002         -1.3028943677110318E-022
  0.13850000000000001         -1.2209547540135475E-021
  0.13960000000000000         -2.1119596814672661E-021
  0.14070000000000005         -2.3390001666694378E-021
  0.14180000000000004         -1.5885663487653749E-021
  0.14290000000000003          1.1390092292438015E-022
  0.14400000000000002          2.3090501451487278E-021
  0.14510000000000001          4.1730773384044611E-021
  0.14620000000000000          4.7710208180278004E-021
  0.14730000000000004          3.4372820378000636E-021
  0.14840000000000003          1.5324017807723674E-022
  0.14950000000000002         -4.2457667495888674E-021
  0.15060000000000001         -8.1763350455012715E-021
  0.15170000000000000         -9.7723921068855237E-021
  0.15280000000000005         -7.6129163964627461E-021
  0.15390000000000004         -1.4720793737534809E-021
  0.15500000000000003          7.2269693714657439E-021
  0.15610000000000002          1.5536252849905434E-020
  0.15720000000000001          1.9797084507519243E-020
  0.15830000000000000          1.6991162304797066E-020
  0.15940000000000004          6.2031913491534269E-021
  0.16050000000000003         -1.0395178200740314E-020
  0.16160000000000002         -2.7587945279592135E-020
  0.16270000000000001         -3.8445246416212884E-020
  0.16380000000000000         -3.6729987372841200E-020
  0.16490000000000005         -1.9661054621230672E-020
  0.16600000000000004          1.0023224960533098E-020
  0.16710000000000003          4.3738005705049925E-020
  0.16820000000000002          6.9039912798710711E-020
  0.16930000000000001          7.3694854802393940E-020
  0.17040000000000000          5.0672882090252379E-020
  0.17150000000000004          2.2531437231834466E-021
  0.17260000000000003         -5.8651509191796951E-020
  0.17370000000000002         -1.1115127394999554E-019
  0.17480000000000001         -1.3287176436080487E-019
  0.17590000000000000         -1.0853450697104615E-019
  0.17700000000000005         -3.7623896886298635E-020
  0.17810000000000004          6.2170903557836306E-020
  0.17920000000000003          1.5807340279807825E-019
  0.18030000000000002          2.1207771109796485E-019
  0.18140000000000001          1.9502154057002931E-019
  0.18250000000000000          1.0007674642251626E-019
  0.18360000000000004         -4.9946946102995257E-020
  0.18470000000000003         -2.0577838100529932E-019
  0.18580000000000002         -3.0627937804048295E-019
  0.18690000000000001         -3.0092502136707579E-019
  0.18800000000000000         -1.7264588893224621E-019
  0.18910000000000005          4.8266427332984291E-020
  0.19020000000000004          2.8683584578566285E-019
  0.19130000000000003          4.4515771811526523E-019
  0.19240000000000002          4.3843671042460530E-019
  0.19350000000000001          2.3358257394627519E-019
  0.19460000000000005         -1.2501230259437527E-019
  0.19570000000000004         -5.1606410807554085E-019
  0.19680000000000003         -7.7415802600685277E-019
  0.19790000000000002         -7.4865295083082858E-019
  0.19900000000000001         -3.7069560593326938E-019
  0.20010000000000000          2.9708709053047066E-019
  0.20120000000000005          1.0524704534007731E-018
  0.20230000000000004          1.6002114610923784E-018
  0.20340000000000003          1.6476428918859040E-018
  0.20450000000000002          1.0229232807488120E-018
  0.20560000000000000         -2.2524710175123208E-019
  0.20670000000000005         -1.7896025585893030E-018
  0.20780000000000004         -3.1568262487828330E-018
  0.20890000000000003         -3.7510555536563337E-018
  0.21000000000000002         -3.1344062791465690E-018
  0.21110000000000001         -1.2019990455581232E-018
  0.21220000000000000          1.7017801256001005E-018
  0.21330000000000005          4.8046152229405107E-018
  0.21440000000000003          7.0851368636728253E-018
  0.21550000000000002          7.5759762955937429E-018
  0.21660000000000001          5.7070063437235821E-018
  0.21770000000000000          1.5757986411848649E-018
  0.21880000000000005         -3.9609339339516190E-018
  0.21990000000000004         -9.4355319307631206E-018
  0.22100000000000003         -1.3143913731964158E-017
  0.22210000000000002         -1.3653303718702690E-017
  0.22320000000000001         -1.0291977761182509E-017
  0.22430000000000000         -3.4570745257886592E-018
  0.22540000000000004          5.3808696769221037E-018
  0.22650000000000003          1.4008701459670087E-017
  0.22760000000000002          2.0059384700405517E-017
  0.22870000000000001          2.1688705235453742E-017
  0.22980000000000000          1.8128714791838427E-017
  0.23090000000000005          9.9361093524682672E-018
  0.23200000000000004         -1.1510752008592875E-018
  0.23310000000000003         -1.2703861179822362E-017
  0.23420000000000002         -2.2274059740151984E-017
  0.23530000000000001         -2.8016675522511633E-017
  0.23640000000000000         -2.9052478321604194E-017
  0.23750000000000004         -2.5463566474095222E-017
  0.23860000000000003         -1.7966073511019529E-017
  0.23970000000000002         -7.4452026513703181E-018
  0.24080000000000001          5.3923170399001728E-018
  0.24190000000000000          2.0033556161157945E-017
  0.24300000000000005          3.5776382246006248E-017
  0.24410000000000004          5.1091240179523831E-017
  0.24520000000000003          6.3058767572166113E-017
  0.24630000000000002          6.7292930031974463E-017
  0.24740000000000001          5.8669234139819735E-017
  0.24850000000000005          3.2916265612953898E-017
  0.24960000000000004         -1.1236927314354778E-017
  0.25070000000000003         -7.0013292579655774E-017
  0.25180000000000002         -1.3348534483698414E-016
  0.25290000000000001         -1.8618347902356608E-016
  0.25400000000000000         -2.0979847234144981E-016
  0.25510000000000005         -1.8774510186993572E-016
  0.25620000000000004         -1.1066686161205055E-016
  0.25730000000000003          1.8579303788809590E-017
  0.25840000000000002          1.8210997568507271E-016
  0.25950000000000001          3.4774233231728244E-016
  0.26060000000000005          4.7388223072442587E-016
  0.26170000000000004          5.1813377282621313E-016
  0.26280000000000003          4.4808153739159010E-016
  0.26390000000000002          2.5184299585010789E-016
  0.26500000000000001         -5.4348721204673871E-017
  0.26610000000000000         -4.2395314936017695E-016
  0.26720000000000005         -7.8479100519620055E-016
  0.26830000000000004         -1.0506370280076026E-015
  0.26940000000000003         -1.1382359936211814E-015
  0.27050000000000002         -9.8684233431814044E-016
  0.27160000000000001         -5.7644950473615800E-016
  0.27270000000000005          5.9398109740471156E-017
  0.27380000000000004          8.2984143099054456E-016
  0.27490000000000003          1.5944183082595574E-015
  0.27600000000000002          2.1828649087439986E-015
  0.27710000000000001          2.4253881494877824E-015
  0.27820000000000000          2.1894070486505508E-015
  0.27930000000000005          1.4165894074377477E-015
  0.28040000000000004          1.5248566165478340E-016
  0.28150000000000003         -1.4393089210969260E-015
  0.28260000000000002         -3.0853068638293858E-015
  0.28370000000000001         -4.4363558840159861E-015
  0.28480000000000005         -5.1268696649231441E-015
  0.28590000000000004         -4.8520155501076349E-015
  0.28700000000000003         -3.4498154250591414E-015
  0.28810000000000002         -9.7061687255505160E-016
  0.28920000000000001          2.2850725431168875E-015
  0.29030000000000000          5.7765900820435917E-015
  0.29140000000000005          8.7897410453734086E-015
  0.29250000000000004          1.0557518926401335E-014
  0.29360000000000003          1.0419172774354181E-014
  0.29470000000000002          7.9896005768866044E-015
  0.29580000000000001          3.3028821236684006E-015
  0.29690000000000005         -3.1075048901785192E-015
  0.29800000000000004         -1.0222144384161527E-014
  0.29910000000000003         -1.6657955649876552E-014
  0.30020000000000002         -2.0893242581091256E-014
  0.30130000000000001         -2.1566206815327837E-014
  0.30240000000000000         -1.7796868276602606E-014
  0.30350000000000005         -9.4688884131937328E-015
  0.30460000000000004          2.5947883954899765E-015
  0.30570000000000003          1.6618273373936119E-014
  0.30680000000000002          3.0053976222484706E-014
  0.30790000000000001          3.9958706114971864E-014
  0.30900000000000005          4.3525922158686951E-014
  0.31010000000000004          3.8697119918293817E-014
  0.31120000000000003          2.4744250156928755E-014
  0.31230000000000002          2.6983892692992850E-015
  0.31340000000000001         -2.4496155384736120E-014
  0.31450000000000006         -5.2194105622533946E-014
  0.31560000000000005         -7.4664948468440474E-014
  0.31670000000000004         -8.6073187839915257E-014
  0.31780000000000003         -8.1696925470729811E-014
  0.31890000000000002         -5.9176501177095498E-014
  0.32000000000000001         -1.9528146502463467E-014
  0.32110000000000005          3.2353836656302157E-014
  0.32220000000000004          8.7933263395964298E-014
  0.32330000000000003          1.3611894826695098E-013
  0.32440000000000002          1.6514561386592523E-013
  0.32550000000000001          1.6499699750087238E-013
  0.32660000000000006          1.2993923239424894E-013
  0.32770000000000005          6.0615943092101836E-014
  0.32880000000000004         -3.4854200162541412E-014
  0.32990000000000003         -1.4121664431288995E-013
  0.33100000000000002         -2.3804879004004395E-013
  0.33210000000000001         -3.0321085136067633E-013
  0.33320000000000005         -3.1727228217089772E-013
  0.33430000000000004         -2.6810348104520528E-013
  0.33540000000000003         -1.5466013577771853E-013
  0.33650000000000002          1.0976980854615638E-014
  0.33760000000000001          2.0399298660506260E-013
  0.33870000000000006          3.8991466939659788E-013
  0.33980000000000005          5.3009005331319989E-013
  0.34090000000000004          5.8876369106360183E-013
  0.34200000000000003          5.4053464050235278E-013
  0.34310000000000002          3.7679364612026866E-013
  0.34420000000000001          1.0980876541984561E-013
  0.34530000000000005         -2.2654431934171887E-013
  0.34640000000000004         -5.7988950791619437E-013
  0.34750000000000003         -8.8615534534166945E-013
  0.34860000000000002         -1.0793231513196525E-012
  0.34970000000000001         -1.1028452696844196E-012
  0.35080000000000006         -9.2110499350869069E-013
  0.35190000000000005         -5.2912752329294011E-013
  0.35300000000000004          4.1210256407041360E-014
  0.35410000000000003          7.1998276234487476E-013
  0.35520000000000002          1.4040970538934983E-012
  0.35630000000000001          1.9686580765923295E-012
  0.35740000000000005          2.2843491498308205E-012
  0.35850000000000004          2.2393043289364552E-012
  0.35960000000000003          1.7628157667568590E-012
  0.36070000000000002          8.4718789968196213E-013
  0.36180000000000001         -4.3662508366602434E-013
  0.36290000000000006         -1.9339999713883994E-012
  0.36400000000000005         -3.4158083650076667E-012
  0.36510000000000004         -4.6035164228213239E-012
  0.36620000000000003         -5.2092907544211454E-012
  0.36730000000000002         -4.9869936700308434E-012
  0.36840000000000006         -3.7868400152616063E-012
  0.36950000000000005         -1.6041440570809746E-012
  0.37060000000000004          1.3882818519100389E-012
  0.37170000000000003          4.8334571606540078E-012
  0.37280000000000002          8.2155438076225902E-012
  0.37390000000000001          1.0918518715446922E-011
  0.37500000000000006          1.2313697399159887E-011
  0.37610000000000005          1.1865713549329152E-011
  0.37720000000000004          9.2418248060176132E-012
  0.37830000000000003          4.4067722849915723E-012
  0.37940000000000002         -2.3144910239513094E-012
  0.38050000000000006         -1.0220915998706946E-011
  0.38160000000000005         -1.8275577820102460E-011
  0.38270000000000004         -2.5204024494763579E-011
  0.38380000000000003         -2.9644796931165684E-011
  0.38490000000000002         -3.0338391942414359E-011
  0.38600000000000001         -2.6334289495695532E-011
  0.38710000000000000         -1.7190873097481640E-011
  0.38819999999999999         -3.1405025359163139E-012
  0.38930000000000009          1.4807815682336948E-011
  0.39040000000000008          3.4852630579971755E-011
  0.39150000000000007          5.4489285052572528E-011
  0.39260000000000006          7.0712762051667949E-011
  0.39370000000000005          8.0330060335015688E-011
  0.39480000000000004          8.0363140862802045E-011
  0.39590000000000003          6.8507517409839313E-011
  0.39700000000000002          4.3596918172240757E-011
  0.39810000000000001          6.0132387382467498E-012
  0.39920000000000000         -4.2023865270706529E-011
  0.40029999999999999         -9.6350166919663891E-011
  0.40140000000000009         -1.5098280679361560E-010
  0.40250000000000008         -1.9850746919127409E-010
  0.40360000000000007         -2.3072681284449736E-010
  0.40470000000000006         -2.3953782507216025E-010
  0.40580000000000005         -2.1797323248363976E-010
  0.40690000000000004         -1.6131338263246114E-010
  0.40800000000000003         -6.8153435665465476E-011
  0.40910000000000002          5.8701186422488664E-011
  0.41020000000000001          2.1163949310205629E-010
  0.41130000000000000          3.7806817814360609E-010
  0.41239999999999999          5.4075058388717059E-010
  0.41350000000000009          6.7872718999285077E-010
  0.41460000000000008          7.6883941304028297E-010
  0.41570000000000007          7.8782815161799029E-010
  0.41680000000000006          7.1491514663039236E-010
  0.41790000000000005          5.3471002352261419E-010
  0.41900000000000004          2.4021934228086242E-010
  0.42010000000000003         -1.6432480394109147E-010
  0.42120000000000002         -6.6113981695297855E-010
  0.42230000000000001         -1.2174075957179508E-009
  0.42340000000000000         -1.7849468431030243E-009
  0.42449999999999999         -2.3013004869143700E-009
  0.42560000000000009         -2.6924016892811782E-009
  0.42670000000000008         -2.8768617216255060E-009
  0.42780000000000007         -2.7717893385215635E-009
  0.42890000000000006         -2.2999253041692559E-009
  0.43000000000000005         -1.3977682274013112E-009
  0.43110000000000004         -2.4308656838823119E-011
  0.43220000000000003          1.8300338747967222E-009
  0.43330000000000002          4.1346318144448271E-009
  0.43440000000000001          6.8103207933868539E-009
  0.43550000000000000          9.7216758945929240E-009
  0.43659999999999999          1.2669921993534881E-008
  0.43770000000000009          1.5386320402543123E-008
  0.43880000000000008          1.7525731881046877E-008
  0.43990000000000007          1.8659841965969123E-008
  0.44100000000000006          1.8269367740950979E-008
  0.44210000000000005          1.5734348077409238E-008
  0.44320000000000004          1.0321449973894214E-008
  0.44430000000000003          1.1669038862406088E-009
  0.44540000000000002         -1.2746439133323530E-008
  0.44650000000000001         -3.2619742452383006E-008
  0.44760000000000000         -5.9878555390005392E-008
  0.44869999999999999         -9.6225159510440501E-008
  0.44980000000000009         -1.4370546614085438E-007
  0.45090000000000008         -2.0479306573095865E-007
  0.45200000000000007         -2.8249352457293865E-007
  0.45310000000000006         -3.8047192099603239E-007
  0.45420000000000005         -5.0320738348358794E-007
  0.45530000000000004         -6.5617809337032377E-007
  0.45640000000000003         -8.4608115366629853E-007
  0.45750000000000002         -1.0810913267841674E-006
  0.45860000000000001         -1.3711631877051467E-006
  0.45970000000000000         -1.7283824248184621E-006
  0.46079999999999999         -2.1673702234880831E-006
  0.46190000000000009         -2.7057472621780759E-006
  0.46300000000000008         -3.3646608337585644E-006
  0.46410000000000007         -4.1693825324763510E-006
  0.46520000000000006         -5.1499807431412639E-006
  0.46630000000000005         -6.3420742267437950E-006
  0.46740000000000004         -7.7876724816533441E-006
  0.46850000000000003         -9.5361092218131003E-006
  0.46960000000000002         -1.1645074049974975E-005
  0.47070000000000001         -1.4181744551840302E-005
  0.47180000000000000         -1.7224026251354084E-005
  0.47289999999999999         -2.0861896738482517E-005
  0.47400000000000009         -2.5198867885442242E-005
  0.47510000000000008         -3.0353540951938977E-005
  0.47620000000000007         -3.6461271890997132E-005
  0.47730000000000006         -4.3675925905179125E-005
  0.47840000000000005         -5.2171675174956036E-005