-0.1200000E+00  0.0000000E+00
-0.1189000E+00  0.0000000E+00
-0.1178000E+00  0.0000000E+00
-0.1167000E+00  0.0000000E+00
-0.1156000E+00  0.0000000E+00
-0.1145000E+00  0.0000000E+00
-0.1134000E+00  0.0000000E+00
-0.1123000E+00  0.0000000E+00
-0.1112000E+00  0.0000000E+00
-0.1101000E+00  0.0000000E+00
-0.1090000E+00  0.0000000E+00
-0.1079000E+00  0.0000000E+00
-0.1068000E+00  0.0000000E+00
-0.1057000E+00  0.0000000E+00
-0.1046000E+00  0.0000000E+00
-0.1035000E+00  0.0000000E+00
-0.1024000E+00  0.0000000E+00
-0.1013000E+00  0.0000000E+00
-0.1002000E+00  0.0000000E+00
-0.9910000E-01  0.0000000E+00
-0.9800000E-01  0.0000000E+00
-0.9690000E-01  0.0000000E+00
-0.9580000E-01  0.0000000E+00
-0.9470000E-01  0.0000000E+00
-0.9360000E-01  0.0000000E+00
-0.9250000E-01  0.0000000E+00
-0.9140000E-01  0.0000000E+00
-0.9030000E-01  0.0000000E+00
-0.8920000E-01  0.0000000E+00
-0.8810000E-01  0.0000000E+00
-0.8700000E-01  0.0000000E+00
-0.8590000E-01  0.0000000E+00
-0.8480000E-01  0.0000000E+00
-0.8370000E-01  0.0000000E+00
-0.8260000E-01  0.0000000E+00
-0.8150000E-01  0.0000000E+00
-0.8040000E-01  0.0000000E+00
-0.7930000E-01  0.0000000E+00
-0.7820000E-01 -0.0000000E+00
-0.7710000E-01 -0.0000000E+00
-0.7600000E-01 -0.0000000E+00
-0.7490000E-01  0.0000000E+00
-0.7380000E-01  0.1713903E-37
-0.7270000E-01  0.7123212E-37
-0.7160000E-01  0.2016132E-36
-0.7050000E-01  0.2899282E-36
-0.6940000E-01 -0.6389168E-37
-0.6830000E-01 -0.1530644E-35
-0.6720000E-01 -0.4300491E-35
-0.6610000E-01 -0.6324018E-35
-0.6500000E-01 -0.1067942E-35
-0.6390000E-01  0.2179984E-34
-0.6280000E-01  0.6644583E-34
-0.6170000E-01  0.1067598E-33
-0.6060000E-01  0.5715368E-34
-0.5950000E-01 -0.2221502E-33
-0.5840000E-01 -0.8139794E-33
-0.5730000E-01 -0.1473042E-32
-0.5620000E-01 -0.1282628E-32
-0.5510000E-01  0.1372778E-32
-0.5400000E-01  0.7817239E-32
-0.5290000E-01  0.1649131E-31
-0.5180000E-01  0.1937504E-31
-0.5070000E-01  0.6291048E-33
-0.4960000E-01 -0.5646689E-31
-0.4850000E-01 -0.1484533E-30
-0.4740000E-01 -0.2191659E-30
-0.4630000E-01 -0.1380009E-30
-0.4520000E-01  0.2647575E-30
-0.4410000E-01  0.1053835E-29
-0.4300000E-01  0.1933812E-29
-0.4190000E-01  0.2010724E-29
-0.4080000E-01 -0.1223250E-30
-0.3970000E-01 -0.5574758E-29
-0.3860000E-01 -0.1344799E-28
-0.3750000E-01 -0.1879898E-28
-0.3640000E-01 -0.1203596E-28
-0.3530000E-01  0.1756417E-28
-0.3420000E-01  0.7218683E-28
-0.3310000E-01  0.1313053E-27
-0.3200000E-01  0.1414757E-27
-0.3090000E-01  0.2563678E-28
-0.2980000E-01 -0.2720534E-27
-0.2870000E-01 -0.7045186E-27
-0.2760000E-01 -0.1035916E-26
-0.2650000E-01 -0.8281359E-27
-0.2540000E-01  0.4004225E-27
-0.2430000E-01  0.2786222E-26
-0.2320000E-01  0.5588311E-26
-0.2210000E-01  0.6826257E-26
-0.2100000E-01  0.3601205E-26
-0.1990000E-01 -0.6424111E-26
-0.1880000E-01 -0.2240239E-25
-0.1770000E-01 -0.3754868E-25
-0.1660000E-01 -0.3843993E-25
-0.1550000E-01 -0.9080648E-26
-0.1440000E-01  0.5874111E-25
-0.1330000E-01  0.1509001E-24
-0.1220000E-01  0.2197173E-24
-0.1110000E-01  0.1882355E-24
-0.1000000E-01 -0.1851357E-25
-0.8900000E-02 -0.4140304E-24
-0.7800000E-02 -0.8820758E-24
-0.6700000E-02 -0.1143379E-23
-0.5600000E-02 -0.8138632E-24
-0.4500000E-02  0.4075979E-24
-0.3400000E-02  0.2446595E-23
-0.2300000E-02  0.4578291E-23
-0.1200000E-02  0.5383146E-23
-0.1000000E-03  0.3157668E-23
 0.1000000E-02 -0.3134736E-23
 0.2100000E-02 -0.1259855E-22
 0.3200000E-02 -0.2145029E-22
 0.4300000E-02 -0.2327049E-22
 0.5400000E-02 -0.1123065E-22
 0.6500000E-02  0.1768980E-22
 0.7600000E-02  0.5780265E-22
 0.8700000E-02  0.9184978E-22
 0.9800000E-02  0.9354522E-22
 0.1090000E-01  0.3777542E-22
 0.1200000E-01 -0.8263774E-22
 0.1310000E-01 -0.2396676E-21
 0.1420000E-01 -0.3628409E-21
 0.1530000E-01 -0.3533788E-21
 0.1640000E-01 -0.1253230E-21
 0.1750000E-01  0.3337452E-21
 0.1860000E-01  0.9065680E-21
 0.1970000E-01  0.1331492E-20
 0.2080000E-01  0.1264222E-20
 0.2190000E-01  0.4271797E-21
 0.2300000E-01 -0.1187530E-20
 0.2410000E-01 -0.3147506E-20
 0.2520000E-01 -0.4559977E-20
 0.2630000E-01 -0.4302575E-20
 0.2740000E-01 -0.1519226E-20
 0.2850000E-01  0.3747408E-20
 0.2960000E-01  0.1006472E-19
 0.3070000E-01  0.1461230E-19
 0.3180000E-01  0.1394695E-19
 0.3290000E-01  0.5523480E-20
 0.3400000E-01 -0.1045366E-19
 0.3510000E-01 -0.2967448E-19
 0.3620000E-01 -0.4384713E-19
 0.3730000E-01 -0.4299018E-19
 0.3840000E-01 -0.1977237E-19
 0.3950000E-01  0.2536297E-19
 0.4060000E-01  0.8057587E-19
 0.4170000E-01  0.1231075E-18
 0.4280000E-01  0.1255569E-18
 0.4390000E-01  0.6746375E-19
 0.4500000E-01 -0.5123064E-19
 0.4610000E-01 -0.2007699E-18
 0.4720000E-01 -0.3227372E-18
 0.4830000E-01 -0.3458620E-18
 0.4940000E-01 -0.2150385E-18
 0.5050000E-01  0.7503054E-19
 0.5160000E-01  0.4560199E-18
 0.5270000E-01  0.7876288E-18
 0.5380000E-01  0.8943243E-18
 0.5490000E-01  0.6337494E-18
 0.5600000E-01 -0.2318117E-19
 0.5710000E-01 -0.9338361E-18
 0.5820000E-01 -0.1782959E-17
 0.5930000E-01 -0.2161628E-17
 0.6040000E-01 -0.1719283E-17
 0.6150000E-01 -0.3454238E-18
 0.6260000E-01  0.1691959E-17
 0.6370000E-01  0.3730246E-17
 0.6480000E-01  0.4869068E-17
 0.6590000E-01  0.4289376E-17
 0.6700000E-01  0.1646344E-17
 0.6810000E-01 -0.2615663E-17
 0.6920000E-01 -0.7193340E-17
 0.7030000E-01 -0.1021213E-16
 0.7140000E-01 -0.9860111E-17
 0.7250000E-01 -0.5198893E-17
 0.7360000E-01  0.3149807E-17
 0.7470000E-01  0.1278271E-16
 0.7580000E-01  0.1999981E-16
 0.7690000E-01  0.2100012E-16
 0.7800000E-01  0.1348355E-16
 0.7910000E-01 -0.1914430E-17
 0.8020000E-01 -0.2102488E-16
 0.8130000E-01 -0.3688695E-16
 0.8240000E-01 -0.4189821E-16
 0.8350000E-01 -0.3085614E-16
 0.8460000E-01 -0.3843718E-17
 0.8570000E-01  0.3231450E-16
 0.8680000E-01  0.6504394E-16
 0.8790000E-01  0.7971543E-16
 0.8900000E-01  0.6522353E-16
 0.9010000E-01  0.1960776E-16
 0.9120000E-01 -0.4663570E-16
 0.9230000E-01 -0.1115597E-15
 0.9340000E-01 -0.1478182E-15
 0.9450000E-01 -0.1325758E-15
 0.9560000E-01 -0.5817098E-16
 0.9670000E-01  0.6068721E-16
 0.9780000E-01  0.1870543E-15
 0.9890000E-01  0.2710485E-15
 0.1000000E+00  0.2668422E-15
 0.1011000E+00  0.1523663E-15
 0.1022000E+00 -0.5559018E-16
 0.1033000E+00 -0.2981394E-15
 0.1044000E+00 -0.4871444E-15
 0.1055000E+00 -0.5329551E-15
 0.1066000E+00 -0.3795912E-15
 0.1077000E+00 -0.3521735E-16
 0.1088000E+00  0.4152153E-15
 0.1099000E+00  0.8242924E-15
 0.1110000E+00  0.1024080E-14
 0.1121000E+00  0.8857424E-15
 0.1132000E+00  0.3778477E-15
 0.1143000E+00 -0.3992373E-15
 0.1154000E+00 -0.1221155E-14
 0.1165000E+00 -0.1795628E-14
 0.1176000E+00 -0.1855847E-14
 0.1187000E+00 -0.1263972E-14
 0.1198000E+00 -0.8837850E-16
 0.1209000E+00  0.1379016E-14
 0.1220000E+00  0.2683181E-14
 0.1231000E+00  0.3336682E-14
 0.1242000E+00  0.2986117E-14
 0.1253000E+00  0.1560611E-14
 0.1264000E+00 -0.6538764E-15
 0.1275000E+00 -0.3053267E-14
 0.1286000E+00 -0.4871486E-14
 0.1297000E+00 -0.5417045E-14
 0.1308000E+00 -0.4318900E-14
 0.1319000E+00 -0.1696809E-14
 0.1330000E+00  0.1813576E-14
 0.1341000E+00  0.5208576E-14
 0.1352000E+00  0.7407407E-14
 0.1363000E+00  0.7602076E-14
 0.1374000E+00  0.5551434E-14
 0.1385000E+00  0.1711421E-14
 0.1396000E+00 -0.2860117E-14
 0.1407000E+00 -0.6811825E-14
 0.1418000E+00 -0.8931000E-14
 0.1429000E+00 -0.8556985E-14
 0.1440000E+00 -0.5826788E-14
 0.1451000E+00 -0.1651413E-14
 0.1462000E+00  0.2588749E-14
 0.1473000E+00  0.5537630E-14
 0.1484000E+00  0.6374561E-14
 0.1495000E+00  0.5147235E-14
 0.1506000E+00  0.2779136E-14
 0.1517000E+00  0.7140201E-15
 0.1528000E+00  0.2982064E-15
 0.1539000E+00  0.2118703E-14
 0.1550000E+00  0.5564498E-14
 0.1561000E+00  0.8831736E-14
 0.1572000E+00  0.9455103E-14
 0.1583000E+00  0.5256190E-14
 0.1594000E+00 -0.4581891E-14
 0.1605000E+00 -0.1870758E-13
 0.1616000E+00 -0.3343151E-13
 0.1627000E+00 -0.4340282E-13
 0.1638000E+00 -0.4307656E-13
 0.1649000E+00 -0.2863031E-13
 0.1660000E+00  0.2297137E-15
 0.1671000E+00  0.3919836E-13
 0.1682000E+00  0.7953442E-13
 0.1693000E+00  0.1096488E-12
 0.1704000E+00  0.1179024E-12
 0.1715000E+00  0.9599937E-13
 0.1726000E+00  0.4209646E-13
 0.1737000E+00 -0.3729865E-13
 0.1748000E+00 -0.1273577E-12
 0.1759000E+00 -0.2071839E-12
 0.1770000E+00 -0.2540339E-12
 0.1781000E+00 -0.2487272E-12
 0.1792000E+00 -0.1810784E-12
 0.1803000E+00 -0.5404611E-13
 0.1814000E+00  0.1145564E-12
 0.1825000E+00  0.2935262E-12
 0.1836000E+00  0.4430450E-12
 0.1847000E+00  0.5222013E-12
 0.1858000E+00  0.4980548E-12
 0.1869000E+00  0.3545482E-12
 0.1880000E+00  0.9933921E-13
 0.1891000E+00 -0.2332667E-12
 0.1902000E+00 -0.5846365E-12
 0.1913000E+00 -0.8799047E-12
 0.1924000E+00 -0.1041262E-11
 0.1935000E+00 -0.1004617E-11
 0.1946000E+00 -0.7366862E-12
 0.1957000E+00 -0.2487943E-12
 0.1968000E+00  0.3963998E-12
 0.1979000E+00  0.1088308E-11
 0.1990000E+00  0.1683333E-11
 0.2001000E+00  0.2030315E-11
 0.2012000E+00  0.2002867E-11
 0.2023000E+00  0.1532554E-11
 0.2034000E+00  0.6354798E-12
 0.2045000E+00 -0.5751053E-12
 0.2056000E+00 -0.1895680E-11
 0.2067000E+00 -0.3060800E-11
 0.2078000E+00 -0.3790305E-11
 0.2089000E+00 -0.3847993E-11
 0.2100000E+00 -0.3100574E-11
 0.2111000E+00 -0.1563899E-11
 0.2122000E+00  0.5756651E-12
 0.2133000E+00  0.2973117E-11
 0.2144000E+00  0.5172305E-11
 0.2155000E+00  0.6684026E-11
 0.2166000E+00  0.7082614E-11
 0.2177000E+00  0.6103479E-11
 0.2188000E+00  0.3721656E-11
 0.2199000E+00  0.1928394E-12
 0.2210000E+00 -0.3956359E-11
 0.2221000E+00 -0.7993745E-11
 0.2232000E+00 -0.1109697E-10
 0.2243000E+00 -0.1250312E-10
 0.2254000E+00 -0.1166797E-10
 0.2265000E+00 -0.8405283E-11
 0.2276000E+00 -0.2976560E-11
 0.2287000E+00  0.3893213E-11
 0.2298000E+00  0.1108739E-10
 0.2309000E+00  0.1725611E-10
 0.2320000E+00  0.2104353E-10
 0.2331000E+00  0.2135038E-10
 0.2342000E+00  0.1758607E-10
 0.2353000E+00  0.9860017E-11
 0.2364000E+00 -0.9345481E-12
 0.2375000E+00 -0.1317697E-10
 0.2386000E+00 -0.2472596E-10
 0.2397000E+00 -0.3325891E-10
 0.2408000E+00 -0.3669669E-10
 0.2419000E+00 -0.3364290E-10
 0.2430000E+00 -0.2375302E-10
 0.2441000E+00 -0.7950546E-11
 0.2452000E+00  0.1157427E-10
 0.2463000E+00  0.3161326E-10
 0.2474000E+00  0.4842182E-10
 0.2485000E+00  0.5836984E-10
 0.2496000E+00  0.5865706E-10
 0.2507000E+00  0.4796129E-10
 0.2518000E+00  0.2688401E-10
 0.2529000E+00 -0.1919190E-11
 0.2540000E+00 -0.3398831E-10
 0.2551000E+00 -0.6368777E-10
 0.2562000E+00 -0.8513903E-10
 0.2573000E+00 -0.9331362E-10
 0.2584000E+00 -0.8509477E-10
 0.2595000E+00 -0.6009879E-10
 0.2606000E+00 -0.2106907E-10
 0.2617000E+00  0.2628385E-10
 0.2628000E+00  0.7403011E-10
 0.2639000E+00  0.1132802E-09
 0.2650000E+00  0.1357712E-09
 0.2661000E+00  0.1355101E-09
 0.2672000E+00  0.1101604E-09
 0.2683000E+00  0.6187463E-10
 0.2694000E+00 -0.2649605E-11
 0.2705000E+00 -0.7298515E-10
 0.2716000E+00 -0.1365925E-09
 0.2727000E+00 -0.1810042E-09
 0.2738000E+00 -0.1962046E-09
 0.2749000E+00 -0.1767562E-09
 0.2760000E+00 -0.1232333E-09
 0.2771000E+00 -0.4262222E-10
 0.2782000E+00  0.5247707E-10
 0.2793000E+00  0.1457855E-09
 0.2804000E+00  0.2201224E-09
 0.2815000E+00  0.2605463E-09
 0.2826000E+00  0.2572744E-09
 0.2837000E+00  0.2078103E-09
 0.2848000E+00  0.1178310E-09
 0.2859000E+00  0.6107532E-12
 0.2870000E+00 -0.1249691E-09
 0.2881000E+00 -0.2375042E-09
 0.2892000E+00 -0.3167108E-09
 0.2903000E+00 -0.3469850E-09
 0.2914000E+00 -0.3202479E-09
 0.2925000E+00 -0.2375771E-09
 0.2936000E+00 -0.1093461E-09
 0.2947000E+00  0.4614480E-10
 0.2958000E+00  0.2053148E-09
 0.2969000E+00  0.3427969E-09
 0.2980000E+00  0.4352465E-09
 0.2991000E+00  0.4649099E-09
 0.3002000E+00  0.4224676E-09
 0.3013000E+00  0.3087833E-09
 0.3024000E+00  0.1353427E-09
 0.3035000E+00 -0.7668574E-10
 0.3046000E+00 -0.2986930E-09
 0.3057000E+00 -0.4979704E-09
 0.3068000E+00 -0.6418361E-09
 0.3079000E+00 -0.7021274E-09
 0.3090000E+00 -0.6595600E-09
 0.3101000E+00 -0.5073988E-09
 0.3112000E+00 -0.2538900E-09
 0.3123000E+00  0.7702505E-10
 0.3134000E+00  0.4470342E-09
 0.3145000E+00  0.8068985E-09
 0.3156000E+00  0.1101810E-08
 0.3167000E+00  0.1278153E-08
 0.3178000E+00  0.1290919E-08
 0.3189000E+00  0.1110839E-08
 0.3200000E+00  0.7303050E-09
 0.3211000E+00  0.1672159E-09
 0.3222000E+00 -0.5338547E-09
 0.3233000E+00 -0.1303500E-08
 0.3244000E+00 -0.2052333E-08
 0.3255000E+00 -0.2678549E-08
 0.3266000E+00 -0.3077693E-08
 0.3277000E+00 -0.3153898E-08
 0.3288000E+00 -0.2831800E-08
 0.3299000E+00 -0.2068184E-08
 0.3310000E+00 -0.8623440E-09
 0.3321000E+00  0.7359376E-09
 0.3332000E+00  0.2621920E-08
 0.3343000E+00  0.4636024E-08
 0.3354000E+00  0.6569411E-08
 0.3365000E+00  0.8175518E-08
 0.3376000E+00  0.9187528E-08
 0.3387000E+00  0.9341103E-08
 0.3398000E+00  0.8401073E-08
 0.3409000E+00  0.6190207E-08
 0.3420000E+00  0.2617797E-08
 0.3431000E+00 -0.2294327E-08
 0.3442000E+00 -0.8390568E-08
 0.3453000E+00 -0.1536687E-07
 0.3464000E+00 -0.2276359E-07
 0.3475000E+00 -0.2996608E-07
 0.3486000E+00 -0.3621189E-07
 0.3497000E+00 -0.4060242E-07
 0.3508000E+00 -0.4211559E-07
 0.3519000E+00 -0.3961518E-07
 0.3530000E+00 -0.3185140E-07
 0.3541000E+00 -0.1744719E-07
 0.3552000E+00  0.5135578E-08
 0.3563000E+00  0.3765503E-07
 0.3574000E+00  0.8217708E-07
 0.3585000E+00  0.1411946E-06
 0.3596000E+00  0.2177792E-06
 0.3607000E+00  0.3157633E-06
 0.3618000E+00  0.4399538E-06
 0.3629000E+00  0.5963735E-06
 0.3640000E+00  0.7925328E-06
 0.3651000E+00  0.1037734E-05
 0.3662000E+00  0.1343418E-05
 0.3673000E+00  0.1723558E-05
 0.3684000E+00  0.2195128E-05
 0.3695000E+00  0.2778649E-05
 0.3706000E+00  0.3498840E-05
 0.3717000E+00  0.4385399E-05
 0.3728000E+00  0.5473907E-05
 0.3739000E+00  0.6806893E-05
 0.3750000E+00  0.8435054E-05
 0.3761000E+00  0.1041863E-04
 0.3772000E+00  0.1282897E-04
 0.3783000E+00  0.1575022E-04
 0.3794000E+00  0.1928128E-04
 0.3805000E+00  0.2353783E-04
 0.3816000E+00  0.2865468E-04
 0.3827000E+00  0.3478823E-04
 0.3838000E+00  0.4211926E-04
 0.3849000E+00  0.5085583E-04
 0.3860000E+00  0.6123651E-04
 0.3871000E+00  0.7353375E-04
 0.3882000E+00  0.8805756E-04
 0.3893000E+00  0.1051591E-03
 0.3904000E+00  0.1252349E-03
 0.3915000E+00  0.1487302E-03
 0.3926000E+00  0.1761435E-03
 0.3937000E+00  0.2080299E-03
 0.3948000E+00  0.2450047E-03
 0.3959000E+00  0.2877469E-03
 0.3970000E+00  0.3370016E-03
 0.3981000E+00  0.3935823E-03
 0.3992000E+00  0.4583719E-03
 0.4003000E+00  0.5323236E-03
 0.4014000E+00  0.6164598E-03
 0.4025000E+00  0.7118698E-03
 0.4036000E+00  0.8197063E-03
 0.4047000E+00  0.9411802E-03
 0.4058000E+00  0.1077553E-02
 0.4069000E+00  0.1230127E-02
 0.4080000E+00  0.1400235E-02
 0.4091000E+00  0.1589223E-02
 0.4102000E+00  0.1798438E-02
 0.4113000E+00  0.2029204E-02
 0.4124000E+00  0.2282800E-02
 0.4135000E+00  0.2560439E-02
 0.4146000E+00  0.2863234E-02
 0.4157000E+00  0.3192173E-02
 0.4168000E+00  0.3548081E-02
 0.4179000E+00  0.3931589E-02
 0.4190000E+00  0.4343095E-02
 0.4201000E+00  0.4782726E-02
 0.4212000E+00  0.5250299E-02
 0.4223000E+00  0.5745283E-02
 0.4234000E+00  0.6266763E-02
 0.4245000E+00  0.6813396E-02
 0.4256000E+00  0.7383388E-02
 0.4267000E+00  0.7974454E-02
 0.4278000E+00  0.8583796E-02
 0.4289000E+00  0.9208081E-02
 0.4300000E+00  0.9843429E-02
 0.4311000E+00  0.1048540E-01
 0.4322000E+00  0.1112899E-01
 0.4333000E+00  0.1176868E-01
 0.4344000E+00  0.1239838E-01
 0.4355000E+00  0.1301155E-01
 0.4366000E+00  0.1360118E-01
 0.4377000E+00  0.1415986E-01
 0.4388000E+00  0.1467984E-01
 0.4399000E+00  0.1515315E-01
 0.4410000E+00  0.1557161E-01
 0.4421000E+00  0.1592700E-01
 0.4432000E+00  0.1621114E-01
 0.4443000E+00  0.1641597E-01
 0.4454000E+00  0.1653375E-01
 0.4465000E+00  0.1655711E-01
 0.4476000E+00  0.1647921E-01
 0.4487000E+00  0.1629390E-01
 0.4498000E+00  0.1599578E-01
 0.4509000E+00  0.1558039E-01
 0.4520000E+00  0.1504428E-01
 0.4531000E+00  0.1438514E-01
 0.4542000E+00  0.1360189E-01
 0.4553000E+00  0.1269476E-01
 0.4564000E+00  0.1166538E-01
 0.4575000E+00  0.1051676E-01
 0.4586000E+00  0.9253395E-02
 0.4597000E+00  0.7881211E-02
 0.4608000E+00  0.6407574E-02
 0.4619000E+00  0.4841242E-02
 0.4630000E+00  0.3192291E-02
 0.4641000E+00  0.1472036E-02
 0.4652000E+00 -0.3070863E-03
 0.4663000E+00 -0.2131651E-02
 0.4674000E+00 -0.3987395E-02
 0.4685000E+00 -0.5859384E-02
 0.4696000E+00 -0.7732200E-02
 0.4707000E+00 -0.9590131E-02
 0.4718000E+00 -0.1141738E-01
 0.4729000E+00 -0.1319826E-01
 0.4740000E+00 -0.1491741E-01
 0.4751000E+00 -0.1656002E-01
 0.4762000E+00 -0.1811197E-01
 0.4773000E+00 -0.1956010E-01
 0.4784000E+00 -0.2089231E-01
 0.4795000E+00 -0.2209778E-01
 0.4806000E+00 -0.2316705E-01
 0.4817000E+00 -0.2409219E-01
 0.4828000E+00 -0.2486687E-01
 0.4839000E+00 -0.2548642E-01
 0.4850000E+00 -0.2594788E-01
 0.4861000E+00 -0.2625002E-01
 0.4872000E+00 -0.2639330E-01
 0.4883000E+00 -0.2637987E-01
 0.4894000E+00 -0.2621350E-01
 0.4905000E+00 -0.2589945E-01
 0.4916000E+00 -0.2544442E-01
 0.4927000E+00 -0.2485639E-01
 0.4938000E+00 -0.2414448E-01
 0.4949000E+00 -0.2331883E-01
 0.4960000E+00 -0.2239035E-01
 0.4971000E+00 -0.2137065E-01
 0.4982000E+00 -0.2027182E-01
 0.4993000E+00 -0.1910621E-01
 0.5004000E+00 -0.1788636E-01
 0.5015000E+00 -0.1662475E-01
 0.5026000E+00 -0.1533366E-01
 0.5037000E+00 -0.1402505E-01
 0.5048000E+00 -0.1271039E-01
 0.5059000E+00 -0.1140058E-01
 0.5070000E+00 -0.1010581E-01
 0.5081000E+00 -0.8835495E-02
 0.5092000E+00 -0.7598199E-02
 0.5103000E+00 -0.6401581E-02
 0.5114000E+00 -0.5252357E-02
 0.5125000E+00 -0.4156289E-02
 0.5136000E+00 -0.3118173E-02
 0.5147000E+00 -0.2141857E-02
 0.5158000E+00 -0.1230261E-02
 0.5169000E+00 -0.3854157E-03
 0.5180000E+00  0.3914925E-03
 0.5191000E+00  0.1100065E-02
 0.5202000E+00  0.1740629E-02
 0.5213000E+00  0.2314170E-02
 0.5224000E+00  0.2822262E-02
 0.5235000E+00  0.3266991E-02
 0.5246000E+00  0.3650885E-02
 0.5257000E+00  0.3976833E-02
 0.5268000E+00  0.4248023E-02
 0.5279000E+00  0.4467863E-02
 0.5290000E+00  0.4639923E-02
 0.5301000E+00  0.4767869E-02
 0.5312000E+00  0.4855413E-02
 0.5323000E+00  0.4906255E-02
 0.5334000E+00  0.4924046E-02
 0.5345000E+00  0.4912343E-02
 0.5356000E+00  0.4874579E-02
 0.5367000E+00  0.4814035E-02
 0.5378000E+00  0.4733817E-02
 0.5389000E+00  0.4636841E-02
 0.5400000E+00  0.4525822E-02
 0.5411000E+00  0.4403262E-02
 0.5422000E+00  0.4271454E-02
 0.5433000E+00  0.4132474E-02
 0.5444000E+00  0.3988193E-02
 0.5455000E+00  0.3840279E-02
 0.5466000E+00  0.3690206E-02
 0.5477000E+00  0.3539263E-02
 0.5488000E+00  0.3388570E-02
 0.5499000E+00  0.3239087E-02
 0.5510000E+00  0.3091628E-02
 0.5521000E+00  0.2946873E-02
 0.5532000E+00  0.2805387E-02
 0.5543000E+00  0.2667626E-02
 0.5554000E+00  0.2533959E-02
 0.5565000E+00  0.2404674E-02
 0.5576000E+00  0.2279994E-02
 0.5587000E+00  0.2160084E-02
 0.5598000E+00  0.2045059E-02
 0.5609000E+00  0.1934993E-02
 0.5620000E+00  0.1829925E-02
 0.5631000E+00  0.1729864E-02
 0.5642000E+00  0.1634795E-02
 0.5653000E+00  0.1544682E-02
 0.5664000E+00  0.1459473E-02
 0.5675000E+00  0.1379100E-02
 0.5686000E+00  0.1303481E-02
 0.5697000E+00  0.1232520E-02
 0.5708000E+00  0.1166107E-02
 0.5719000E+00  0.1104116E-02
 0.5730000E+00  0.1046407E-02
 0.5741000E+00  0.9928256E-03
 0.5752000E+00  0.9432028E-03
 0.5763000E+00  0.8973549E-03
 0.5774000E+00  0.8550853E-03
 0.5785000E+00  0.8161845E-03
 0.5796000E+00  0.7804316E-03
 0.5807000E+00  0.7475955E-03
 0.5818000E+00  0.7174377E-03
 0.5829000E+00  0.6897139E-03
 0.5840000E+00  0.6641774E-03
 0.5851000E+00  0.6405813E-03
 0.5862000E+00  0.6186817E-03
 0.5873000E+00  0.5982397E-03
 0.5884000E+00  0.5790255E-03
 0.5895000E+00  0.5608206E-03
 0.5906000E+00  0.5434214E-03
 0.5917000E+00  0.5266427E-03
 0.5928000E+00  0.5103211E-03
 0.5939000E+00  0.4943170E-03
 0.5950000E+00  0.4785172E-03
 0.5961000E+00  0.4628361E-03
 0.5972000E+00  0.4472159E-03
 0.5983000E+00  0.4316259E-03
 0.5994000E+00  0.4160618E-03
 0.6005000E+00  0.4005437E-03
 0.6016000E+00  0.3851138E-03
 0.6027000E+00  0.3698341E-03
 0.6038000E+00  0.3547835E-03
 0.6049000E+00  0.3400554E-03
 0.6060000E+00  0.3257552E-03
 0.6071000E+00  0.3119970E-03
 0.6082000E+00  0.2989008E-03
 0.6093000E+00  0.2865889E-03
 0.6104000E+00  0.2751817E-03
 0.6115000E+00  0.2647933E-03
 0.6126000E+00  0.2555271E-03
 0.6137000E+00  0.2474715E-03
 0.6148000E+00  0.2406963E-03
 0.6159000E+00  0.2352504E-03
 0.6170000E+00  0.2311599E-03
 0.6181000E+00  0.2284269E-03
 0.6192000E+00  0.2270296E-03
 0.6203000E+00  0.2269223E-03
 0.6214000E+00  0.2280357E-03
 0.6225000E+00  0.2302784E-03
 0.6236000E+00  0.2335379E-03
 0.6247000E+00  0.2376836E-03
 0.6258000E+00  0.2425691E-03
 0.6269000E+00  0.2480365E-03
 0.6280000E+00  0.2539198E-03
 0.6291000E+00  0.2600496E-03
 0.6302000E+00  0.2662573E-03
 0.6313000E+00  0.2723792E-03
 0.6324000E+00  0.2782611E-03
 0.6335000E+00  0.2837620E-03
 0.6346000E+00  0.2887578E-03
 0.6357000E+00  0.2931450E-03
 0.6368000E+00  0.2968430E-03
 0.6379000E+00  0.2997962E-03
 0.6390000E+00  0.3019750E-03
 0.6401000E+00  0.3033758E-03
 0.6412000E+00  0.3040197E-03
 0.6423000E+00  0.3039506E-03
 0.6434000E+00  0.3032327E-03
 0.6445000E+00  0.3019474E-03
 0.6456000E+00  0.3001897E-03
 0.6467000E+00  0.2980652E-03
 0.6478000E+00  0.2956855E-03
 0.6489000E+00  0.2931649E-03
 0.6500000E+00  0.2906155E-03
 0.6511000E+00  0.2881431E-03
 0.6522000E+00  0.2858429E-03
 0.6533000E+00  0.2837954E-03
 0.6544000E+00  0.2820626E-03
 0.6555000E+00  0.2806859E-03
 0.6566000E+00  0.2796836E-03
 0.6577000E+00  0.2790503E-03
 0.6588000E+00  0.2787564E-03
 0.6599000E+00  0.2787480E-03
 0.6610000E+00  0.2789482E-03
 0.6621000E+00  0.2792585E-03
 0.6632000E+00  0.2795608E-03
 0.6643000E+00  0.2797204E-03
 0.6654000E+00  0.2795893E-03
 0.6665000E+00  0.2790097E-03
 0.6676000E+00  0.2778186E-03
 0.6687000E+00  0.2758505E-03
 0.6698000E+00  0.2729413E-03
 0.6709000E+00  0.2689301E-03
 0.6720000E+00  0.2636619E-03
 0.6731000E+00  0.2569882E-03
 0.6742000E+00  0.2487681E-03
 0.6753000E+00  0.2388692E-03
 0.6764000E+00  0.2271673E-03
 0.6775000E+00  0.2135466E-03
 0.6786000E+00  0.1978995E-03
 0.6797000E+00  0.1801256E-03
 0.6808000E+00  0.1601303E-03
 0.6819000E+00  0.1378234E-03
 0.6830000E+00  0.1131168E-03
 0.6841000E+00  0.8592217E-04
 0.6852000E+00  0.5614841E-04
 0.6863000E+00  0.2369917E-04
 0.6874000E+00 -0.1152953E-04
 0.6885000E+00 -0.4965132E-04
 0.6896000E+00 -0.9079118E-04
 0.6907000E+00 -0.1350866E-03
 0.6918000E+00 -0.1826884E-03
 0.6929000E+00 -0.2337609E-03
 0.6940000E+00 -0.2884816E-03
 0.6951000E+00 -0.3470396E-03
 0.6962000E+00 -0.4096342E-03
 0.6973000E+00 -0.4764702E-03
 0.6984000E+00 -0.5477538E-03
 0.6995000E+00 -0.6236855E-03
 0.7006000E+00 -0.7044524E-03
 0.7017000E+00 -0.7902184E-03
 0.7028000E+00 -0.8811144E-03
 0.7039000E+00 -0.9772261E-03
 0.7050000E+00 -0.1078582E-02
 0.7061000E+00 -0.1185140E-02
 0.7072000E+00 -0.1296771E-02
 0.7083000E+00 -0.1413245E-02
 0.7094000E+00 -0.1534217E-02
 0.7105000E+00 -0.1659204E-02
 0.7116000E+00 -0.1787576E-02
 0.7127000E+00 -0.1918539E-02
 0.7138000E+00 -0.2051122E-02
 0.7149000E+00 -0.2184169E-02
 0.7160000E+00 -0.2316331E-02
 0.7171000E+00 -0.2446066E-02
 0.7182000E+00 -0.2571638E-02
 0.7193000E+00 -0.2691124E-02
 0.7204000E+00 -0.2802428E-02
 0.7215000E+00 -0.2903297E-02
 0.7226000E+00 -0.2991342E-02
 0.7237000E+00 -0.3064071E-02
 0.7248000E+00 -0.3118924E-02
 0.7259000E+00 -0.3153310E-02
 0.7270000E+00 -0.3164656E-02
 0.7281000E+00 -0.3150448E-02
 0.7292000E+00 -0.3108292E-02
 0.7303000E+00 -0.3035958E-02
 0.7314000E+00 -0.2931440E-02
 0.7325000E+00 -0.2793005E-02
 0.7336000E+00 -0.2619247E-02
 0.7347000E+00 -0.2409129E-02
 0.7358000E+00 -0.2162027E-02
 0.7369000E+00 -0.1877758E-02
 0.7380000E+00 -0.1556606E-02
 0.7391000E+00 -0.1199334E-02
 0.7402000E+00 -0.8071805E-03
 0.7413000E+00 -0.3818541E-03
 0.7424000E+00  0.7449390E-04
 0.7435000E+00  0.5593051E-03
 0.7446000E+00  0.1069663E-02
 0.7457000E+00  0.1602353E-02
 0.7468000E+00  0.2153937E-02
 0.7479000E+00  0.2720829E-02
 0.7490000E+00  0.3299391E-02
 0.7501000E+00  0.3886022E-02
 0.7512000E+00  0.4477261E-02
 0.7523000E+00  0.5069879E-02
 0.7534000E+00  0.5660983E-02
 0.7545000E+00  0.6248096E-02
 0.7556000E+00  0.6829246E-02
 0.7567000E+00  0.7403027E-02
 0.7578000E+00  0.7968660E-02
 0.7589000E+00  0.8526029E-02
 0.7600000E+00  0.9075698E-02
 0.7611000E+00  0.9618915E-02
 0.7622000E+00  0.1015758E-01
 0.7633000E+00  0.1069422E-01
 0.7644000E+00  0.1123190E-01
 0.7655000E+00  0.1177413E-01
 0.7666000E+00  0.1232480E-01
 0.7677000E+00  0.1288800E-01
 0.7688000E+00  0.1346790E-01
 0.7699000E+00  0.1406858E-01
 0.7710000E+00  0.1469392E-01
 0.7721000E+00  0.1534733E-01
 0.7732000E+00  0.1603168E-01
 0.7743000E+00  0.1674908E-01
 0.7754000E+00  0.1750075E-01
 0.7765000E+00  0.1828683E-01
 0.7776000E+00  0.1910633E-01
 0.7787000E+00  0.1995695E-01
 0.7798000E+00  0.2083504E-01
 0.7809000E+00  0.2173554E-01
 0.7820000E+00  0.2265196E-01
 0.7831000E+00  0.2357640E-01
 0.7842000E+00  0.2449960E-01
 0.7853000E+00  0.2541100E-01
 0.7864000E+00  0.2629888E-01
 0.7875000E+00  0.2715051E-01
 0.7886000E+00  0.2795232E-01
 0.7897000E+00  0.2869010E-01
 0.7908000E+00  0.2934925E-01
 0.7919000E+00  0.2991501E-01
 0.7930000E+00  0.3037276E-01
 0.7941000E+00  0.3070820E-01
 0.7952000E+00  0.3090776E-01
 0.7963000E+00  0.3095874E-01
 0.7974000E+00  0.3084966E-01
 0.7985000E+00  0.3057046E-01
 0.7996000E+00  0.3011277E-01
 0.8007000E+00  0.2947005E-01
 0.8018000E+00  0.2863784E-01
 0.8029000E+00  0.2761382E-01
 0.8040000E+00  0.2639798E-01
 0.8051000E+00  0.2499265E-01
 0.8062000E+00  0.2340250E-01
 0.8073000E+00  0.2163458E-01
 0.8084000E+00  0.1969821E-01
 0.8095000E+00  0.1760489E-01
 0.8106000E+00  0.1536817E-01
 0.8117000E+00  0.1300348E-01
 0.8128000E+00  0.1052792E-01
 0.8139000E+00  0.7960010E-02
 0.8150000E+00  0.5319470E-02
 0.8161000E+00  0.2626917E-02
 0.8172000E+00 -0.9640941E-04
 0.8183000E+00 -0.2828941E-02
 0.8194000E+00 -0.5549076E-02
 0.8205000E+00 -0.8235474E-02
 0.8216000E+00 -0.1086734E-01
 0.8227000E+00 -0.1342467E-01
 0.8238000E+00 -0.1588853E-01
 0.8249000E+00 -0.1824129E-01
 0.8260000E+00 -0.2046678E-01
 0.8271000E+00 -0.2255051E-01
 0.8282000E+00 -0.2447982E-01
 0.8293000E+00 -0.2624394E-01
 0.8304000E+00 -0.2783412E-01
 0.8315000E+00 -0.2924367E-01
 0.8326000E+00 -0.3046795E-01
 0.8337000E+00 -0.3150437E-01
 0.8348000E+00 -0.3235235E-01
 0.8359000E+00 -0.3301324E-01
 0.8370000E+00 -0.3349022E-01
 0.8381000E+00 -0.3378818E-01
 0.8392000E+00 -0.3391360E-01
 0.8403000E+00 -0.3387437E-01
 0.8414000E+00 -0.3367965E-01
 0.8425000E+00 -0.3333965E-01
 0.8436000E+00 -0.3286550E-01
 0.8447000E+00 -0.3226904E-01
 0.8458000E+00 -0.3156262E-01
 0.8469000E+00 -0.3075893E-01
 0.8480000E+00 -0.2987084E-01
 0.8491000E+00 -0.2891119E-01
 0.8502000E+00 -0.2789270E-01
 0.8513000E+00 -0.2682774E-01
 0.8524000E+00 -0.2572827E-01
 0.8535000E+00 -0.2460567E-01
 0.8546000E+00 -0.2347068E-01
 0.8557000E+00 -0.2233328E-01
 0.8568000E+00 -0.2120261E-01
 0.8579000E+00 -0.2008696E-01
 0.8590000E+00 -0.1899367E-01
 0.8601000E+00 -0.1792917E-01
 0.8612000E+00 -0.1689890E-01
 0.8623000E+00 -0.1590738E-01
 0.8634000E+00 -0.1495819E-01
 0.8645000E+00 -0.1405400E-01
 0.8656000E+00 -0.1319664E-01
 0.8667000E+00 -0.1238710E-01
 0.8678000E+00 -0.1162565E-01
 0.8689000E+00 -0.1091185E-01
 0.8700000E+00 -0.1024464E-01
 0.8711000E+00 -0.9622429E-02
 0.8722000E+00 -0.9043140E-02
 0.8733000E+00 -0.8504325E-02
 0.8744000E+00 -0.8003221E-02
 0.8755000E+00 -0.7536837E-02
 0.8766000E+00 -0.7102029E-02
 0.8777000E+00 -0.6695569E-02
 0.8788000E+00 -0.6314212E-02
 0.8799000E+00 -0.5954761E-02
 0.8810000E+00 -0.5614118E-02
 0.8821000E+00 -0.5289339E-02
 0.8832000E+00 -0.4977669E-02
 0.8843000E+00 -0.4676585E-02
 0.8854000E+00 -0.4383819E-02
 0.8865000E+00 -0.4097381E-02
 0.8876000E+00 -0.3815573E-02
 0.8887000E+00 -0.3536994E-02
 0.8898000E+00 -0.3260544E-02
 0.8909000E+00 -0.2985411E-02
 0.8920000E+00 -0.2711062E-02
 0.8931000E+00 -0.2437226E-02
 0.8942000E+00 -0.2163865E-02
 0.8953000E+00 -0.1891156E-02
 0.8964000E+00 -0.1619459E-02
 0.8975000E+00 -0.1349291E-02
 0.8986000E+00 -0.1081295E-02
 0.8997000E+00 -0.8162133E-03
 0.9008000E+00 -0.5548566E-03
 0.9019000E+00 -0.2980788E-03
 0.9030000E+00 -0.4674994E-04
 0.9041000E+00  0.1982675E-03
 0.9052000E+00  0.4361391E-03
 0.9063000E+00  0.6660768E-03
 0.9074000E+00  0.8873539E-03
 0.9085000E+00  0.1099315E-02
 0.9096000E+00  0.1301387E-02
 0.9107000E+00  0.1493080E-02
 0.9118000E+00  0.1673991E-02
 0.9129000E+00  0.1843805E-02
 0.9140000E+00  0.2002289E-02
 0.9151000E+00  0.2149288E-02
 0.9162000E+00  0.2284719E-02
 0.9173000E+00  0.2408565E-02
 0.9184000E+00  0.2520864E-02
 0.9195000E+00  0.2621707E-02
 0.9206000E+00  0.2711225E-02
 0.9217000E+00  0.2789587E-02
 0.9228000E+00  0.2856993E-02
 0.9239000E+00  0.2913668E-02
 0.9250000E+00  0.2959856E-02
 0.9261000E+00  0.2995822E-02
 0.9272000E+00  0.3021843E-02
 0.9283000E+00  0.3038211E-02
 0.9294000E+00  0.3045236E-02
 0.9305000E+00  0.3043240E-02
 0.9316000E+00  0.3032567E-02
 0.9327000E+00  0.3013578E-02
 0.9338000E+00  0.2986663E-02
 0.9349000E+00  0.2952236E-02
 0.9360000E+00  0.2910741E-02
 0.9371000E+00  0.2862653E-02
 0.9382000E+00  0.2808484E-02
 0.9393000E+00  0.2748775E-02
 0.9404000E+00  0.2684103E-02
 0.9415000E+00  0.2615074E-02
 0.9426000E+00  0.2542323E-02
 0.9437000E+00  0.2466506E-02
 0.9448000E+00  0.2388295E-02
 0.9459000E+00  0.2308372E-02
 0.9470000E+00  0.2227423E-02
 0.9481000E+00  0.2146127E-02
 0.9492000E+00  0.2065155E-02
 0.9503000E+00  0.1985154E-02
 0.9514000E+00  0.1906744E-02
 0.9525000E+00  0.1830508E-02
 0.9536000E+00  0.1756981E-02
 0.9547000E+00  0.1686644E-02
 0.9558000E+00  0.1619918E-02
 0.9569000E+00  0.1557154E-02
 0.9580000E+00  0.1498637E-02
 0.9591000E+00  0.1444578E-02
 0.9602000E+00  0.1395116E-02
 0.9613000E+00  0.1350317E-02
 0.9624000E+00  0.1310182E-02
 0.9635000E+00  0.1274642E-02
 0.9646000E+00  0.1243570E-02
 0.9657000E+00  0.1216782E-02
 0.9668000E+00  0.1194048E-02
 0.9679000E+00  0.1175095E-02
 0.9690000E+00  0.1159614E-02
 0.9701000E+00  0.1147271E-02
 0.9712000E+00  0.1137712E-02
 0.9723000E+00  0.1130569E-02
 0.9734000E+00  0.1125474E-02
 0.9745000E+00  0.1122062E-02
 0.9756000E+00  0.1119980E-02
 0.9767000E+00  0.1118895E-02
 0.9778000E+00  0.1118494E-02
 0.9789000E+00  0.1118492E-02