 -0.119999997         0.00000000    
 -0.119000003         0.00000000    
 -0.118000001         0.00000000    
 -0.116999999         0.00000000    
 -0.115999997         0.00000000    
 -0.115000002         0.00000000    
 -0.114000000         0.00000000    
 -0.112999998         0.00000000    
 -0.112000003         0.00000000    
 -0.111000001         0.00000000    
 -0.109999999         0.00000000    
 -0.108999997         0.00000000    
 -0.108000003         0.00000000    
 -0.107000001         0.00000000    
 -0.105999999         0.00000000    
 -0.104999997         0.00000000    
 -0.104000002         0.00000000    
 -0.103000000         0.00000000    
 -0.101999998         0.00000000    
 -0.101000004         0.00000000    
 -0.100000001         0.00000000    
  -9.89999995E-02     0.00000000    
  -9.79999974E-02     0.00000000    
  -9.70000029E-02     0.00000000    
  -9.60000008E-02     0.00000000    
  -9.49999988E-02     0.00000000    
  -9.39999968E-02     0.00000000    
  -9.30000022E-02     0.00000000    
  -9.20000002E-02     0.00000000    
  -9.09999982E-02     0.00000000    
  -9.00000036E-02     0.00000000    
  -8.90000015E-02     0.00000000    
  -8.79999995E-02     0.00000000    
  -8.69999975E-02     0.00000000    
  -8.60000029E-02     0.00000000    
  -8.50000009E-02     0.00000000    
  -8.39999989E-02     0.00000000    
  -8.29999968E-02     0.00000000    
  -8.20000023E-02     0.00000000    
  -8.10000002E-02     0.00000000    
  -7.99999982E-02     0.00000000    
  -7.90000036E-02     0.00000000    
  -7.80000016E-02     0.00000000    
  -7.69999996E-02     0.00000000    
  -7.59999976E-02     0.00000000    
  -7.50000030E-02     0.00000000    
  -7.40000010E-02     0.00000000    
  -7.29999989E-02     0.00000000    
  -7.19999969E-02     0.00000000    
  -7.10000023E-02     0.00000000    
  -7.00000003E-02     0.00000000    
  -6.89999983E-02     0.00000000    
  -6.80000037E-02     0.00000000    
  -6.70000017E-02     0.00000000    
  -6.59999996E-02     0.00000000    
  -6.49999976E-02     0.00000000    
  -6.40000030E-02     0.00000000    
  -6.30000010E-02     0.00000000    
  -6.19999990E-02     0.00000000    
  -6.10000007E-02     0.00000000    
  -5.99999987E-02     0.00000000    
  -5.90000004E-02     0.00000000    
  -5.79999983E-02     0.00000000    
  -5.70000000E-02     0.00000000    
  -5.60000017E-02     0.00000000    
  -5.49999997E-02     0.00000000    
  -5.40000014E-02     0.00000000    
  -5.29999994E-02     0.00000000    
  -5.20000011E-02     0.00000000    
  -5.09999990E-02     0.00000000    
  -5.00000007E-02     0.00000000    
  -4.89999987E-02     0.00000000    
  -4.80000004E-02     0.00000000    
  -4.69999984E-02     0.00000000    
  -4.60000001E-02     0.00000000    
  -4.50000018E-02     0.00000000    
  -4.39999998E-02     0.00000000    
  -4.30000015E-02     0.00000000    
  -4.19999994E-02     0.00000000    
  -4.10000011E-02     0.00000000    
  -3.99999991E-02     0.00000000    
  -3.90000008E-02     0.00000000    
  -3.79999988E-02     0.00000000    
  -3.70000005E-02     0.00000000    
  -3.59999985E-02     0.00000000    
  -3.50000001E-02     0.00000000    
  -3.40000018E-02     0.00000000    
  -3.29999998E-02     0.00000000    
  -3.20000015E-02     0.00000000    
  -3.09999995E-02     0.00000000    
  -2.99999993E-02     0.00000000    
  -2.89999992E-02     0.00000000    
  -2.80000009E-02     0.00000000    
  -2.70000007E-02     0.00000000    
  -2.60000005E-02     0.00000000    
  -2.50000004E-02     0.00000000    
  -2.40000002E-02     0.00000000    
  -2.30000000E-02     0.00000000    
  -2.19999999E-02     0.00000000    
  -2.09999997E-02     0.00000000    
  -1.99999996E-02     0.00000000    
  -1.89999994E-02     0.00000000    
  -1.79999992E-02     0.00000000    
  -1.70000009E-02     0.00000000    
  -1.60000008E-02     0.00000000    
  -1.49999997E-02     0.00000000    
  -1.40000004E-02     0.00000000    
  -1.30000003E-02     0.00000000    
  -1.20000001E-02     0.00000000    
  -1.09999999E-02     0.00000000    
  -9.99999978E-03     0.00000000    
  -8.99999961E-03     0.00000000    
  -8.00000038E-03     0.00000000    
  -7.00000022E-03     0.00000000    
  -6.00000005E-03     0.00000000    
  -4.99999989E-03     0.00000000    
  -4.00000019E-03     0.00000000    
  -3.00000003E-03     0.00000000    
  -2.00000009E-03     0.00000000    
  -1.00000005E-03     0.00000000    
   0.00000000         0.00000000    
   1.00000005E-03     0.00000000    
   2.00000009E-03     0.00000000    
   3.00000003E-03     0.00000000    
   4.00000019E-03     0.00000000    
   4.99999989E-03     0.00000000    
   6.00000005E-03     0.00000000    
   7.00000022E-03     0.00000000    
   8.00000038E-03     0.00000000    
   8.99999961E-03     0.00000000    
   9.99999978E-03     0.00000000    
   1.09999999E-02     0.00000000    
   1.20000001E-02     0.00000000    
   1.30000003E-02     0.00000000    
   1.40000004E-02     0.00000000    
   1.49999997E-02     0.00000000    
   1.60000008E-02     0.00000000    
   1.70000009E-02     0.00000000    
   1.79999992E-02     0.00000000    
   1.89999994E-02     0.00000000    
   1.99999996E-02     0.00000000    
   2.09999997E-02     0.00000000    
   2.19999999E-02     0.00000000    
   2.30000000E-02     0.00000000    
   2.40000002E-02     0.00000000    
   2.50000004E-02     0.00000000    
   2.60000005E-02     0.00000000    
   2.70000007E-02     0.00000000    
   2.80000009E-02     0.00000000    
   2.89999992E-02     0.00000000    
   2.99999993E-02     0.00000000    
   3.09999995E-02     0.00000000    
   3.20000015E-02     0.00000000    
   3.29999998E-02     0.00000000    
   3.40000018E-02     0.00000000    
   3.50000001E-02     0.00000000    
   3.59999985E-02    -0.00000000    
   3.70000005E-02    -0.00000000    
   3.79999988E-02    -1.90566418E-38
   3.90000008E-02    -2.15981362E-38
   3.99999991E-02    -0.00000000    
   4.10000011E-02     2.26829836E-38
   4.19999994E-02     4.99934695E-38
   4.30000015E-02     6.99963269E-38
   4.39999998E-02     6.84556665E-38
   4.50000018E-02     5.23248658E-38
   4.60000001E-02    -0.00000000    
   4.69999984E-02    -1.23152835E-37
   4.80000004E-02    -3.22365775E-37
   4.89999987E-02    -5.64189532E-37
   5.00000007E-02    -7.25227604E-37
   5.09999990E-02    -5.99107110E-37
   5.20000011E-02     0.00000000    
   5.29999994E-02     1.15584765E-36
   5.40000014E-02     2.62877673E-36
   5.49999997E-02     3.83615593E-36
   5.60000017E-02     3.85939175E-36
   5.70000000E-02     1.72994667E-36
   5.79999983E-02    -3.06531245E-36
   5.90000004E-02    -9.94893390E-36
   5.99999987E-02    -1.67411044E-35
   6.10000007E-02    -1.96455570E-35
   6.19999990E-02    -1.41098711E-35
   6.30000010E-02     3.26012639E-36
   6.40000030E-02     3.20009310E-35
   6.49999976E-02     6.51993107E-35
   6.59999996E-02     8.84877479E-35
   6.70000017E-02     8.23090098E-35
   6.80000037E-02     2.85688893E-35
   6.89999983E-02    -7.87722584E-35
   7.00000003E-02    -2.22024044E-34
   7.10000023E-02    -3.52415824E-34
   7.19999969E-02    -3.93901407E-34
   7.29999989E-02    -2.63734418E-34
   7.40000010E-02     8.95488038E-35
   7.50000030E-02     6.38714544E-34
   7.59999976E-02     1.23910816E-33
   7.69999996E-02     1.62414859E-33
   7.80000016E-02     1.45962419E-33
   7.90000036E-02     4.67255561E-34
   7.99999982E-02    -1.40045936E-33
   8.10000002E-02    -3.78933167E-33
   8.20000023E-02    -5.86435507E-33
   8.29999968E-02    -6.41887506E-33
   8.39999989E-02    -4.23427722E-33
   8.50000009E-02     1.33379404E-33
   8.60000029E-02     9.69287148E-33
   8.69999975E-02     1.85524879E-32
   8.79999995E-02     2.40084568E-32
   8.90000015E-02     2.14535595E-32
   9.00000036E-02     7.35862770E-33
   9.09999982E-02    -1.84268555E-32
   9.20000002E-02    -5.06562187E-32
   9.30000022E-02    -7.80702398E-32
   9.39999968E-02    -8.52668514E-32
   9.49999988E-02    -5.75594327E-32
   9.60000008E-02     1.18091566E-32
   9.70000029E-02     1.14185746E-31
   9.79999974E-02     2.21104704E-31
   9.89999995E-02     2.86663458E-31
  0.100000001         2.59181999E-31
  0.101000004         1.01661019E-31
  0.101999998        -1.83768535E-31
  0.103000000        -5.36533567E-31
  0.104000002        -8.34881321E-31
  0.104999997        -9.19360432E-31
  0.105999999        -6.45049751E-31
  0.107000001         4.67458897E-32
  0.108000003         1.05998905E-30
  0.108999997         2.11084593E-30
  0.109999999         2.76193382E-30
  0.111000001         2.54079060E-30
  0.112000003         1.12983843E-30
  0.112999998        -1.42269216E-30
  0.114000000        -4.55415927E-30
  0.115000002        -7.19514487E-30
  0.115999997        -8.00099609E-30
  0.116999999        -5.80684279E-30
  0.118000001        -2.07437772E-31
  0.119000003         7.93502472E-30
  0.119999997         1.63065359E-29
  0.120999999         2.14998285E-29
  0.122000001         1.99937874E-29
  0.123000003         9.59595498E-30
  0.123999998        -9.07586211E-30
  0.125000000        -3.16902113E-29
  0.126000002        -5.05000980E-29
  0.127000004        -5.62055089E-29
  0.128000006        -4.12208682E-29
  0.128999993        -3.52496601E-30
  0.129999995         5.03036682E-29
  0.130999997         1.04466087E-28
  0.131999999         1.36936929E-28
  0.133000001         1.26207309E-28
  0.134000003         6.03801126E-29
  0.135000005        -5.42996327E-29
  0.136000007        -1.89255105E-28
  0.136999995        -2.97089331E-28
  0.137999997        -3.24175104E-28
  0.138999999        -2.30408436E-28
  0.140000001        -1.05277221E-29
  0.141000003         2.91267413E-28
  0.142000005         5.81830129E-28
  0.143000007         7.39856099E-28
  0.143999994         6.55498153E-28
  0.144999996         2.79073966E-28
  0.145999998        -3.37991413E-28
  0.147000000        -1.02942872E-27
  0.148000002        -1.54247883E-27
  0.149000004        -1.61098917E-27
  0.150000006        -1.05847685E-27
  0.150999993         1.00782078E-28
  0.151999995         1.60432863E-27
  0.152999997         2.96536127E-27
  0.153999999         3.59469470E-27
  0.155000001         3.00338991E-27
  0.156000003         1.03040054E-27
  0.157000005        -1.98819757E-27
  0.158000007        -5.19469644E-27
  0.158999994        -7.38520486E-27
  0.159999996        -7.37743104E-27
  0.160999998        -4.48398322E-27
  0.162000000         1.06421332E-27
  0.163000003         7.92714768E-27
  0.164000005         1.38431253E-26
  0.165000007         1.62337806E-26
  0.165999994         1.31130392E-26
  0.166999996         4.03345313E-27
  0.167999998        -9.28898507E-27
  0.169000000        -2.30080435E-26
  0.170000002        -3.20141480E-26
  0.171000004        -3.15355683E-26
  0.172000006        -1.90610504E-26
  0.172999993         4.06879047E-27
  0.173999995         3.21058315E-26
  0.174999997         5.58719241E-26
  0.175999999         6.53105154E-26
  0.177000001         5.30588954E-26
  0.178000003         1.79476734E-26
  0.179000005        -3.29272637E-26
  0.180000007        -8.47235996E-26
  0.180999994        -1.18438578E-25
  0.181999996        -1.16989564E-25
  0.182999998        -7.21202647E-26
  0.184000000         1.02769633E-26
  0.185000002         1.08837475E-25
  0.186000004         1.90902318E-25
  0.187000006         2.21987061E-25
  0.187999994         1.78273258E-25
  0.188999996         5.81494025E-26
  0.189999998        -1.11786903E-25
  0.191000000        -2.79880084E-25
  0.192000002        -3.82756938E-25
  0.193000004        -3.66299722E-25
  0.194000006        -2.08199745E-25
  0.194999993         6.60066359E-26
  0.195999995         3.81006579E-25
  0.196999997         6.27982732E-25
  0.197999999         6.97336474E-25
  0.199000001         5.19535263E-25
  0.200000003         1.00758701E-25
  0.201000005        -4.61175136E-25
  0.202000007        -9.91176117E-25
  0.202999994        -1.28332602E-24
  0.203999996        -1.16971772E-24
  0.204999998        -5.91486625E-25
  0.206000000         3.53597213E-25
  0.207000002         1.40983988E-24
  0.208000004         2.21969129E-24
  0.209000006         2.42974208E-24
  0.209999993         1.81936272E-24
  0.210999995         4.10442628E-25
  0.211999997        -1.48555475E-24
  0.213000000        -3.31383979E-24
  0.214000002        -4.41940311E-24
  0.215000004        -4.25647493E-24
  0.216000006        -2.60364370E-24
  0.216999993         2.90665932E-25
  0.217999995         3.69820438E-24
  0.218999997         6.56730253E-24
  0.219999999         7.82352172E-24
  0.221000001         6.73681849E-24
  0.222000003         3.23872820E-24
  0.223000005        -1.93161191E-24
  0.224000007        -7.33614609E-24
  0.224999994        -1.12101899E-23
  0.225999996        -1.20153763E-23
  0.226999998        -9.01083942E-24
  0.228000000        -2.64405093E-24
  0.229000002         5.40929259E-24
  0.230000004         1.26325251E-23
  0.231000006         1.64197690E-23
  0.231999993         1.49877009E-23
  0.232999995         8.14840225E-24
  0.233999997        -2.35969182E-24
  0.234999999        -1.31815289E-23
  0.236000001        -2.02995210E-23
  0.237000003        -2.04031190E-23
  0.238000005        -1.22519336E-23
  0.238999993         2.46658149E-24
  0.239999995         1.91950937E-23
  0.240999997         3.16371057E-23
  0.241999999         3.37596969E-23
  0.243000001         2.21137544E-23
  0.244000003        -2.30547104E-24
  0.245000005        -3.34224557E-23
  0.246000007        -6.11484900E-23
  0.246999994        -7.41194774E-23
  0.247999996        -6.34761976E-23
  0.248999998        -2.65710599E-23
  0.250000000         3.07040757E-23
  0.250999987         9.40460029E-23
  0.252000004         1.43759285E-22
  0.252999991         1.60195827E-22
  0.254000008         1.30238992E-22
  0.254999995         5.28634657E-23
  0.256000012        -5.82284677E-23
  0.256999999        -1.76255356E-22
  0.257999986        -2.67456563E-22
  0.259000003        -3.00375110E-22
  0.259999990        -2.55823729E-22
  0.261000007        -1.34452329E-22
  0.261999995         4.08113087E-23
  0.263000011         2.28872177E-22
  0.263999999         3.80610922E-22
  0.264999986         4.52522927E-22
  0.266000003         4.19893797E-22
  0.266999990         2.85280427E-22
  0.268000007         7.91778807E-23
  0.268999994        -1.47961238E-22
  0.270000011        -3.40373791E-22
  0.270999998        -4.53875274E-22
  0.272000015        -4.69398340E-22
  0.273000002        -3.98251846E-22
  0.273999989        -2.76663339E-22
  0.275000006        -1.50828362E-22
  0.275999993        -5.73634091E-23
  0.277000010        -6.40392313E-24
  0.277999997         2.54202696E-23
  0.279000014         8.76414873E-23
  0.280000001         2.34618391E-22
  0.280999988         4.96165893E-22
  0.282000005         8.50463243E-22
  0.282999992         1.21089003E-21
  0.284000009         1.43573705E-21
  0.284999996         1.36322152E-21
  0.286000013         8.65532531E-22
  0.287000000        -9.26058205E-23
  0.287999988        -1.41019502E-21
  0.289000005        -2.83955009E-21
  0.289999992        -4.02049238E-21
  0.291000009        -4.55814968E-21
  0.291999996        -4.12924846E-21
  0.293000013        -2.59012807E-21
  0.294000000        -5.46585565E-23
  0.294999987         3.08568762E-21
  0.296000004         6.21417618E-21
  0.296999991         8.60888626E-21
  0.298000008         9.60576492E-21
  0.298999995         8.76518947E-21
  0.300000012         5.99821862E-21
  0.300999999         1.61699996E-21
  0.301999986        -3.70685845E-21
  0.303000003        -9.06723399E-21
  0.303999990        -1.34998421E-20
  0.305000007        -1.61644307E-20
  0.305999994        -1.64877937E-20
  0.307000011        -1.42376653E-20
  0.307999998        -9.52241112E-21
  0.308999985        -2.73739470E-21
  0.310000002         5.50417733E-21
  0.310999990         1.44175319E-20
  0.312000006         2.30492876E-20
  0.312999994         3.02484182E-20
  0.314000010         3.46501500E-20
  0.314999998         3.47391623E-20
  0.316000015         2.90539952E-20
  0.317000002         1.65586598E-20
  0.317999989        -2.85608845E-21
  0.319000006        -2.78543281E-20
  0.319999993        -5.52940448E-20
  0.321000010        -8.02210162E-20
  0.321999997        -9.63778957E-20
  0.323000014        -9.72861917E-20
  0.324000001        -7.78039428E-20
  0.324999988        -3.58877446E-20
  0.326000005         2.58588308E-20
  0.326999992         9.93377483E-20
  0.328000009         1.71249742E-19
  0.328999996         2.24788218E-19
  0.330000013         2.42698953E-19
  0.331000000         2.11310138E-19
  0.331999987         1.24788661E-19
  0.333000004        -1.13643283E-20
  0.333999991        -1.78627391E-19
  0.335000008        -3.46448987E-19
  0.335999995        -4.76352222E-19
  0.337000012        -5.28960185E-19
  0.338000000        -4.73015375E-19
  0.338999987        -2.94776358E-19
  0.340000004        -5.69060518E-21
  0.340999991         3.53877198E-19
  0.342000008         7.16732872E-19
  0.342999995         9.97764694E-19
  0.344000012         1.10938383E-18
  0.344999999         9.81616784E-19
  0.345999986         5.83406143E-19
  0.347000003        -5.95338430E-20
  0.347999990        -8.55440204E-19
  0.349000007        -1.65036532E-18
  0.349999994        -2.24795989E-18
  0.351000011        -2.44500672E-18
  0.351999998        -2.07876754E-18
  0.352999985        -1.07826136E-18
  0.354000002         4.91662766E-19
  0.354999989         2.40616790E-18
  0.356000006         4.28790040E-18
  0.356999993         5.65371331E-18
  0.358000010         6.00110932E-18
  0.358999997         4.92544778E-18
  0.360000014         2.24886544E-18
  0.361000001        -1.86667905E-18
  0.361999989        -6.85427705E-18
  0.363000005        -1.17549983E-17
  0.363999993        -1.53293095E-17
  0.365000010        -1.62699627E-17
  0.365999997        -1.34960440E-17
  0.367000014        -6.48252554E-18
  0.368000001         4.44214476E-18
  0.368999988         1.79102949E-17
  0.370000005         3.15180298E-17
  0.370999992         4.20723316E-17
  0.372000009         4.60968002E-17
  0.372999996         4.05550508E-17
  0.374000013         2.36887951E-17
  0.375000000        -4.18808162E-18
  0.375999987        -4.01333740E-17
  0.377000004        -7.84533959E-17
  0.377999991        -1.11165504E-16
  0.379000008        -1.29110625E-16
  0.379999995        -1.23653536E-16
  0.381000012        -8.87610193E-17
  0.381999999        -2.31065972E-17
  0.382999986         6.82520157E-17
  0.384000003         1.73108679E-16
  0.384999990         2.72678514E-16
  0.386000007         3.43750057E-16
  0.386999995         3.62396694E-16
  0.388000011         3.08886684E-16
  0.388999999         1.73079801E-16
  0.389999986        -4.06929451E-17
  0.391000003        -3.10430349E-16
  0.391999990        -5.96063544E-16
  0.393000007        -8.42697303E-16
  0.393999994        -9.87798918E-16
  0.395000011        -9.71915038E-16
  0.395999998        -7.51672443E-16
  0.397000015        -3.13032566E-16
  0.398000002         3.17799139E-16
  0.398999989         1.06860883E-15
  0.400000006         1.82304106E-15
  0.400999993         2.43170665E-15
  0.402000010         2.73273221E-15
  0.402999997         2.58015807E-15
  0.404000014         1.87667455E-15
  0.405000001         6.05475244E-16
  0.405999988        -1.14510384E-15
  0.407000005        -3.17068255E-15
  0.407999992        -5.15916969E-15
  0.409000009        -6.72156473E-15
  0.409999996        -7.44503421E-15
  0.411000013        -6.96390128E-15
  0.412000000        -5.03982571E-15
  0.412999988        -1.63873177E-15
  0.414000005         3.01035192E-15
  0.414999992         8.38956234E-15
  0.416000009         1.37122107E-14
  0.416999996         1.79959451E-14
  0.418000013         2.01888185E-14
  0.419000000         1.93386787E-14
  0.419999987         1.47865102E-14
  0.421000004         6.35584979E-15
  0.421999991        -5.49534817E-15
  0.423000008        -1.95952585E-14
  0.423999995        -3.40816107E-14
  0.425000012        -4.65480993E-14
  0.425999999        -5.43179495E-14
  0.426999986        -5.48285579E-14
  0.428000003        -4.60895529E-14
  0.428999990        -2.71558915E-14
  0.430000007         1.45755460E-15
  0.430999994         3.75006897E-14
  0.432000011         7.69285081E-14
  0.432999998         1.14116412E-13
  0.433999985         1.42379679E-13
  0.435000002         1.54785432E-13
  0.435999990         1.45197060E-13
  0.437000006         1.09442396E-13
  0.437999994         4.64534586E-14
  0.439000010        -4.08041182E-14
  0.439999998        -1.44802288E-13
  0.441000015        -2.53495521E-13
  0.442000002        -3.51064989E-13
  0.442999989        -4.19412552E-13
  0.444000006        -4.40355163E-13
  0.444999993        -3.98356288E-13
  0.446000010        -2.83516320E-13
  0.446999997        -9.44422017E-14
  0.448000014         1.59450171E-13
  0.449000001         4.56668503E-13
  0.449999988         7.63836260E-13
  0.451000005         1.03765770E-12
  0.451999992         1.22878812E-12
  0.453000009         1.28750461E-12
  0.453999996         1.17079241E-12
  0.455000013         8.50179356E-13
  0.456000000         3.19390808E-13
  0.456999987        -3.99285260E-13
  0.458000004        -1.25111401E-12
  0.458999991        -2.14862503E-12
  0.460000008        -2.97580081E-12
  0.460999995        -3.59721324E-12
  0.462000012        -3.87201295E-12
  0.463000000        -3.67200150E-12
  0.463999987        -2.90229884E-12
  0.465000004        -1.52242379E-12
  0.465999991         4.34920844E-13
  0.467000008         2.85039397E-12
  0.467999995         5.51288615E-12
  0.469000012         8.12530425E-12
  0.469999999         1.03230011E-11
  0.470999986         1.17053572E-11
  0.472000003         1.18794280E-11
  0.472999990         1.05128024E-11
  0.474000007         7.39104090E-12
  0.474999994         2.47347282E-12
  0.476000011        -4.06000667E-12
  0.476999998        -1.17789589E-11
  0.477999985        -1.99966883E-11
  0.479000002        -2.77948515E-11
  0.479999989        -3.40820601E-11
  0.481000006        -3.76868779E-11
  0.481999993        -3.74816081E-11
  0.483000010        -3.25287991E-11
  0.483999997        -2.22382408E-11
  0.485000014        -6.51834446E-12
  0.486000001         1.40968114E-11
  0.486999989         3.83644644E-11
  0.488000005         6.43130063E-11
  0.488999993         8.93001575E-11
  0.490000010         1.10159486E-10
  0.490999997         1.23437482E-10
  0.492000014         1.25714120E-10
  0.493000001         1.13989325E-10
  0.493999988         8.61074961E-11
  0.495000005         4.11826927E-11
  0.495999992        -2.00201297E-11
  0.497000009        -9.47965456E-11
  0.497999996        -1.78355136E-10
  0.499000013        -2.63854494E-10
  0.500000000        -3.42657847E-10
  0.500999987        -4.04823230E-10
  0.501999974        -4.39827647E-10
  0.503000021        -4.37501091E-10
  0.504000008        -3.89121790E-10
  0.504999995        -2.88601504E-10
  0.505999982        -1.33668202E-10
  0.507000029         7.30611058E-11
  0.508000016         3.23233884E-10
  0.509000003         6.02256633E-10
  0.509999990         8.89235297E-10
  0.510999978         1.15744581E-09
  0.512000024         1.37538847E-09
  0.513000011         1.50844115E-09
  0.513999999         1.52108437E-09
  0.514999986         1.37962619E-09
  0.515999973         1.05530829E-09
  0.517000020         5.27643040E-10
  0.518000007        -2.12199008E-10
  0.518999994        -1.15814347E-09
  0.519999981        -2.28629404E-09
  0.521000028        -3.55250851E-09
  0.522000015        -4.89059238E-09
  0.523000002        -6.21116847E-09
  0.523999989        -7.40121964E-09
  0.524999976        -8.32420000E-09
  0.526000023        -8.82052831E-09
  0.527000010        -8.70818351E-09
  0.527999997        -7.78302756E-09
  0.528999984        -5.81841952E-09
  0.529999971        -2.56362065E-09
  0.531000018         2.25955521E-09
  0.532000005         8.96240770E-09
  0.532999992         1.78978663E-08
  0.533999979         2.94724298E-08
  0.535000026         4.41619292E-08
  0.536000013         6.25316758E-08
  0.537000000         8.52612985E-08
  0.537999988         1.13174622E-07
  0.538999975         1.47274974E-07
  0.540000021         1.88786174E-07
  0.541000009         2.39199494E-07
  0.541999996         3.00327088E-07
  0.542999983         3.74362202E-07
  0.544000030         4.63946918E-07
  0.545000017         5.72247927E-07
  0.546000004         7.03041394E-07
  0.546999991         8.60808029E-07
  0.547999978         1.05083939E-06
  0.549000025         1.27935641E-06
  0.550000012         1.55364296E-06
  0.550999999         1.88219371E-06
  0.551999986         2.27488090E-06
  0.552999973         2.74313948E-06
  0.554000020         3.30017065E-06
  0.555000007         3.96117093E-06
  0.555999994         4.74357967E-06
  0.556999981         5.66735343E-06
  0.558000028         6.75525916E-06
  0.559000015         8.03319472E-06
  0.560000002         9.53052859E-06
  0.560999990         1.12804610E-05
  0.561999977         1.33204003E-05
  0.563000023         1.56923579E-05
  0.564000010         1.84433502E-05
  0.564999998         2.16258086E-05
  0.565999985         2.52979862E-05
  0.566999972         2.95243608E-05
  0.568000019         3.43760148E-05
  0.569000006         3.99309902E-05
  0.569999993         4.62746102E-05
  0.570999980         5.34997525E-05
  0.572000027         6.17070618E-05
  0.573000014         7.10050808E-05
  0.574000001         8.15102976E-05
  0.574999988         9.33470656E-05
  0.575999975         1.06647443E-04
  0.577000022         1.21550831E-04
  0.578000009         1.38203482E-04
  0.578999996         1.56757844E-04
  0.579999983         1.77371650E-04
  0.580999970         2.00206792E-04
  0.582000017         2.25428055E-04
  0.583000004         2.53201491E-04
  0.583999991         2.83692585E-04
  0.584999979         3.17064114E-04
  0.586000025         3.53473675E-04
  0.587000012         3.93071183E-04
  0.588000000         4.35995724E-04
  0.588999987         4.82372358E-04
  0.589999974         5.32308710E-04
  0.591000021         5.85890957E-04
  0.592000008         6.43180392E-04
  0.592999995         7.04208796E-04
  0.593999982         7.68974540E-04
  0.595000029         8.37438216E-04
  0.596000016         9.09518392E-04
  0.597000003         9.85087128E-04
  0.597999990         1.06396608E-03
  0.598999977         1.14592258E-03
  0.600000024         1.23066595E-03
  0.601000011         1.31784496E-03
  0.601999998         1.40704401E-03
  0.602999985         1.49778207E-03
  0.603999972         1.58951071E-03
  0.605000019         1.68161362E-03
  0.606000006         1.77340687E-03
  0.606999993         1.86414015E-03
  0.607999980         1.95299939E-03
  0.609000027         2.03910982E-03
  0.610000014         2.12154095E-03
  0.611000001         2.19931128E-03
  0.611999989         2.27139611E-03
  0.612999976         2.33673514E-03
  0.614000022         2.39424245E-03
  0.615000010         2.44281581E-03
  0.615999997         2.48134928E-03
  0.616999984         2.50874530E-03
  0.617999971         2.52392818E-03
  0.619000018         2.52585718E-03
  0.620000005         2.51354207E-03
  0.620999992         2.48605758E-03
  0.621999979         2.44255806E-03
  0.623000026         2.38229288E-03
  0.624000013         2.30462104E-03
  0.625000000         2.20902497E-03
  0.625999987         2.09512305E-03
  0.626999974         1.96268270E-03
  0.628000021         1.81163114E-03
  0.629000008         1.64206338E-03
  0.629999995         1.45425124E-03
  0.630999982         1.24864816E-03
  0.632000029         1.02589233E-03
  0.633000016         7.86807504E-04
  0.634000003         5.32401842E-04
  0.634999990         2.63863796E-04
  0.635999978        -1.74435227E-05
  0.637000024        -3.09991825E-04
  0.638000011        -6.12098665E-04
  0.638999999        -9.21941828E-04
  0.639999986        -1.23757520E-03
  0.640999973        -1.55694748E-03
  0.642000020        -1.87792059E-03
  0.643000007        -2.19829264E-03
  0.643999994        -2.51581916E-03
  0.644999981        -2.82823737E-03
  0.646000028        -3.13329138E-03
  0.647000015        -3.42875603E-03
  0.648000002        -3.71246156E-03
  0.648999989        -3.98231857E-03
  0.649999976        -4.23634145E-03
  0.651000023        -4.47266828E-03
  0.652000010        -4.68958495E-03
  0.652999997        -4.88554081E-03
  0.653999984        -5.05916728E-03
  0.654999971        -5.20929275E-03
  0.656000018        -5.33495238E-03
  0.657000005        -5.43539878E-03
  0.657999992        -5.51010901E-03
  0.658999979        -5.55878691E-03
  0.660000026        -5.58136543E-03
  0.661000013        -5.57800289E-03
  0.662000000        -5.54907927E-03
  0.662999988        -5.49518736E-03
  0.663999975        -5.41712437E-03
  0.665000021        -5.31587750E-03
  0.666000009        -5.19260950E-03
  0.666999996        -5.04864380E-03
  0.667999983        -4.88544721E-03
  0.669000030        -4.70460998E-03
  0.670000017        -4.50782385E-03
  0.671000004        -4.29686438E-03
  0.671999991        -4.07356955E-03
  0.672999978        -3.83981736E-03
  0.674000025        -3.59750586E-03
  0.675000012        -3.34853353E-03
  0.675999999        -3.09477863E-03
  0.676999986        -2.83808308E-03
  0.677999973        -2.58023362E-03
  0.679000020        -2.32294807E-03
  0.680000007        -2.06785998E-03
  0.680999994        -1.81650615E-03
  0.681999981        -1.57031720E-03
  0.683000028        -1.33060780E-03
  0.684000015        -1.09856937E-03
  0.685000002        -8.75266327E-04
  0.685999990        -6.61631639E-04
  0.686999977        -4.58465365E-04
  0.688000023        -2.66434683E-04
  0.689000010        -8.60751170E-05