 -0.12000000000000000          0.0000000000000000     
 -0.11889999999999999          0.0000000000000000     
 -0.11780000000000000          0.0000000000000000     
 -0.11670000000000000          0.0000000000000000     
 -0.11559999999999999          0.0000000000000000     
 -0.11449999999999999          0.0000000000000000     
 -0.11340000000000000          0.0000000000000000     
 -0.11230000000000000          0.0000000000000000     
 -0.11119999999999999          0.0000000000000000     
 -0.11009999999999999          0.0000000000000000     
 -0.10900000000000000          0.0000000000000000     
 -0.10790000000000000          6.3658027211387864E-037
 -0.10679999999999999          4.6655342688431119E-034
 -0.10569999999999999          1.1019236331273005E-032
 -0.10460000000000000          1.2412338901514238E-031
 -0.10349999999999999          8.8312783070105093E-031
 -0.10239999999999999          4.4015837904052126E-030
 -0.10130000000000000          1.5826672710520254E-029
 -0.10020000000000000          3.8911524347942269E-029
  -9.9099999999999994E-002     4.3151011277641267E-029
  -9.7999999999999990E-002    -1.4031039574755638E-028
  -9.6899999999999986E-002    -1.0069470418683231E-027
  -9.5799999999999996E-002    -3.4503564528265691E-027
  -9.4699999999999993E-002    -7.9824645723705312E-027
  -9.3599999999999989E-002    -1.1739118096546284E-026
  -9.2499999999999999E-002    -2.4123975239090805E-027
  -9.1399999999999995E-002     4.7630613110943723E-026
  -9.0299999999999991E-002     1.7413107403261572E-025
  -8.9200000000000002E-002     3.7665937983042363E-025
  -8.8099999999999984E-002     5.1839959771273288E-025
  -8.6999999999999994E-002     2.0296556521066450E-025
  -8.5899999999999990E-002    -1.2210972723934506E-024
  -8.4799999999999986E-002    -4.2438196664068804E-024
  -8.3699999999999997E-002    -8.1112282965621847E-024
  -8.2599999999999993E-002    -9.2999229169903834E-024
  -8.1499999999999989E-002    -8.4922586747570468E-025
  -8.0399999999999999E-002     2.4908625973372482E-023
  -7.9299999999999995E-002     6.7706107634675989E-023
  -7.8199999999999992E-002     1.0567846193721620E-022
  -7.7100000000000002E-002     8.5446652317448137E-023
  -7.5999999999999984E-002    -6.5884190243927748E-023
  -7.4899999999999994E-002    -3.8693437595924280E-022
  -7.3799999999999991E-002    -7.8588581730210399E-022
  -7.2699999999999987E-002    -9.4884105893942998E-022
  -7.1599999999999997E-002    -3.5982968934323375E-022
  -7.0499999999999993E-002     1.4372813180498332E-021
  -6.9399999999999989E-002     4.2909755309072009E-021
  -6.8300000000000000E-002     6.8040646853902905E-021
  -6.7199999999999996E-002     6.1305987146524474E-021
  -6.6099999999999992E-002    -1.0758278030937933E-021
  -6.5000000000000002E-002    -1.6135676402753193E-020
  -6.3899999999999985E-002    -3.4825537885302341E-020
  -6.2799999999999995E-002    -4.4996044397206499E-020
  -6.1699999999999991E-002    -2.8635430635741309E-020
  -6.0599999999999994E-002     2.8908841386847348E-020
  -5.9499999999999990E-002     1.2338099684087656E-019
  -5.8399999999999994E-002     2.1669847098708155E-019
  -5.7299999999999990E-002     2.3542018644648318E-019
  -5.6199999999999986E-002     9.5702294913013864E-020
  -5.5099999999999996E-002    -2.4209433093882226E-019
  -5.3999999999999992E-002    -7.0647696511792934E-019
  -5.2899999999999989E-002    -1.0759793128539671E-018
  -5.1799999999999985E-002    -1.0184955123397940E-018
  -5.0699999999999995E-002    -2.3815677073997281E-019
  -4.9599999999999991E-002     1.2975707191124166E-018
  -4.8499999999999988E-002     3.1527222330187256E-018
  -4.7399999999999998E-002     4.3921393168356143E-018
  -4.6299999999999994E-002     3.8529123714492158E-018
  -4.5199999999999990E-002     7.1935265171076594E-019
  -4.4099999999999986E-002    -4.7933645337161206E-018
  -4.2999999999999997E-002    -1.1010547061406494E-017
  -4.1899999999999993E-002    -1.5002095303236778E-017
  -4.0799999999999989E-002    -1.3576292556455532E-017
  -3.9699999999999985E-002    -4.8106481602479772E-018
  -3.8599999999999995E-002     1.0534251475248561E-017
  -3.7499999999999992E-002     2.8495991477075893E-017
  -3.6399999999999988E-002     4.2737443448248843E-017
  -3.5299999999999984E-002     4.6483722313069622E-017
  -3.4199999999999994E-002     3.4682641897538134E-017
  -3.3099999999999991E-002     5.4006407234512376E-018
  -3.1999999999999987E-002    -3.9833899716845477E-017
  -3.0899999999999997E-002    -9.5878378355127724E-017
  -2.9799999999999993E-002    -1.5252351665973053E-016
  -2.8699999999999989E-002    -1.9120473461856077E-016
  -2.7599999999999986E-002    -1.8212199334332322E-016
  -2.6499999999999996E-002    -8.7251738698320460E-017
  -2.5399999999999992E-002     1.2444298387083876E-016
  -2.4299999999999988E-002     4.4784658587382911E-016
  -2.3199999999999985E-002     8.0731943779000556E-016
  -2.2099999999999995E-002     1.0384618887681274E-015
  -2.0999999999999991E-002     9.1369721332832677E-016
  -1.9899999999999987E-002     2.3011504565237454E-016
  -1.8799999999999983E-002    -1.0509438615519491E-015
  -1.7699999999999994E-002    -2.6645829436271934E-015
  -1.6599999999999990E-002    -3.9893000886708817E-015
  -1.5499999999999986E-002    -4.1659833107002025E-015
  -1.4399999999999996E-002    -2.4213874052212133E-015
  -1.3299999999999992E-002     1.4733293902002929E-015
  -1.2199999999999989E-002     6.7917897624810211E-015
  -1.1099999999999985E-002     1.1735504586291365E-014
  -9.9999999999999950E-003     1.3811171861035470E-014
  -8.8999999999999913E-003     1.0726155640969075E-014
  -7.7999999999999875E-003     1.5646974763701390E-015
  -6.6999999999999837E-003    -1.2228673360162943E-014
  -5.5999999999999939E-003    -2.6606699669816595E-014
  -4.4999999999999901E-003    -3.5785524933413143E-014
  -3.3999999999999864E-003    -3.4165874628796344E-014
  -2.2999999999999826E-003    -1.8741434363521186E-014
  -1.1999999999999927E-003     8.9445665205365792E-015
  -9.9999999999988987E-005     4.2241525486242144E-014
   1.0000000000000148E-003     7.0744192935381216E-014
   2.1000000000000185E-003     8.3323165130990350E-014
   3.2000000000000084E-003     7.1863996812642256E-014
   4.3000000000000121E-003     3.4378755601755693E-014
   5.4000000000000159E-003    -2.3632715487394826E-014
   6.5000000000000058E-003    -8.9980343186494272E-014
   7.6000000000000234E-003    -1.4829920304237777E-013
   8.7000000000000133E-003    -1.8132678828652159E-013
   9.8000000000000032E-003    -1.7409906194843398E-013
   1.0900000000000021E-002    -1.1685458649631253E-013
   1.2000000000000011E-002    -8.0737351564568914E-015
   1.3100000000000001E-002     1.4192824611617087E-013
   1.4200000000000018E-002     3.0742900298368107E-013
   1.5300000000000008E-002     4.4595289575322156E-013
   1.6400000000000026E-002     5.0256515716120566E-013
   1.7500000000000016E-002     4.2268963758358107E-013
   1.8600000000000005E-002     1.7329562443144659E-013
   1.9700000000000023E-002    -2.3270516319562361E-013
   2.0800000000000013E-002    -7.1891527863504988E-013
   2.1900000000000003E-002    -1.1466823166474202E-012
   2.3000000000000020E-002    -1.3433997468613673E-012
   2.4100000000000010E-002    -1.1567418304275937E-012
   2.5200000000000000E-002    -5.2113296528846352E-013
   2.6300000000000018E-002     4.8771899288098264E-013
   2.7400000000000008E-002     1.6369911955844309E-012
   2.8500000000000025E-002     2.5775616220357170E-012
   2.9600000000000015E-002     2.9402488421090470E-012
   3.0700000000000005E-002     2.4629725916915801E-012
   3.1800000000000023E-002     1.1064544237832782E-012
   3.2900000000000013E-002    -8.8750704600977770E-013
   3.4000000000000002E-002    -3.0264661048785185E-012
   3.5100000000000020E-002    -4.6883802550591263E-012
   3.6200000000000010E-002    -5.3016091976027300E-012
   3.7300000000000028E-002    -4.5278552007209708E-012
   3.8400000000000017E-002    -2.3874547824992156E-012
   3.9500000000000007E-002     7.1571520530516422E-013
   4.0600000000000025E-002     4.0790245869991582E-012
   4.1700000000000015E-002     6.8694140307422634E-012
   4.2800000000000005E-002     8.3255889136387462E-012
   4.3900000000000022E-002     7.9407688844521986E-012
   4.5000000000000012E-002     5.5870540783065746E-012
   4.6100000000000002E-002     1.5647274249481219E-012
   4.7200000000000020E-002    -3.4225441285805373E-012
   4.8300000000000010E-002    -8.3599350214247618E-012
   4.9400000000000027E-002    -1.2078248983422658E-011
   5.0500000000000017E-002    -1.3474658118002110E-011
   5.1600000000000007E-002    -1.1784984322610837E-011
   5.2700000000000025E-002    -6.8647753884750621E-012
   5.3800000000000014E-002     6.0228231935393238E-013
   5.4900000000000004E-002     9.0739948895341843E-012
   5.6000000000000022E-002     1.6385749158124256E-011
   5.7100000000000012E-002     2.0270526487034728E-011
   5.8200000000000002E-002     1.9067567139925507E-011
   5.9300000000000019E-002     1.2410068353969866E-011
   6.0400000000000009E-002     1.6214560049947657E-012
   6.1500000000000027E-002    -1.0411010087962633E-011
   6.2600000000000017E-002    -1.9965491705478929E-011
   6.3700000000000007E-002    -2.3672560707920399E-011
   6.4800000000000024E-002    -1.9796241370769674E-011
   6.5900000000000014E-002    -9.1299032930943319E-012
   6.7000000000000004E-002     4.9135670427082300E-012
   6.8100000000000022E-002     1.7196393217574727E-011
   6.9200000000000012E-002     2.2557574556143995E-011
   7.0300000000000029E-002     1.7799294502220078E-011
   7.1400000000000019E-002     3.2444997155782371E-012
   7.2500000000000009E-002    -1.6788597968948337E-011
   7.3600000000000027E-002    -3.4931512340858819E-011
   7.4700000000000016E-002    -4.2983918056477633E-011
   7.5800000000000006E-002    -3.4779462644053521E-011
   7.6900000000000024E-002    -8.7738104506748954E-012
   7.8000000000000014E-002     3.0566538466919716E-011
   7.9100000000000004E-002     7.3174905683177462E-011
   8.0200000000000021E-002     1.0565521691498946E-010
   8.1300000000000011E-002     1.1489254078726602E-010
   8.2400000000000029E-002     9.2048612402388066E-011
   8.3500000000000019E-002     3.5831117754801067E-011
   8.4600000000000009E-002    -4.5918465684015838E-011
   8.5700000000000026E-002    -1.3686967670366875E-010
   8.6800000000000016E-002    -2.1510493180496698E-010
   8.7900000000000006E-002    -2.5778586518976224E-010
   8.9000000000000024E-002    -2.4668445625578705E-010
   9.0100000000000013E-002    -1.7343152550784574E-010
   9.1200000000000003E-002    -4.3268008919360350E-011
   9.2300000000000021E-002     1.2379031566481168E-010
   9.3400000000000011E-002     2.9511719402479058E-010
   9.4500000000000028E-002     4.3112469339088342E-010
   9.5600000000000018E-002     4.9374706257912900E-010
   9.6700000000000008E-002     4.5621207313217030E-010
   9.7800000000000026E-002     3.1179475717197973E-010
   9.8900000000000016E-002     7.8937991124781706E-011
  0.10000000000000001         -1.9946890724790169E-010
  0.10110000000000002         -4.6363784297387018E-010
  0.10220000000000001         -6.5037883391788683E-010
  0.10330000000000003         -7.0964666683256587E-010
  0.10440000000000002         -6.1972062933289488E-010
  0.10550000000000001         -3.9623196862649154E-010
  0.10660000000000003         -9.1393271256460074E-011
  0.10770000000000002          2.1768206840602703E-010
  0.10880000000000001          4.4939036113899388E-010
  0.10990000000000003          5.4155330772675311E-010
  0.11100000000000002          4.7187574090781033E-010
  0.11210000000000001          2.6828651709011821E-010
  0.11320000000000002          4.9713997480016401E-012
  0.11430000000000001         -2.1607544932076332E-010
  0.11540000000000003         -2.9375230867866929E-010
  0.11650000000000002         -1.5917043146300440E-010
  0.11760000000000001          1.9932484493273963E-010
  0.11870000000000003          7.2503511863277776E-010
  0.11980000000000002          1.2997039041552016E-009
  0.12090000000000001          1.7674043538108584E-009
  0.12200000000000003          1.9700388351936052E-009
  0.12310000000000001          1.7858105662914113E-009
  0.12420000000000003          1.1612255303178188E-009
  0.12530000000000002          1.2888687626200908E-010
  0.12640000000000001         -1.1930010890856277E-009
  0.12750000000000003         -2.6189278471481843E-009
  0.12860000000000002         -3.9274021380521802E-009
  0.12970000000000001         -4.8975945952413756E-009
  0.13080000000000003         -5.3426629015132189E-009
  0.13190000000000002         -5.1324130753037165E-009
  0.13300000000000001         -4.2011446097869914E-009
  0.13410000000000000         -2.5409375562094308E-009
  0.13520000000000004         -1.8522245540129404E-010
  0.13630000000000003          2.8089113867843198E-009
  0.13740000000000002          6.3696722629437577E-009
  0.13850000000000001          1.0402118349162468E-008
  0.13960000000000000          1.4757883434728538E-008
  0.14070000000000005          1.9185089286923886E-008
  0.14180000000000004          2.3267524974012183E-008
  0.14290000000000003          2.6367525695488667E-008
  0.14400000000000002          2.7588613328856951E-008
  0.14510000000000001          2.5770328329856411E-008
  0.14620000000000000          1.9519095340041153E-008
  0.14730000000000004          7.2669223728406544E-009
  0.14840000000000003         -1.2662195976740456E-008
  0.14950000000000002         -4.2006599621382789E-008
  0.15060000000000001         -8.2571787475220875E-008
  0.15170000000000000         -1.3630908901188116E-007
  0.15280000000000005         -2.0547727407226085E-007
  0.15390000000000004         -2.9287983670506440E-007
  0.15500000000000003         -4.0215536139171743E-007
  0.15610000000000002         -5.3808997894494026E-007
  0.15720000000000001         -7.0692146956309270E-007
  0.15830000000000000         -9.1661589538724017E-007
  0.15940000000000004         -1.1771158971778135E-006
  0.16050000000000003         -1.5005799080113012E-006
  0.16160000000000002         -1.9016489509551347E-006
  0.16270000000000001         -2.3977843135594469E-006
  0.16380000000000000         -3.0097217551474286E-006
  0.16490000000000005         -3.7620722611404321E-006
  0.16600000000000004         -4.6840861699627113E-006
  0.16710000000000003         -5.8105764992533597E-006
  0.16820000000000002         -7.1829845684749581E-006
  0.16930000000000001         -8.8505652253330144E-006
  0.17040000000000000         -1.0871664716629650E-005
  0.17150000000000004         -1.3315078353979394E-005
  0.17260000000000003         -1.6261484904550058E-005
  0.17370000000000002         -1.9804975584066503E-005
  0.17480000000000001         -2.4054720158992763E-005
  0.17590000000000000         -2.9136790298716321E-005
  0.17700000000000005         -3.5196194331802779E-005
  0.17810000000000004         -4.2399154823209793E-005
  0.17920000000000003         -5.0935632106449132E-005
  0.18030000000000002         -6.1022092692084327E-005
  0.18140000000000001         -7.2904461934619996E-005
  0.18250000000000000         -8.6861214524968082E-005
  0.18360000000000004         -1.0320646629347761E-004
  0.18470000000000003         -1.2229305119651251E-004
  0.18580000000000002         -1.4451537769419068E-004
  0.18690000000000001         -1.7031213455599207E-004
  0.18800000000000000         -2.0016873123411623E-004
  0.18910000000000005         -2.3461946851362480E-004
  0.19020000000000004         -2.7424940193584811E-004
  0.19130000000000003         -3.1969585377223135E-004
  0.19240000000000002         -3.7164938253860452E-004
  0.19350000000000001         -4.3085426564011466E-004
  0.19460000000000005         -4.9810821230326431E-004
  0.19570000000000004         -5.7426077750777403E-004
  0.19680000000000003         -6.6021100405887234E-004
  0.19790000000000002         -7.5690319512654509E-004
  0.19900000000000001         -8.6532127479525464E-004
  0.20010000000000000         -9.8648149622797385E-004
  0.20120000000000005         -1.1214233702276856E-003
  0.20230000000000004         -1.2711988270157105E-003
  0.20340000000000003         -1.4368595305660815E-003
  0.20450000000000002         -1.6194421601717071E-003
  0.20560000000000000         -1.8199518835019515E-003
  0.20670000000000005         -2.0393436421499646E-003
  0.20780000000000004         -2.2785019692090763E-003
  0.20890000000000003         -2.5382178975025239E-003
  0.21000000000000002         -2.8191644016275926E-003
  0.21110000000000001         -3.1218708570551379E-003
  0.21220000000000000         -3.4466948420408231E-003
  0.21330000000000005         -3.7937934774766695E-003
  0.21440000000000003         -4.1630948195978982E-003
  0.21550000000000002         -4.5542690585125833E-003
  0.21660000000000001         -4.9667002754823237E-003
  0.21770000000000000         -5.3994601531727523E-003
  0.21880000000000005         -5.8512823724191131E-003
  0.21990000000000004         -6.3205399106452554E-003
  0.22100000000000003         -6.8052261598951936E-003
  0.22210000000000002         -7.3029375228708445E-003
  0.22320000000000001         -7.8108636490443525E-003
  0.22430000000000000         -8.3257810551915622E-003
  0.22540000000000004         -8.8440512659114894E-003
  0.22650000000000003         -9.3616330006281619E-003
  0.22760000000000002         -9.8740925307426071E-003
  0.22870000000000001         -1.0376625392311798E-002
  0.22980000000000000         -1.0864090385411073E-002
  0.23090000000000005         -1.1331045082545356E-002
  0.23200000000000004         -1.1771792598416968E-002
  0.23310000000000003         -1.2180437310344891E-002
  0.23420000000000002         -1.2550948934970814E-002
  0.23530000000000001         -1.2877231256257105E-002
  0.23640000000000000         -1.3153200226579462E-002
  0.23750000000000004         -1.3372864214310567E-002
  0.23860000000000003         -1.3530411880124806E-002
  0.23970000000000002         -1.3620304387001424E-002
  0.24080000000000001         -1.3637368593772427E-002
  0.24190000000000000         -1.3576892585027287E-002
  0.24300000000000005         -1.3434717097062135E-002
  0.24410000000000004         -1.3207324299398847E-002
  0.24520000000000003         -1.2891922545255226E-002
  0.24630000000000002         -1.2486522563891846E-002
  0.24740000000000001         -1.1990009999374638E-002
  0.24850000000000005         -1.1402201251378127E-002
  0.24960000000000004         -1.0723895738773180E-002
  0.25070000000000003         -9.9569069292130847E-003
  0.25180000000000002         -9.1040868573000339E-003
  0.25290000000000001         -8.1693300130009118E-003
  0.25400000000000000         -7.1575639002988897E-003
  0.25510000000000005         -6.0747195063334692E-003
  0.25620000000000004         -4.9276870460920772E-003
  0.25730000000000003         -3.7242549045619234E-003
  0.25840000000000002         -2.4730331096063894E-003
  0.25950000000000001         -1.1833626379941090E-003
  0.26060000000000005          1.3478880712852029E-004
  0.26170000000000004          1.4709435170752491E-003
  0.26280000000000003          2.8142406463904954E-003
  0.26390000000000002          4.1535719995615221E-003
  0.26500000000000001          5.4777248424920924E-003
  0.26610000000000000          6.7755281544892056E-003
  0.26720000000000005          8.0359986410389311E-003
  0.26830000000000004          9.2484864010349867E-003
  0.26940000000000003          1.0402816849460953E-002
  0.27050000000000002          1.1489426243798900E-002
  0.27160000000000001          1.2499483747558245E-002
  0.27270000000000005          1.3425005917429862E-002
  0.27380000000000004          1.4258957127055065E-002
  0.27490000000000003          1.4995335846840145E-002
  0.27600000000000002          1.5629245159363914E-002
  0.27710000000000001          1.6156944443510398E-002
  0.27820000000000000          1.6575885719690937E-002
  0.27930000000000005          1.6884727726879052E-002
  0.28040000000000004          1.7083332698542810E-002
  0.28150000000000003          1.7172747236966913E-002
  0.28260000000000002          1.7155153235794737E-002
  0.28370000000000001          1.7033821425177578E-002
  0.28480000000000005          1.6813032324568537E-002
  0.28590000000000004          1.6497993942879680E-002
  0.28700000000000003          1.6094749139291337E-002
  0.28810000000000002          1.5610064314749168E-002
  0.28920000000000001          1.5051318812517273E-002
  0.29030000000000000          1.4426387542572881E-002
  0.29140000000000005          1.3743517272684025E-002
  0.29250000000000004          1.3011206289576202E-002
  0.29360000000000003          1.2238081496946298E-002
  0.29470000000000002          1.1432777078894035E-002
  0.29580000000000001          1.0603820222719718E-002
  0.29690000000000005          9.7595268752368042E-003
  0.29800000000000004          8.9079040778950562E-003
  0.29910000000000003          8.0565595475499182E-003
  0.30020000000000002          7.2126305634298629E-003
  0.30130000000000001          6.3827185198468504E-003
  0.30240000000000000          5.5728364827798763E-003
  0.30350000000000005          4.7883681616435079E-003
  0.30460000000000004          4.0340391762748399E-003
  0.30570000000000003          3.3139000235213388E-003
  0.30680000000000002          2.6313225126803116E-003
  0.30790000000000001          1.9890066244931219E-003
  0.30900000000000005          1.3889971662077167E-003
  0.31010000000000004          8.3270846228560057E-004
  0.31120000000000003          3.2095659230887323E-004
  0.31230000000000002         -1.4600166630644414E-004
  0.31340000000000001         -5.6842357533135805E-004
  0.31450000000000006         -9.4702945894533210E-004
  0.31560000000000005         -1.2829477014380598E-003
  0.31670000000000004         -1.5776582000540831E-003
  0.31780000000000003         -1.8329362824552132E-003
  0.31890000000000002         -2.0507981830160719E-003
  0.32000000000000001         -2.2334497918462468E-003
  0.32110000000000005         -2.3832367957918538E-003
  0.32220000000000004         -2.5025981311905506E-003
  0.32330000000000003         -2.5940194774150575E-003
  0.32440000000000002         -2.6599932359830185E-003
  0.32550000000000001         -2.7029795127523452E-003
  0.32660000000000006         -2.7253767639539850E-003
  0.32770000000000005         -2.7294955102081242E-003
  0.32880000000000004         -2.7175393640717737E-003
  0.32990000000000003         -2.6915894917731594E-003
  0.33100000000000002         -2.6535921714115457E-003
  0.33210000000000001         -2.6053500147819502E-003
  0.33320000000000005         -2.5485163162729915E-003
  0.33430000000000004         -2.4845937475119319E-003
  0.33540000000000003         -2.4149374224285676E-003
  0.33650000000000002         -2.3407609490759861E-003
  0.33760000000000001         -2.2631458038860613E-003
  0.33870000000000006         -2.1830504883731498E-003
  0.33980000000000005         -2.1013208990249390E-003
  0.34090000000000004         -2.0186999194411852E-003
  0.34200000000000003         -1.9358367245247100E-003
  0.34310000000000002         -1.8532960875619793E-003
  0.34420000000000001         -1.7715680298254995E-003
  0.34530000000000005         -1.6910767974606727E-003
  0.34640000000000004         -1.6121895268355821E-003
  0.34750000000000003         -1.5352235356145166E-003
  0.34860000000000002         -1.4604528289677609E-003
  0.34970000000000001         -1.3881128427513309E-003
  0.35080000000000006         -1.3184046917113787E-003
  0.35190000000000005         -1.2514990301158585E-003
  0.35300000000000004         -1.1875379182319974E-003
  0.35410000000000003         -1.1266358052794958E-003
  0.35520000000000002         -1.0688789297172764E-003
  0.35630000000000001         -1.0143233984884453E-003
  0.35740000000000005         -9.6299280095253257E-004
  0.35850000000000004         -9.1487538113168318E-004
  0.35960000000000003         -8.6992124487836992E-004
  0.36070000000000002         -8.2804065751388247E-004
  0.36180000000000001         -7.8910334397463836E-004
  0.36290000000000006         -7.5293863261882319E-004
  0.36400000000000005         -7.1933673455899729E-004
  0.36510000000000004         -6.8805065845767147E-004
  0.36620000000000003         -6.5879786885583670E-004
  0.36730000000000002         -6.3126144756873125E-004
  0.36840000000000006         -6.0509068247665003E-004
  0.36950000000000005         -5.7990141461852524E-004
  0.37060000000000004         -5.5527622397978193E-004
  0.37170000000000003         -5.3076502978674262E-004
  0.37280000000000002         -5.0588644251749876E-004
  0.37390000000000001         -4.8012910283105415E-004
  0.37500000000000006         -4.5295342345505170E-004
  0.37610000000000005         -4.2379279325768581E-004
  0.37720000000000004         -3.9205423631546120E-004
  0.37830000000000003         -3.5711821930026113E-004
  0.37940000000000002         -3.1833724025394014E-004
  0.38050000000000006         -2.7503257610887928E-004
  0.38160000000000005         -2.2648855948047384E-004
  0.38270000000000004         -1.7194440193165315E-004
  0.38380000000000003         -1.1058333136303747E-004
  0.38490000000000002         -4.1520594324667614E-005
  0.38600000000000001          3.6208800945373491E-005
  0.38710000000000000          1.2366114435690106E-004
  0.38819999999999999          2.2199331371880601E-004
  0.38930000000000009          3.3247028471419983E-004
  0.39040000000000008          4.5647137425236490E-004
  0.39150000000000007          5.9549586821277471E-004
  0.39260000000000006          7.5116791662896496E-004
  0.39370000000000005          9.2524036530324243E-004
  0.39480000000000004          1.1195961247866620E-003
  0.39590000000000003          1.3362468570053017E-003
  0.39700000000000002          1.5773255865796944E-003
  0.39810000000000001          1.8450753204916422E-003
  0.39920000000000000          2.1418298559519738E-003
  0.40029999999999999          2.4699887048524809E-003
  0.40140000000000009          2.8319837961305345E-003
  0.40250000000000008          3.2302395530771663E-003
  0.40360000000000007          3.6671249374707815E-003
  0.40470000000000006          4.1449015065529414E-003
  0.40580000000000005          4.6656648760477586E-003
  0.40690000000000004          5.2312832361835421E-003
  0.40800000000000003          5.8433352447220003E-003
  0.40910000000000002          6.5030408534261413E-003
  0.41020000000000001          7.2111935925665950E-003
  0.41130000000000000          7.9680860622922643E-003
  0.41239999999999999          8.7734367502761545E-003
  0.41350000000000009          9.6263154249555012E-003
  0.41460000000000008          1.0525073929370899E-002
  0.41570000000000007          1.1467280709111592E-002
  0.41680000000000006          1.2449663871785137E-002
  0.41790000000000005          1.3468066280960129E-002
  0.41900000000000004          1.4517408725711105E-002
  0.42010000000000003          1.5591672154014601E-002
  0.42120000000000002          1.6683883000514221E-002
  0.42230000000000001          1.7786125660870660E-002
  0.42340000000000000          1.8889562262048028E-002
  0.42449999999999999          1.9984472580234502E-002
  0.42560000000000009          2.1060317744812561E-002
  0.42670000000000008          2.2105816504749257E-002
  0.42780000000000007          2.3109037807894146E-002
  0.42890000000000006          2.4057518525032674E-002
  0.43000000000000005          2.4938393733122507E-002
  0.43110000000000004          2.5738539705748877E-002
  0.43220000000000003          2.6444739904157216E-002
  0.43330000000000002          2.7043855167556079E-002
  0.43440000000000001          2.7523005817950110E-002
  0.43550000000000000          2.7869766960691950E-002
  0.43659999999999999          2.8072362040754251E-002
  0.43770000000000009          2.8119859201717619E-002
  0.43880000000000008          2.8002366596131222E-002
  0.43990000000000007          2.7711226557441550E-002
  0.44100000000000006          2.7239190761170540E-002
  0.44210000000000005          2.6580591527496034E-002
  0.44320000000000004          2.5731488268601357E-002
  0.44430000000000003          2.4689798444878210E-002
  0.44540000000000002          2.3455401278532729E-002
  0.44650000000000001          2.2030219002910287E-002
  0.44760000000000000          2.0418273296098643E-002
  0.44869999999999999          1.8625712030250714E-002
  0.44980000000000009          1.6660805224296787E-002
  0.45090000000000008          1.4533915703748644E-002
  0.45200000000000007          1.2257428015763471E-002
  0.45310000000000006          9.8456528066151010E-003
  0.45420000000000005          7.3146958850147433E-003
  0.45530000000000004          4.6823024264210800E-003
  0.45640000000000003          1.9676701913285558E-003
  0.45750000000000002         -8.0876311880571244E-004
  0.45860000000000001         -3.6255523556633544E-003
  0.45970000000000000         -6.4604966171180871E-003
  0.46079999999999999         -9.2909034744136434E-003
  0.46190000000000009         -1.2093865341375538E-002
  0.46300000000000008         -1.4846536605249386E-002
  0.46410000000000007         -1.7526411679206287E-002
  0.46520000000000006         -2.0111603339001905E-002
  0.46630000000000005         -2.2581107968075508E-002
  0.46740000000000004         -2.4915064873181660E-002
  0.46850000000000003         -2.7094998303278359E-002
  0.46960000000000002         -2.9104042934182756E-002
  0.47070000000000001         -3.0927139511510951E-002
  0.47180000000000000         -3.2551212919180374E-002
  0.47289999999999999         -3.3965307847097601E-002
  0.47400000000000009         -3.5160707936271705E-002
  0.47510000000000008         -3.6131020629292680E-002
  0.47620000000000007         -3.6872204527322913E-002
  0.47730000000000006         -3.7382594396109234E-002
  0.47840000000000005         -3.7662882266038894E-002