 -0.12000000000000000          0.0000000000000000     
 -0.11889999999999999          0.0000000000000000     
 -0.11780000000000000          0.0000000000000000     
 -0.11670000000000000          0.0000000000000000     
 -0.11559999999999999          0.0000000000000000     
 -0.11449999999999999          0.0000000000000000     
 -0.11340000000000000          0.0000000000000000     
 -0.11230000000000000          0.0000000000000000     
 -0.11119999999999999          0.0000000000000000     
 -0.11009999999999999          0.0000000000000000     
 -0.10900000000000000          0.0000000000000000     
 -0.10790000000000000         -1.2721751282824929E-036
 -0.10679999999999999         -9.1907691453677411E-035
 -0.10569999999999999          1.6765716373104675E-033
 -0.10460000000000000          4.1927716149420833E-032
 -0.10349999999999999          3.8046324457916348E-031
 -0.10239999999999999          2.0106247378877973E-030
 -0.10130000000000000          6.5664708877197014E-030
 -0.10020000000000000          9.7236831438443677E-030
  -9.9099999999999994E-002    -2.7530039303134106E-029
  -9.7999999999999990E-002    -2.4305611249461650E-028
  -9.6899999999999986E-002    -9.1261816645193973E-028
  -9.5799999999999996E-002    -2.1692883677622890E-027
  -9.4699999999999993E-002    -2.7599654652496555E-027
  -9.3599999999999989E-002     2.7010799190276368E-027
  -9.2499999999999999E-002     2.6542745254276674E-026
  -9.1399999999999995E-002     8.4032171394792058E-026
  -9.0299999999999991E-002     1.6816015852917197E-025
  -8.9200000000000002E-002     1.8912583469916783E-025
  -8.8099999999999984E-002    -1.0606454746162995E-025
  -8.6999999999999994E-002    -1.1381822648500438E-024
  -8.5899999999999990E-002    -3.2140665871785873E-024
  -8.4799999999999986E-002    -5.7112509223688529E-024
  -8.3699999999999997E-002    -5.7569399938460028E-024
  -8.2599999999999993E-002     2.7366555826765355E-024
  -8.1499999999999989E-002     2.7507220845563617E-023
  -8.0399999999999999E-002     7.0794312285580766E-023
  -7.9299999999999995E-002     1.1510094216417643E-022
  -7.8199999999999992E-002     1.0667626539277761E-022
  -7.7100000000000002E-002    -4.7045905974259976E-023
  -7.5999999999999984E-002    -4.3860735666724268E-022
  -7.4899999999999994E-002    -1.0552518252048800E-021
  -7.3799999999999991E-002    -1.6164843033468000E-021
  -7.2699999999999987E-002    -1.4398035891912253E-021
  -7.1599999999999997E-002     4.8293978691682377E-022
  -7.0499999999999993E-002     4.9687822028927693E-021
  -6.9399999999999989E-002     1.1573451192401606E-020
  -6.8300000000000000E-002     1.7235044046632569E-020
  -6.7199999999999996E-002     1.5513961339686281E-020
  -6.6099999999999992E-002    -2.1208488173132226E-021
  -6.5000000000000002E-002    -4.1557029410068183E-020
  -6.3899999999999985E-002    -9.7780942318620807E-020
  -6.2799999999999995E-002    -1.4591605238837847E-019
  -6.1699999999999991E-002    -1.3810197206662640E-019
  -6.0599999999999994E-002    -1.5129427928690834E-020
  -5.9499999999999990E-002     2.6052237438781499E-019
  -5.8399999999999994E-002     6.5333255287806008E-019
  -5.7299999999999990E-002     1.0050610066056667E-018
  -5.6199999999999986E-002     1.0248001284461516E-018
  -5.5099999999999996E-002     3.6373019565140102E-019
  -5.3999999999999992E-002    -1.1995606941876812E-018
  -5.2899999999999989E-002    -3.4913686670256825E-018
  -5.1799999999999985E-002    -5.7015521888606579E-018
  -5.0699999999999995E-002    -6.3510459265750766E-018
  -4.9599999999999991E-002    -3.6624387316091099E-018
  -4.8499999999999988E-002     3.5778838099398932E-018
  -4.7399999999999998E-002     1.4820518181297178E-017
  -4.6299999999999994E-002     2.6697046798037852E-017
  -4.5199999999999990E-002     3.2851239383318913E-017
  -4.4099999999999986E-002     2.5397861677407483E-017
  -4.2999999999999997E-002    -1.6983035857376698E-018
  -4.1899999999999993E-002    -4.7946526873648094E-017
  -4.0799999999999989E-002    -1.0212543224063436E-016
  -3.9699999999999985E-002    -1.4117530958705142E-016
  -3.8599999999999995E-002    -1.3472753857609189E-016
  -3.7499999999999992E-002    -5.6285033854539495E-017
  -3.6399999999999988E-002     1.0087368938739594E-016
  -3.5299999999999984E-002     3.0854025207249141E-016
  -3.4199999999999994E-002     4.9724284814199980E-016
  -3.3099999999999991E-002     5.6662737405740882E-016
  -3.1999999999999987E-002     4.1622553951865490E-016
  -3.0899999999999997E-002    -7.7849563867829050E-018
  -2.9799999999999993E-002    -6.6392244579438293E-016
  -2.8699999999999989E-002    -1.3863207105379429E-015
  -2.7599999999999986E-002    -1.8972960520760206E-015
  -2.6499999999999996E-002    -1.8744389802223755E-015
  -2.5399999999999992E-002    -1.0665285661815175E-015
  -2.4299999999999988E-002     5.7062273067862321E-016
  -2.3199999999999985E-002     2.7666369099975712E-015
  -2.2099999999999995E-002     4.9117101116691550E-015
  -2.0999999999999991E-002     6.1549730742797275E-015
  -1.9899999999999987E-002     5.6325694968193555E-015
  -1.8799999999999983E-002     2.7851735309829917E-015
  -1.7699999999999994E-002    -2.3206938876425629E-015
  -1.6599999999999990E-002    -8.7805626235031305E-015
  -1.5499999999999986E-002    -1.4858104184765707E-014
  -1.4399999999999996E-002    -1.8277569303538547E-014
  -1.3299999999999992E-002    -1.6798120891236458E-014
  -1.2199999999999989E-002    -8.9759656510275834E-015
  -1.1099999999999985E-002     5.0654843289836944E-015
  -9.9999999999999950E-003     2.3095766873293539E-014
  -8.8999999999999913E-003     4.0715667893941753E-014
  -7.7999999999999875E-003     5.1964687432399769E-014
  -6.6999999999999837E-003     5.0656595005651712E-014
  -5.5999999999999939E-003     3.2299775924354860E-014
  -4.4999999999999901E-003    -3.7837760567706930E-015
  -3.3999999999999864E-003    -5.2752657285911361E-014
  -2.2999999999999826E-003    -1.0368709208251238E-013
  -1.1999999999999927E-003    -1.4083175885234819E-013
  -9.9999999999988987E-005    -1.4694733172754099E-013
   1.0000000000000148E-003    -1.0846208034611674E-013
   2.1000000000000185E-003    -2.1348089248911808E-014
   3.2000000000000084E-003     1.0404132179103338E-013
   4.3000000000000121E-003     2.4124279436227409E-013
   5.4000000000000159E-003     3.5078534473263226E-013
   6.5000000000000058E-003     3.8873316818190268E-013
   7.6000000000000234E-003     3.1955159635210856E-013
   8.7000000000000133E-003     1.3029089655343021E-013
   9.8000000000000032E-003    -1.5830668009585011E-013
   1.0900000000000021E-002    -4.8839777192073298E-013
   1.2000000000000011E-002    -7.7260266824644642E-013
   1.3100000000000001E-002    -9.1298706042088744E-013
   1.4200000000000018E-002    -8.2823327565474069E-013
   1.5300000000000008E-002    -4.8236583938577986E-013
   1.6400000000000026E-002     9.3526622695772058E-014
   1.7500000000000016E-002     7.9465769871835155E-013
   1.8600000000000005E-002     1.4559802802058101E-012
   1.9700000000000023E-002     1.8855642293686424E-012
   2.0800000000000013E-002     1.9120023847710307E-012
   2.1900000000000003E-002     1.4351359086580927E-012
   2.3000000000000020E-002     4.6702955342636680E-013
   2.4100000000000010E-002    -8.4900551844086878E-013
   2.5200000000000000E-002    -2.2495492995185747E-012
   2.6300000000000018E-002    -3.3943175738216774E-012
   2.7400000000000008E-002    -3.9362608241446909E-012
   2.8500000000000025E-002    -3.6065111475434638E-012
   2.9600000000000015E-002    -2.2970390899092237E-012
   3.0700000000000005E-002    -1.2133347027795843E-013
   3.1800000000000023E-002     2.5657865231961664E-012
   3.2900000000000013E-002     5.2032597373101786E-012
   3.4000000000000002E-002     7.1184727594785019E-012
   3.5100000000000020E-002     7.6728365499833484E-012
   3.6200000000000010E-002     6.4338218090663793E-012
   3.7300000000000028E-002     3.3346219811615732E-012
   3.8400000000000017E-002    -1.2254534396055840E-012
   3.9500000000000007E-002    -6.3833290878701757E-012
   4.0600000000000025E-002    -1.0942727169501855E-011
   4.1700000000000015E-002    -1.3626776645205729E-011
   4.2800000000000005E-002    -1.3407770621900534E-011
   4.3900000000000022E-002    -9.8345115406975284E-012
   4.5000000000000012E-002    -3.2601659948065352E-012
   4.6100000000000002E-002     5.1163615191219398E-012
   4.7200000000000020E-002     1.3441947581165189E-011
   4.8300000000000010E-002     1.9616269084889146E-011
   4.9400000000000027E-002     2.1827331306582701E-011
   5.0500000000000017E-002     1.9075598838048789E-011
   5.1600000000000007E-002     1.1531433045551151E-011
   5.2700000000000025E-002     6.0287134973707431E-013
   5.3800000000000014E-002    -1.1333657706214289E-011
   5.4900000000000004E-002    -2.1489205304539223E-011
   5.6000000000000022E-002    -2.7364280866205710E-011
   5.7100000000000012E-002    -2.7404771592801647E-011
   5.8200000000000002E-002    -2.1425508487093002E-011
   5.9300000000000019E-002    -1.0678843730138536E-011
   6.0400000000000009E-002     2.4521463276174649E-012
   6.1500000000000027E-002     1.5048357941910209E-011
   6.2600000000000017E-002     2.4370825470226555E-011
   6.3700000000000007E-002     2.8505798289710702E-011
   6.4800000000000024E-002     2.6777785511804702E-011
   6.5900000000000014E-002     1.9843976032585298E-011
   6.7000000000000004E-002     9.4728739419202085E-012
   6.8100000000000022E-002    -1.9145272024851433E-012
   6.9200000000000012E-002    -1.1819978642170291E-011
   7.0300000000000029E-002    -1.8231841643883064E-011
   7.1400000000000019E-002    -2.0068665473448831E-011
   7.2500000000000009E-002    -1.7422511604680280E-011
   7.3600000000000027E-002    -1.1550643136915731E-011
   7.4700000000000016E-002    -4.5930351190266029E-012
   7.5800000000000006E-002     9.6777416317600367E-013
   7.6900000000000024E-002     3.0291331093506542E-012
   7.8000000000000014E-002     6.2186040839338852E-013
   7.9100000000000004E-002    -5.5260365238226697E-012
   8.0200000000000021E-002    -1.2861139201242149E-011
   8.1300000000000011E-002    -1.7496978875759035E-011
   8.2400000000000029E-002    -1.5349693711729723E-011
   8.3500000000000019E-002    -3.7013465689005998E-012
   8.4600000000000009E-002     1.7265585408731925E-011
   8.5700000000000026E-002     4.3559296310969456E-011
   8.6800000000000016E-002     6.7637268793311248E-011
   8.7900000000000006E-002     8.0084921257910572E-011
   8.9000000000000024E-002     7.2491144221767550E-011
   9.0100000000000013E-002     4.0776644470567329E-011
   9.1200000000000003E-002    -1.2138037276283715E-011
   9.2300000000000021E-002    -7.5471565995886287E-011
   9.3400000000000011E-002    -1.3228001812607120E-010
   9.4500000000000028E-002    -1.6370060870667136E-010
   9.5600000000000018E-002    -1.5480352564179766E-010
   9.6700000000000008E-002    -1.0034871326329337E-010
   9.7800000000000026E-002    -8.4497162182906418E-012
   9.8900000000000016E-002     9.9488658657917382E-011
  0.10000000000000001          1.9319285897195753E-010
  0.10110000000000002          2.4156589229743792E-010
  0.10220000000000001          2.2230492888795952E-010
  0.10330000000000003          1.3024622417110152E-010
  0.10440000000000002         -1.8354092612514762E-011
  0.10550000000000001         -1.8743101363494170E-010
  0.10660000000000003         -3.2880934364631345E-010
  0.10770000000000002         -3.9436685423051731E-010
  0.10880000000000001         -3.4960388301282865E-010
  0.10990000000000003         -1.8496616424878381E-010
  0.11100000000000002          7.8290659297493434E-011
  0.11210000000000001          3.8956206797585344E-010
  0.11320000000000002          6.7770978973369512E-010
  0.11430000000000001          8.6545918034307450E-010
  0.11540000000000003          8.8632244240610783E-010
  0.11650000000000002          7.0049013343049242E-010
  0.11760000000000001          3.0643005600459946E-010
  0.11870000000000003         -2.5417450089402373E-010
  0.11980000000000002         -8.9931881212174704E-010
  0.12090000000000001         -1.5173220124978037E-009
  0.12200000000000003         -1.9839710213017231E-009
  0.12310000000000001         -2.1838547901127531E-009
  0.12420000000000003         -2.0326612928561530E-009
  0.12530000000000002         -1.4965251703837512E-009
  0.12640000000000001         -6.0432200866850101E-010
  0.12750000000000003          5.5060659844748629E-010
  0.12860000000000002          1.8211902254282923E-009
  0.12970000000000001          3.0291463888590188E-009
  0.13080000000000003          3.9955185394939636E-009
  0.13190000000000002          4.5727672483342486E-009
  0.13300000000000001          4.6706178052248713E-009
  0.13410000000000000          4.2686824661040474E-009
  0.13520000000000004          3.4120936004325587E-009
  0.13630000000000003          2.1912730655816183E-009
  0.13740000000000002          7.1221311247272488E-010
  0.13850000000000001         -9.3259618896712423E-010
  0.13960000000000000         -2.6817094571016662E-009
  0.14070000000000005         -4.5028129519511071E-009
  0.14180000000000004         -6.3695698612396064E-009
  0.14290000000000003         -8.2229717424194310E-009
  0.14400000000000002         -9.9294244210841725E-009
  0.14510000000000001         -1.1250900445657621E-008
  0.14620000000000000         -1.1840776232355955E-008
  0.14730000000000004         -1.1272758567704735E-008
  0.14840000000000003         -9.1012508153708575E-009
  0.14950000000000002         -4.9426760485570001E-009
  0.15060000000000001          1.4385605150074260E-009
  0.15170000000000000          1.0056478250783909E-008
  0.15280000000000005          2.0654679062285018E-008
  0.15390000000000004          3.2685982196376549E-008
  0.15500000000000003          4.5314827659446801E-008
  0.15610000000000002          5.7429193137171999E-008
  0.15720000000000001          6.7645746081093638E-008
  0.15830000000000000          7.4293934709354216E-008
  0.15940000000000004          7.5370709860287991E-008
  0.16050000000000003          6.8465066320494198E-008
  0.16160000000000002          5.0657662084524089E-008
  0.16270000000000001          1.8403984753263550E-008
  0.16380000000000000         -3.2593088469288004E-008
  0.16490000000000005         -1.0751911178239031E-007
  0.16600000000000004         -2.1259853355793000E-007
  0.16710000000000003         -3.5527188755427490E-007
  0.16820000000000002         -5.4441727448148308E-007
  0.16930000000000001         -7.9063763960414122E-007
  0.17040000000000000         -1.1066351887248022E-006
  0.17150000000000004         -1.5076987550610741E-006
  0.17260000000000003         -2.0123261933489346E-006
  0.17370000000000002         -2.6430056250745524E-006
  0.17480000000000001         -3.4271765852748292E-006
  0.17590000000000000         -4.3983880564808572E-006
  0.17700000000000005         -5.5976605532018151E-006
  0.17810000000000004         -7.0750540059580503E-006
  0.17920000000000003         -8.8914447899702143E-006
  0.18030000000000002         -1.1120503943512403E-005
  0.18140000000000001         -1.3850883320180534E-005
  0.18250000000000000         -1.7188638174877535E-005
  0.18360000000000004         -2.1259945198824341E-005
  0.18470000000000003         -2.6214151931821782E-005
  0.18580000000000002         -3.2227285658526247E-005
  0.18690000000000001         -3.9506044386700720E-005
  0.18800000000000000         -4.8292374497405679E-005
  0.18910000000000005         -5.8868635151911080E-005
  0.19020000000000004         -7.1563369290751671E-005
  0.19130000000000003         -8.6757647142744377E-005
  0.19240000000000002         -1.0489190788106430E-004
  0.19350000000000001         -1.2647329483020622E-004
  0.19460000000000005         -1.5208332777306519E-004
  0.19570000000000004         -1.8238613560112943E-004
  0.19680000000000003         -2.1813694480821109E-004
  0.19790000000000002         -2.6019105133039718E-004
  0.19900000000000001         -3.0951301936699035E-004
  0.20010000000000000         -3.6718616000765446E-004
  0.20120000000000005         -4.3442207279939055E-004
  0.20230000000000004         -5.1256995521041504E-004
  0.20340000000000003         -6.0312545252914072E-004
  0.20450000000000002         -7.0773878040841375E-004
  0.20560000000000000         -8.2822162730300161E-004
  0.20670000000000005         -9.6655261952058877E-004
  0.20780000000000004         -1.1248810804507620E-003
  0.20890000000000003         -1.3055282595347123E-003
  0.21000000000000002         -1.5109863461092513E-003
  0.21110000000000001         -1.7439138783064594E-003
  0.21220000000000000         -2.0071278614253352E-003
  0.21330000000000005         -2.3035914388359765E-003
  0.21440000000000003         -2.6363978056109507E-003
  0.21550000000000002         -3.0087476480005304E-003
  0.21660000000000001         -3.4239224049075821E-003
  0.21770000000000000         -3.8852510313128873E-003
  0.21880000000000005         -4.3960695466641452E-003
  0.21990000000000004         -4.9596776308004804E-003
  0.22100000000000003         -5.5792823948895296E-003
  0.22210000000000002         -6.2579409837167791E-003
  0.22320000000000001         -6.9984937691479352E-003
  0.22430000000000000         -7.8034914681715632E-003
  0.22540000000000004         -8.6751149976955610E-003
  0.22650000000000003         -9.6150935535710448E-003
  0.22760000000000002         -1.0624613939714655E-002
  0.22870000000000001         -1.1704233031182879E-002
  0.22980000000000000         -1.2853779231350258E-002
  0.23090000000000005         -1.4072263589143066E-002
  0.23200000000000004         -1.5357782215530962E-002
  0.23310000000000003         -1.6707429769805791E-002
  0.23420000000000002         -1.8117214011728017E-002
  0.23530000000000001         -1.9581973008477888E-002
  0.23640000000000000         -2.1095313266463737E-002
  0.23750000000000004         -2.2649557780679348E-002
  0.23860000000000003         -2.4235700498920286E-002
  0.23970000000000002         -2.5843380919412559E-002
  0.24080000000000001         -2.7460882975523723E-002
  0.24190000000000000         -2.9075157116351693E-002
  0.24300000000000005         -3.0671857746203235E-002
  0.24410000000000004         -3.2235413489960438E-002
  0.24520000000000003         -3.3749124722351843E-002
  0.24630000000000002         -3.5195273906958154E-002
  0.24740000000000001         -3.6555285528767016E-002
  0.24850000000000005         -3.7809895494168085E-002
  0.24960000000000004         -3.8939365757399029E-002
  0.25070000000000003         -3.9923696907298682E-002
  0.25180000000000002         -4.0742900938664527E-002
  0.25290000000000001         -4.1377256628070777E-002
  0.25400000000000000         -4.1807595259788229E-002
  0.25510000000000005         -4.2015615940541991E-002
  0.25620000000000004         -4.1984199789029883E-002
  0.25730000000000003         -4.1697711072776547E-002
  0.25840000000000002         -4.1142322309148403E-002
  0.25950000000000001         -4.0306302948992102E-002
  0.26060000000000005         -3.9180315254650190E-002
  0.26170000000000004         -3.7757671521419157E-002
  0.26280000000000003         -3.6034589033716279E-002
  0.26390000000000002         -3.4010384704252522E-002
  0.26500000000000001         -3.1687657049914844E-002
  0.26610000000000000         -2.9072395287716098E-002
  0.26720000000000005         -2.6174075340094707E-002
  0.26830000000000004         -2.3005672605176775E-002
  0.26940000000000003         -1.9583643619370591E-002
  0.27050000000000002         -1.5927833509198689E-002
  0.27160000000000001         -1.2061340019722536E-002
  0.27270000000000005         -8.0103138399482444E-003
  0.27380000000000004         -3.8037076848772833E-003
  0.27490000000000003          5.2702899855582605E-004
  0.27600000000000002          4.9483013660357759E-003
  0.27710000000000001          9.4247600996695928E-003
  0.27820000000000000          1.3919738120389448E-002
  0.27930000000000005          1.8395705118202633E-002
  0.28040000000000004          2.2814751345059107E-002
  0.28150000000000003          2.7139084222302618E-002
  0.28260000000000002          3.1331529803370603E-002
  0.28370000000000001          3.5356021440228487E-002
  0.28480000000000005          3.9178104271216346E-002
  0.28590000000000004          4.2765371463720558E-002
  0.28700000000000003          4.6087919618305190E-002
  0.28810000000000002          4.9118718040649170E-002
  0.28920000000000001          5.1833965268339659E-002
  0.29030000000000000          5.4213396114863172E-002
  0.29140000000000005          5.6240506430348461E-002
  0.29250000000000004          5.7902745920105081E-002
  0.29360000000000003          5.9191631736698794E-002
  0.29470000000000002          6.0102788296611365E-002
  0.29580000000000001          6.0635955648992865E-002
  0.29690000000000005          6.0794913186803051E-002
  0.29800000000000004          6.0587329582233229E-002
  0.29910000000000003          6.0024568940571801E-002
  0.30020000000000002          5.9121457508332059E-002
  0.30130000000000001          5.7895993651058408E-002
  0.30240000000000000          5.6369009832953031E-002
  0.30350000000000005          5.4563806780661396E-002
  0.30460000000000004          5.2505783236406985E-002
  0.30570000000000003          5.0222005267475153E-002
  0.30680000000000002          4.7740807406373084E-002
  0.30790000000000001          4.5091362692258247E-002
  0.30900000000000005          4.2303272675874366E-002
  0.31010000000000004          3.9406170539775798E-002
  0.31120000000000003          3.6429346202996163E-002
  0.31230000000000002          3.3401375717409115E-002
  0.31340000000000001          3.0349790825876945E-002
  0.31450000000000006          2.7300803907388434E-002
  0.31560000000000005          2.4279033599821375E-002
  0.31670000000000004          2.1307294636928223E-002
  0.31780000000000003          1.8406430468618624E-002
  0.31890000000000002          1.5595165508041020E-002
  0.32000000000000001          1.2890024956757578E-002
  0.32110000000000005          1.0305273225538905E-002
  0.32220000000000004          7.8528937379035192E-003
  0.32330000000000003          5.5426068352978988E-003
  0.32440000000000002          3.3819195624074064E-003
  0.32550000000000001          1.3762047695918330E-003
  0.32660000000000006         -4.7119069514885820E-004
  0.32770000000000005         -2.1588173179589169E-003
  0.32880000000000004         -3.6869776523100004E-003
  0.32990000000000003         -5.0575694057920974E-003
  0.33100000000000002         -6.2739194996575421E-003
  0.33210000000000001         -7.3406141299409318E-003
  0.33320000000000005         -8.2633258939819928E-003
  0.33430000000000004         -9.0486433781786588E-003
  0.33540000000000003         -9.7038942862436774E-003
  0.33650000000000002         -1.0236985900246685E-002
  0.33760000000000001         -1.0656245294247501E-002
  0.33870000000000006         -1.0970272557846718E-002
  0.33980000000000005         -1.1187808954234549E-002
  0.34090000000000004         -1.1317616720187678E-002
  0.34200000000000003         -1.1368373031272246E-002
  0.34310000000000002         -1.1348580063713955E-002
  0.34420000000000001         -1.1266477115176983E-002
  0.34530000000000005         -1.1129976738160050E-002
  0.34640000000000004         -1.0946606441211463E-002
  0.34750000000000003         -1.0723464279794639E-002
  0.34860000000000002         -1.0467183893238335E-002
  0.34970000000000001         -1.0183917552081432E-002
  0.35080000000000006         -9.8793229064594538E-003
  0.35190000000000005         -9.5585606200750284E-003
  0.35300000000000004         -9.2262996947636861E-003
  0.35410000000000003         -8.8867232043255088E-003
  0.35520000000000002         -8.5435416366214361E-003
  0.35630000000000001         -8.2000116322910425E-003
  0.35740000000000005         -7.8589588067471614E-003
  0.35850000000000004         -7.5227987973761051E-003
  0.35960000000000003         -7.1935637491296551E-003
  0.36070000000000002         -6.8729314961104449E-003
  0.36180000000000001         -6.5622541787906906E-003
  0.36290000000000006         -6.2625857299893105E-003
  0.36400000000000005         -5.9747119833076304E-003
  0.36510000000000004         -5.6991755444229684E-003
  0.36620000000000003         -5.4363047490479568E-003
  0.36730000000000002         -5.1862383387181882E-003
  0.36840000000000006         -4.9489514498663621E-003
  0.36950000000000005         -4.7242748794240619E-003
  0.37060000000000004         -4.5119191214695181E-003
  0.37170000000000003         -4.3114927395729802E-003
  0.37280000000000002         -4.1225245057088539E-003
  0.37390000000000001         -3.9444787502233925E-003
  0.37500000000000006         -3.7767751292096885E-003
  0.37610000000000005         -3.6188057211848693E-003
  0.37720000000000004         -3.4699494357170197E-003
  0.37830000000000003         -3.3295857461459748E-003
  0.37940000000000002         -3.1971039111198859E-003
  0.38050000000000006         -3.0719121229075969E-003
  0.38160000000000005         -2.9534427518463600E-003
  0.38270000000000004         -2.8411590710520490E-003
  0.38380000000000003         -2.7345603324858774E-003
  0.38490000000000002         -2.6331883242271346E-003
  0.38600000000000001         -2.5366317508802210E-003
  0.38710000000000000         -2.4445304852789181E-003
  0.38819999999999999         -2.3565767616350887E-003
  0.38930000000000009         -2.2725131820432566E-003
  0.39040000000000008         -2.1921285569651713E-003
  0.39150000000000007         -2.1152519587286605E-003
  0.39260000000000006         -2.0417470746558913E-003
  0.39370000000000005         -1.9715066457040554E-003
  0.39480000000000004         -1.9044492456698706E-003
  0.39590000000000003         -1.8405172694737596E-003
  0.39700000000000002         -1.7796745923926208E-003
  0.39810000000000001         -1.7219035496568256E-003
  0.39920000000000000         -1.6671997292818117E-003
  0.40029999999999999         -1.6155661357927491E-003
  0.40140000000000009         -1.5670058159635630E-003
  0.40250000000000008         -1.5215162831651548E-003
  0.40360000000000007         -1.4790846882181373E-003
  0.40470000000000006         -1.4396871113241964E-003
  0.40580000000000005         -1.4032889494837051E-003
  0.40690000000000004         -1.3698482894769720E-003
  0.40800000000000003         -1.3393188898413212E-003
  0.40910000000000002         -1.3116541916324519E-003
  0.41020000000000001         -1.2868090848928866E-003
  0.41130000000000000         -1.2647428220583941E-003
  0.41239999999999999         -1.2454208168306525E-003
  0.41350000000000009         -1.2288168660436417E-003
  0.41460000000000008         -1.2149174731756912E-003
  0.41570000000000007         -1.2037256933182870E-003
  0.41680000000000006         -1.1952668883643473E-003
  0.41790000000000005         -1.1895941421623710E-003
  0.41900000000000004         -1.1867932098999908E-003
  0.42010000000000003         -1.1869861795562417E-003
  0.42120000000000002         -1.1903334341465863E-003
  0.42230000000000001         -1.1970342212871844E-003
  0.42340000000000000         -1.2073239790974604E-003
  0.42449999999999999         -1.2214702853484923E-003
  0.42560000000000009         -1.2397671680368036E-003
  0.42670000000000008         -1.2625279184293092E-003
  0.42780000000000007         -1.2900773127519759E-003
  0.42890000000000006         -1.3227416774441983E-003
  0.43000000000000005         -1.3608396366118396E-003
  0.43110000000000004         -1.4046700245428506E-003
  0.43220000000000003         -1.4544996140064363E-003
  0.43330000000000002         -1.5105482460919398E-003
  0.43440000000000001         -1.5729727890359682E-003
  0.43550000000000000         -1.6418498766735113E-003
  0.43659999999999999         -1.7171582812686066E-003
  0.43770000000000009         -1.7987600882106111E-003
  0.43880000000000008         -1.8863844172380398E-003
  0.43990000000000007         -1.9796119993024390E-003
  0.44100000000000006         -2.0778626407820539E-003
  0.44210000000000005         -2.1803866921851094E-003
  0.44320000000000004         -2.2862572143665912E-003
  0.44430000000000003         -2.3943654045097029E-003
  0.44540000000000002         -2.5034178368889669E-003
  0.44650000000000001         -2.6119359069799305E-003
  0.44760000000000000         -2.7182562318936229E-003
  0.44869999999999999         -2.8205362781903104E-003
  0.44980000000000009         -2.9167655551489164E-003
  0.45090000000000008         -3.0047809451391174E-003
  0.45200000000000007         -3.0822888854056011E-003
  0.45310000000000006         -3.1468918438802870E-003
  0.45420000000000005         -3.1961177218905791E-003
  0.45530000000000004         -3.2274521067368212E-003
  0.45640000000000003         -3.2383726587092276E-003
  0.45750000000000002         -3.2263837971106359E-003
  0.45860000000000001         -3.1890539455512860E-003
  0.45970000000000000         -3.1240543005339114E-003
  0.46079999999999999         -3.0292014343153697E-003
  0.46190000000000009         -2.9024997992931267E-003
  0.46300000000000008         -2.7421836626265648E-003
  0.46410000000000007         -2.5467587245981064E-003
  0.46520000000000006         -2.3150416174199640E-003
  0.46630000000000005         -2.0461956403106663E-003
  0.46740000000000004         -1.7397613808873618E-003
  0.46850000000000003         -1.3956857355670322E-003
  0.46960000000000002         -1.0143439795737928E-003
  0.47070000000000001         -5.9655686221205722E-004
  0.47180000000000000         -1.4360185373723898E-004
  0.47289999999999999          3.4278219206437842E-004
  0.47400000000000009          8.6039781814650404E-004
  0.47510000000000008          1.4065988300576862E-003
  0.47620000000000007          1.9783060600812984E-003
  0.47730000000000006          2.5720291634820352E-003
  0.47840000000000005          3.1838944731986396E-003