 -0.119999997         0.00000000    
 -0.119000003         0.00000000    
 -0.118000001         0.00000000    
 -0.116999999         0.00000000    
 -0.115999997         0.00000000    
 -0.115000002         0.00000000    
 -0.114000000         0.00000000    
 -0.112999998         0.00000000    
 -0.112000003         0.00000000    
 -0.111000001         0.00000000    
 -0.109999999         0.00000000    
 -0.108999997         0.00000000    
 -0.108000003         0.00000000    
 -0.107000001         0.00000000    
 -0.105999999         0.00000000    
 -0.104999997         0.00000000    
 -0.104000002         0.00000000    
 -0.103000000         0.00000000    
 -0.101999998         0.00000000    
 -0.101000004         0.00000000    
 -0.100000001         0.00000000    
  -9.89999995E-02     0.00000000    
  -9.79999974E-02     0.00000000    
  -9.70000029E-02     0.00000000    
  -9.60000008E-02     0.00000000    
  -9.49999988E-02     0.00000000    
  -9.39999968E-02     0.00000000    
  -9.30000022E-02     0.00000000    
  -9.20000002E-02     0.00000000    
  -9.09999982E-02     0.00000000    
  -9.00000036E-02     0.00000000    
  -8.90000015E-02     0.00000000    
  -8.79999995E-02     0.00000000    
  -8.69999975E-02     0.00000000    
  -8.60000029E-02     0.00000000    
  -8.50000009E-02     0.00000000    
  -8.39999989E-02     0.00000000    
  -8.29999968E-02     0.00000000    
  -8.20000023E-02     0.00000000    
  -8.10000002E-02     0.00000000    
  -7.99999982E-02     0.00000000    
  -7.90000036E-02     0.00000000    
  -7.80000016E-02     0.00000000    
  -7.69999996E-02     0.00000000    
  -7.59999976E-02     0.00000000    
  -7.50000030E-02     0.00000000    
  -7.40000010E-02     0.00000000    
  -7.29999989E-02     0.00000000    
  -7.19999969E-02     0.00000000    
  -7.10000023E-02     0.00000000    
  -7.00000003E-02     0.00000000    
  -6.89999983E-02     0.00000000    
  -6.80000037E-02     0.00000000    
  -6.70000017E-02     0.00000000    
  -6.59999996E-02     0.00000000    
  -6.49999976E-02     0.00000000    
  -6.40000030E-02     0.00000000    
  -6.30000010E-02     0.00000000    
  -6.19999990E-02     0.00000000    
  -6.10000007E-02     0.00000000    
  -5.99999987E-02     0.00000000    
  -5.90000004E-02     0.00000000    
  -5.79999983E-02     0.00000000    
  -5.70000000E-02     0.00000000    
  -5.60000017E-02     0.00000000    
  -5.49999997E-02     0.00000000    
  -5.40000014E-02     0.00000000    
  -5.29999994E-02     0.00000000    
  -5.20000011E-02     0.00000000    
  -5.09999990E-02     0.00000000    
  -5.00000007E-02     0.00000000    
  -4.89999987E-02     0.00000000    
  -4.80000004E-02     0.00000000    
  -4.69999984E-02     0.00000000    
  -4.60000001E-02     0.00000000    
  -4.50000018E-02     0.00000000    
  -4.39999998E-02     0.00000000    
  -4.30000015E-02     0.00000000    
  -4.19999994E-02     0.00000000    
  -4.10000011E-02     0.00000000    
  -3.99999991E-02     0.00000000    
  -3.90000008E-02     0.00000000    
  -3.79999988E-02     0.00000000    
  -3.70000005E-02     0.00000000    
  -3.59999985E-02     0.00000000    
  -3.50000001E-02     0.00000000    
  -3.40000018E-02     0.00000000    
  -3.29999998E-02     0.00000000    
  -3.20000015E-02     0.00000000    
  -3.09999995E-02    -0.00000000    
  -2.99999993E-02     0.00000000    
  -2.89999992E-02     0.00000000    
  -2.80000009E-02    -0.00000000    
  -2.70000007E-02    -0.00000000    
  -2.60000005E-02    -0.00000000    
  -2.50000004E-02    -0.00000000    
  -2.40000002E-02     0.00000000    
  -2.30000000E-02     0.00000000    
  -2.19999999E-02     0.00000000    
  -2.09999997E-02    -0.00000000    
  -1.99999996E-02     2.90477597E-38
  -1.89999994E-02     7.91364530E-38
  -1.79999992E-02     1.31903406E-37
  -1.70000009E-02     8.61145382E-38
  -1.60000008E-02    -1.47738348E-37
  -1.49999997E-02    -4.87697290E-37
  -1.40000004E-02    -7.12716273E-37
  -1.30000003E-02    -4.58337599E-37
  -1.20000001E-02     5.95063343E-37
  -1.09999999E-02     2.43247154E-36
  -9.99999978E-03     4.28095685E-36
  -8.99999961E-03     4.47238364E-36
  -8.00000038E-03     8.12124431E-37
  -7.00000022E-03    -8.08893723E-36
  -6.00000005E-03    -2.05955205E-35
  -4.99999989E-03    -2.99086429E-35
  -4.00000019E-03    -2.40319273E-35
  -3.00000003E-03     9.71211168E-36
  -2.00000009E-03     7.43532492E-35
  -1.00000005E-03     1.49608105E-34
   0.00000000         1.83089605E-34
   1.00000005E-03     9.94019030E-35
   2.00000009E-03    -1.61066684E-34
   3.00000003E-03    -5.74510237E-34
   4.00000019E-03    -9.63592300E-34
   4.99999989E-03    -9.81130309E-34
   6.00000005E-03    -2.17642802E-34
   7.00000022E-03     1.52779230E-33
   8.00000038E-03     3.86841893E-33
   8.99999961E-03     5.54188465E-33
   9.99999978E-03     4.53829606E-33
   1.09999999E-02    -1.04567459E-33
   1.20000001E-02    -1.13954406E-32
   1.30000003E-02    -2.31516845E-32
   1.40000004E-02    -2.85994073E-32
   1.49999997E-02    -1.74733782E-32
   1.60000008E-02     1.75597021E-32
   1.70000009E-02     7.25475205E-32
   1.79999992E-02     1.24782475E-31
   1.89999994E-02     1.32708740E-31
   1.99999996E-02     4.99331721E-32
   2.09999997E-02    -1.44593152E-31
   2.19999999E-02    -4.08466749E-31
   2.30000000E-02    -6.11137914E-31
   2.40000002E-02    -5.52451547E-31
   2.50000004E-02    -4.78794189E-32
   2.60000005E-02     9.25074557E-31
   2.70000007E-02     2.07393559E-30
   2.80000009E-02     2.73641487E-30
   2.89999992E-02     2.04357511E-30
   2.99999993E-02    -6.37557808E-31
   3.09999995E-02    -5.06971492E-30
   3.20000015E-02    -9.61250744E-30
   3.29999998E-02    -1.12436384E-29
   3.40000018E-02    -6.55272085E-30
   3.50000001E-02     6.22662329E-30
   3.59999985E-02     2.47482931E-29
   3.70000005E-02     4.10065814E-29
   3.79999988E-02     4.24556481E-29
   3.90000008E-02     1.70215810E-29
   3.99999991E-02    -3.85014581E-29
   4.10000011E-02    -1.09829634E-28
   4.19999994E-02    -1.61929325E-28
   4.30000015E-02    -1.47117588E-28
   4.39999998E-02    -2.72217499E-29
   4.50000018E-02     1.94903412E-28
   4.60000001E-02     4.48618466E-28
   4.69999984E-02     5.94202977E-28
   4.80000004E-02     4.65216515E-28
   4.89999987E-02    -4.33444798E-29
   5.00000007E-02    -8.67109031E-28
   5.09999990E-02    -1.70056263E-27
   5.20000011E-02    -2.03090237E-27
   5.29999994E-02    -1.32471480E-27
   5.40000014E-02     6.52016986E-28
   5.49999997E-02     3.49683011E-27
   5.60000017E-02     6.01705543E-27
   5.70000000E-02     6.47028106E-27
   5.79999983E-02     3.29419724E-27
   5.90000004E-02    -3.82518614E-27
   5.99999987E-02    -1.29998469E-26
   6.10000007E-02    -1.99560978E-26
   6.19999990E-02    -1.91945389E-26
   6.30000010E-02    -6.58297646E-27
   6.40000030E-02     1.73518846E-26
   6.49999976E-02     4.50216970E-26
   6.59999996E-02     6.22278011E-26
   6.70000017E-02     5.28301874E-26
   6.80000037E-02     7.22830551E-27
   6.89999983E-02    -6.82715356E-26
   7.00000003E-02    -1.46291198E-25
   7.10000023E-02    -1.82813683E-25
   7.19999969E-02    -1.33856901E-25
   7.29999989E-02     1.87946758E-26
   7.40000010E-02     2.43058966E-25
   7.50000030E-02     4.48265378E-25
   7.59999976E-02     5.06576447E-25
   7.69999996E-02     3.07268176E-25
   7.80000016E-02    -1.70544911E-25
   7.90000036E-02    -7.99365821E-25
   7.99999982E-02    -1.30008853E-24
   8.10000002E-02    -1.32413370E-24
   8.20000023E-02    -6.16861125E-25
   8.29999968E-02     7.90686379E-25
   8.39999989E-02     2.45724039E-24
   8.50000009E-02     3.57810780E-24
   8.60000029E-02     3.26053232E-24
   8.69999975E-02     9.82421438E-25
   8.79999995E-02    -2.93664950E-24
   8.90000015E-02    -7.11184848E-24
   9.00000036E-02    -9.35981571E-24
   9.09999982E-02    -7.53648363E-24
   9.20000002E-02    -7.43544692E-25
   9.30000022E-02     9.59896047E-24
   9.39999968E-02     1.94719965E-23
   9.49999988E-02     2.32846685E-23
   9.60000008E-02     1.62305922E-23
   9.70000029E-02    -2.73244950E-24
   9.79999974E-02    -2.86435111E-23
   9.89999995E-02    -5.05956862E-23
  0.100000001        -5.50605285E-23
  0.101000004        -3.20776182E-23
  0.101999998         1.78345121E-23
  0.103000000         7.94971043E-23
  0.104000002         1.25041206E-22
  0.104999997         1.23540111E-22
  0.105999999         5.62868790E-23
  0.107000001        -6.81877356E-23
  0.108000003        -2.07537048E-22
  0.108999997        -2.94412003E-22
  0.109999999        -2.62141685E-22
  0.111000001        -8.02952107E-23
  0.112000003         2.14918401E-22
  0.112999998         5.13612467E-22
  0.114000000         6.61388556E-22
  0.115000002         5.23253534E-22
  0.115999997         6.18227262E-23
  0.116999999        -6.06024101E-22
  0.118000001        -1.21201973E-21
  0.119000003        -1.41972819E-21
  0.119999997        -9.74332025E-22
  0.120999999         1.34880473E-22
  0.122000001         1.57961417E-21
  0.123000003         2.73935158E-21
  0.123999998         2.91660996E-21
  0.125000000         1.66914698E-21
  0.126000002        -8.71634906E-22
  0.127000004        -3.86581648E-21
  0.128000006        -5.94759339E-21
  0.128999993        -5.74156282E-21
  0.129999995        -2.56199586E-21
  0.130999997         3.00149574E-21
  0.131999999         8.95069927E-21
  0.133000001         1.24184650E-20
  0.134000003         1.08305601E-20
  0.135000005         3.30385570E-21
  0.136000007        -8.35244897E-21
  0.136999995        -1.96699672E-20
  0.137999997        -2.49059607E-20
  0.138999999        -1.95127787E-20
  0.140000001        -2.79050834E-21
  0.141000003         2.05550796E-20
  0.142000005         4.10736242E-20
  0.143000007         4.78044834E-20
  0.143999994         3.32527802E-20
  0.144999996        -1.85192976E-21
  0.145999998        -4.64550642E-20
  0.147000000        -8.15741351E-20
  0.148000002        -8.73298194E-20
  0.149000004        -5.24738177E-20
  0.150000006         1.75915095E-20
  0.150999993         9.87134983E-20
  0.151999995         1.54541740E-19
  0.152999997         1.50943569E-19
  0.153999999         7.33673143E-20
  0.155000001        -6.06017849E-20
  0.156000003        -2.01026098E-19
  0.157000005        -2.81249499E-19
  0.158000007        -2.46017809E-19
  0.158999994        -8.16377634E-20
  0.159999996         1.66113803E-19
  0.160999998         3.98434290E-19
  0.162000000         4.97652898E-19
  0.163000003         3.79733209E-19
  0.164000005         4.42652748E-20
  0.165000007        -4.03165866E-19
  0.165999994        -7.74398631E-19
  0.166999996        -8.68417634E-19
  0.167999998        -5.65457358E-19
  0.169000000         9.39100605E-20
  0.170000002         8.86824160E-19
  0.171000004         1.46838083E-18
  0.172000006         1.50567778E-18
  0.172999993         8.39620737E-19
  0.173999995        -3.96171227E-19
  0.174999997        -1.76655152E-18
  0.175999999        -2.66673455E-18
  0.177000001        -2.56558153E-18
  0.178000003        -1.27108761E-18
  0.179000005         9.02227194E-19
  0.180000007         3.16513568E-18
  0.180999994         4.51417317E-18
  0.181999996         4.14858126E-18
  0.182999998         1.88187684E-18
  0.184000000        -1.64606802E-18
  0.185000002        -5.09759937E-18
  0.186000004        -6.91644588E-18
  0.187000006        -6.00383529E-18
  0.187999994        -2.31322899E-18
  0.188999996         2.93287722E-18
  0.189999998         7.58142547E-18
  0.191000000         9.39174912E-18
  0.192000002         7.08162226E-18
  0.193000004         1.11719251E-18
  0.194000006        -6.18287564E-18
  0.194999993        -1.14174408E-17
  0.195999995        -1.15543218E-17
  0.196999997        -5.50288520E-18
  0.197999999         4.92774983E-18
  0.199000001         1.52800939E-17
  0.200000003         2.00503551E-17
  0.201000005         1.51657031E-17
  0.202000007         3.41384573E-19
  0.202999994        -1.98349805E-17
  0.203999996        -3.68912031E-17
  0.204999998        -4.15278317E-17
  0.206000000        -2.77767084E-17
  0.207000002         3.42018586E-18
  0.208000004         4.29730122E-17
  0.209000006         7.57982521E-17
  0.209999993         8.60901524E-17
  0.210999995         6.39856960E-17
  0.211999997         1.09621300E-17
  0.213000000        -5.86059383E-17
  0.214000002        -1.21054878E-16
  0.215000004        -1.51492425E-16
  0.216000006        -1.33555655E-16
  0.216999993        -6.69818104E-17
  0.217999995         3.04701839E-17
  0.218999997         1.28201295E-16
  0.219999999         1.93598380E-16
  0.221000001         2.04423117E-16
  0.222000003         1.57579164E-16
  0.223000005         7.01935542E-17
  0.224000007        -2.79346404E-17
  0.224999994        -1.07543498E-16
  0.225999996        -1.52815954E-16
  0.226999998        -1.67537267E-16
  0.228000000        -1.70665148E-16
  0.229000002        -1.82403066E-16
  0.230000004        -2.07079597E-16
  0.231000006        -2.22112156E-16
  0.231999993        -1.81175133E-16
  0.232999995        -3.41448709E-17
  0.233999997         2.41745930E-16
  0.234999999         6.12453525E-16
  0.236000001         9.75135987E-16
  0.237000003         1.17544319E-15
  0.238000005         1.05546679E-15
  0.238999993         5.20181779E-16
  0.239999995        -4.01065018E-16
  0.240999997        -1.52508632E-15
  0.241999999        -2.53741319E-15
  0.243000001        -3.07019585E-15
  0.244000003        -2.81770846E-15
  0.245000005        -1.65420114E-15
  0.246000007         2.87644342E-16
  0.246999994         2.61088313E-15
  0.247999996         4.73247980E-15
  0.248999998         6.02884128E-15
  0.250000000         6.00808559E-15
  0.250999987         4.45775991E-15
  0.252000004         1.52383906E-15
  0.252999991        -2.30081254E-15
  0.254000008        -6.27153443E-15
  0.254999995        -9.53970857E-15
  0.256000012        -1.13128653E-14
  0.256999999        -1.09936847E-14
  0.257999986        -8.28293106E-15
  0.259000003        -3.24996632E-15
  0.259999990         3.61830664E-15
  0.261000007         1.13891898E-14
  0.261999995         1.86986504E-14
  0.263000011         2.38527205E-14
  0.263999999         2.50636575E-14
  0.264999986         2.08405206E-14
  0.266000003         1.04935744E-14
  0.266999990        -5.36358033E-15
  0.268000007        -2.44905855E-14
  0.268999994        -4.30635684E-14
  0.270000011        -5.62132094E-14
  0.270999998        -5.90560248E-14
  0.272000015        -4.80476492E-14
  0.273000002        -2.23308378E-14
  0.273999989         1.53321383E-14
  0.275000006         5.84183716E-14
  0.275999993         9.75076953E-14
  0.277000010         1.22106413E-13
  0.277999997         1.23103757E-13
  0.279000014         9.53088452E-14
  0.280000001         3.94240440E-14
  0.280999988        -3.71141547E-14
  0.282000005        -1.20765309E-13
  0.282999992        -1.93999520E-13
  0.284000009        -2.38573240E-13
  0.284999996        -2.39376552E-13
  0.286000013        -1.88120231E-13
  0.287000000        -8.61265811E-14
  0.287999988         5.43936742E-14
  0.289000005         2.10993468E-13
  0.289999992         3.53725512E-13
  0.291000009         4.49816237E-13
  0.291999996         4.69793583E-13
  0.293000013         3.94220409E-13
  0.294000000         2.19843769E-13
  0.294999987        -3.62592714E-14
  0.296000004        -3.35953840E-13
  0.296999991        -6.23791600E-13
  0.298000008        -8.35519154E-13
  0.298999995        -9.10541933E-13
  0.300000012        -8.06314488E-13
  0.300999999        -5.11609472E-13
  0.301999986        -5.51745810E-14
  0.303000003         4.93310145E-13
  0.303999990         1.03172343E-12
  0.305000007         1.44310768E-12
  0.305999994         1.61967412E-12
  0.307000011         1.48843676E-12
  0.307999998         1.03257940E-12
  0.308999985         3.02902235E-13
  0.310000002        -5.84606419E-13
  0.310999990        -1.46615901E-12
  0.312000006        -2.16019195E-12
  0.312999994        -2.50454930E-12
  0.314000010        -2.39323578E-12
  0.314999998        -1.80460681E-12
  0.316000015        -8.14088109E-13
  0.317000002         4.12706273E-13
  0.317999989         1.64677647E-12
  0.319000006         2.63865926E-12
  0.319999993         3.17000245E-12
  0.321000010         3.10380411E-12
  0.321999997         2.42247238E-12
  0.323000014         1.24401086E-12
  0.324000001        -1.90185690E-13
  0.324999988        -1.55741706E-12
  0.326000005        -2.52091533E-12
  0.326999992        -2.81104003E-12
  0.328000009        -2.30386999E-12
  0.328999996        -1.07783845E-12
  0.330000013         5.69841429E-13
  0.331000000         2.15948396E-12
  0.331999987         3.12037570E-12
  0.333000004         2.92668233E-12
  0.333999991         1.25370786E-12
  0.335000008        -1.88010631E-12
  0.335999995        -6.02430475E-12
  0.337000012        -1.02951432E-11
  0.338000000        -1.34826872E-11
  0.338999987        -1.42655774E-11
  0.340000004        -1.15071711E-11
  0.340999991        -4.58245724E-12
  0.342000008         6.33214878E-12
  0.342999995         2.00791848E-11
  0.344000012         3.45138432E-11
  0.344999999         4.67090429E-11
  0.345999986         5.33726778E-11
  0.347000003         5.14346170E-11
  0.347999990         3.87193437E-11
  0.349000007         1.45886029E-11
  0.349999994        -1.95756363E-11
  0.351000011        -6.01692168E-11
  0.351999998        -1.01534052E-10
  0.352999985        -1.36532396E-10
  0.354000002        -1.57495350E-10
  0.354999989        -1.57442129E-10
  0.356000006        -1.31403027E-10
  0.356999993        -7.76363973E-11
  0.358000010         1.48209429E-12
  0.358999997         9.90944479E-11
  0.360000014         2.04154110E-10
  0.361000001         3.02421088E-10
  0.361999989         3.78091419E-10
  0.363000005         4.15885243E-10
  0.363999993         4.03327399E-10
  0.365000010         3.32900874E-10
  0.365999997         2.03746187E-10
  0.367000014         2.26234344E-11
  0.368000001        -1.96055380E-10
  0.368999988        -4.31194414E-10
  0.370000005        -6.56915633E-10
  0.370999992        -8.45196468E-10
  0.372000009        -9.68942038E-10
  0.372999996        -1.00512798E-09
  0.374000013        -9.37639189E-10
  0.375000000        -7.59471097E-10
  0.375999987        -4.74049411E-10
  0.377000004        -9.55443710E-11
  0.377999991         3.51805779E-10
  0.379000008         8.35219227E-10
  0.379999995         1.31549771E-09
  0.381000012         1.74946024E-09
  0.381999999         2.09239204E-09
  0.382999986         2.30028818E-09
  0.384000003         2.33179120E-09
  0.384999990         2.14986273E-09
  0.386000007         1.72337378E-09
  0.386999995         1.02889886E-09
  0.388000011         5.30224441E-11
  0.388999999        -1.20459120E-09
  0.389999986        -2.72725864E-09
  0.391000003        -4.47656401E-09
  0.391999990        -6.38719078E-09
  0.393000007        -8.36179215E-09
  0.393999994        -1.02664810E-08
  0.395000011        -1.19274928E-08
  0.395999998        -1.31293776E-08
  0.397000015        -1.36147689E-08
  0.398000002        -1.30854252E-08
  0.398999989        -1.12037997E-08
  0.400000006        -7.59410046E-09
  0.400999993        -1.84148286E-09
  0.402000010         6.51204290E-09
  0.402999997         1.79764239E-08
  0.404000014         3.31283907E-08
  0.405000001         5.26334816E-08
  0.405999988         7.72759137E-08
  0.407000005         1.07996911E-07
  0.407999992         1.45941797E-07
  0.409000009         1.92515600E-07
  0.409999996         2.49446856E-07
  0.411000013         3.18859350E-07
  0.412000000         4.03351521E-07
  0.412999988         5.06082756E-07
  0.414000005         6.30867873E-07
  0.414999992         7.82280495E-07
  0.416000009         9.65767754E-07
  0.416999996         1.18777859E-06
  0.418000013         1.45590968E-06
  0.419000000         1.77907270E-06
  0.419999987         2.16768626E-06
  0.421000004         2.63389802E-06
  0.421999991         3.19183846E-06
  0.423000008         3.85790827E-06
  0.423999995         4.65110315E-06
  0.425000012         5.59337423E-06
  0.425999999         6.71002363E-06
  0.426999986         8.03013427E-06
  0.428000003         9.58703095E-06
  0.428999990         1.14187715E-05
  0.430000007         1.35686641E-05
  0.430999994         1.60858090E-05
  0.432000011         1.90256669E-05
  0.432999998         2.24506639E-05
  0.433999985         2.64308037E-05
  0.435000002         3.10443174E-05
  0.435999990         3.63783074E-05
  0.437000006         4.25294165E-05
  0.437999994         4.96044777E-05
  0.439000010         5.77211395E-05
  0.439999998         6.70084773E-05
  0.441000015         7.76075249E-05
  0.442000002         8.96717756E-05
  0.442999989         1.03367543E-04
  0.444000006         1.18874203E-04
  0.444999993         1.36384289E-04
  0.446000010         1.56103459E-04
  0.446999997         1.78250091E-04
  0.448000014         2.03054791E-04
  0.449000001         2.30759601E-04
  0.449999988         2.61616864E-04
  0.451000005         2.95887759E-04
  0.451999992         3.33840580E-04
  0.453000009         3.75748525E-04
  0.453999996         4.21887089E-04
  0.455000013         4.72531246E-04
  0.456000000         5.27951925E-04
  0.456999987         5.88412338E-04
  0.458000004         6.54163654E-04
  0.458999991         7.25440274E-04
  0.460000008         8.02454539E-04
  0.460999995         8.85391200E-04
  0.462000012         9.74401250E-04
  0.463000000         1.06959580E-03
  0.463999987         1.17103953E-03
  0.465000004         1.27874361E-03
  0.465999991         1.39265857E-03
  0.467000008         1.51266728E-03
  0.467999995         1.63857848E-03
  0.469000012         1.77011953E-03
  0.469999999         1.90693024E-03
  0.470999986         2.04855762E-03
  0.472000003         2.19444977E-03
  0.472999990         2.34395172E-03
  0.474000007         2.49630190E-03
  0.474999994         2.65062926E-03
  0.476000011         2.80595315E-03
  0.476999998         2.96118297E-03
  0.477999985         3.11511988E-03
  0.479000002         3.26646050E-03
  0.479999989         3.41380085E-03
  0.481000006         3.55564430E-03
  0.481999993         3.69040924E-03
  0.483000010         3.81644000E-03
  0.483999997         3.93202016E-03
  0.485000014         4.03538765E-03
  0.486000001         4.12474945E-03
  0.486999989         4.19830065E-03
  0.488000005         4.25424520E-03
  0.488999993         4.29081498E-03
  0.490000010         4.30629402E-03
  0.490999997         4.29904135E-03
  0.492000014         4.26751608E-03
  0.493000001         4.21029888E-03
  0.493999988         4.12611850E-03
  0.495000005         4.01387503E-03
  0.495999992         3.87266162E-03
  0.497000009         3.70178674E-03
  0.497999996         3.50079406E-03
  0.499000013         3.26948101E-03
  0.500000000         3.00791417E-03
  0.500999987         2.71644234E-03
  0.501999974         2.39570695E-03
  0.503000021         2.04664655E-03
  0.504000008         1.67050096E-03
  0.504999995         1.26880954E-03
  0.505999982         8.43406189E-04
  0.507000029         3.96410702E-04
  0.508000016        -6.97839860E-05
  0.509000003        -5.52529003E-04
  0.509999990        -1.04894117E-03
  0.510999978        -1.55592791E-03
  0.512000024        -2.07021600E-03
  0.513000011        -2.58838315E-03
  0.513999999        -3.10689141E-03
  0.514999986        -3.62212374E-03
  0.515999973        -4.13042121E-03
  0.517000020        -4.62812418E-03
  0.518000007        -5.11161052E-03
  0.518999994        -5.57733700E-03
  0.519999981        -6.02187961E-03
  0.521000028        -6.44197129E-03
  0.522000015        -6.83453819E-03
  0.523000002        -7.19673373E-03
  0.523999989        -7.52597116E-03
  0.524999976        -7.81995244E-03
  0.526000023        -8.07669107E-03
  0.527000010        -8.29453580E-03
  0.527999997        -8.47218372E-03
  0.528999984        -8.60869512E-03
  0.529999971        -8.70350190E-03
  0.531000018        -8.75640567E-03
  0.532000005        -8.76757689E-03
  0.532999992        -8.73755105E-03
  0.533999979        -8.66721105E-03
  0.535000026        -8.55777506E-03
  0.536000013        -8.41077790E-03
  0.537000000        -8.22804589E-03
  0.537999988        -8.01167451E-03
  0.538999975        -7.76399300E-03
  0.540000021        -7.48753641E-03
  0.541000009        -7.18501071E-03
  0.541999996        -6.85925968E-03
  0.542999983        -6.51323143E-03
  0.544000030        -6.14994299E-03
  0.545000017        -5.77244628E-03
  0.546000004        -5.38379513E-03
  0.546999991        -4.98701073E-03
  0.547999978        -4.58505284E-03
  0.549000025        -4.18078993E-03
  0.550000012        -3.77697428E-03
  0.550999999        -3.37621942E-03
  0.551999986        -2.98097963E-03
  0.552999973        -2.59353383E-03
  0.554000020        -2.21597101E-03
  0.555000007        -1.85017893E-03
  0.555999994        -1.49783585E-03
  0.556999981        -1.16040499E-03
  0.558000028        -8.39133514E-04
  0.559000015        -5.35052794E-04
  0.560000002        -2.48982309E-04
  0.560999990         1.84642413E-05
  0.561999977         2.66871299E-04
  0.563000023         4.96011693E-04
  0.564000010         7.05835351E-04
  0.564999998         8.96456419E-04
  0.565999985         1.06813957E-03
  0.566999972         1.22128509E-03
  0.568000019         1.35641429E-03
  0.569000006         1.47415407E-03
  0.569999993         1.57522212E-03
  0.570999980         1.66041194E-03
  0.572000027         1.73057767E-03
  0.573000014         1.78662036E-03
  0.574000001         1.82947423E-03
  0.574999988         1.86009367E-03
  0.575999975         1.87944225E-03
  0.577000022         1.88848213E-03
  0.578000009         1.88816490E-03
  0.578999996         1.87942327E-03
  0.579999983         1.86316413E-03
  0.580999970         1.84026174E-03
  0.582000017         1.81155186E-03
  0.583000004         1.77782739E-03
  0.583999991         1.73983478E-03
  0.584999979         1.69827207E-03
  0.586000025         1.65378733E-03
  0.587000012         1.60697848E-03
  0.588000000         1.55839324E-03
  0.588999987         1.50852907E-03
  0.589999974         1.45783403E-03
  0.591000021         1.40670780E-03
  0.592000008         1.35550369E-03
  0.592999995         1.30453112E-03
  0.593999982         1.25405844E-03
  0.595000029         1.20431639E-03
  0.596000016         1.15550042E-03
  0.597000003         1.10777374E-03
  0.597999990         1.06126990E-03
  0.598999977         1.01609551E-03
  0.600000024         9.72332666E-04
  0.601000011         9.30042064E-04
  0.601999998         8.89265270E-04
  0.602999985         8.50027311E-04
  0.603999972         8.12338782E-04
  0.605000019         7.76197412E-04
  0.606000006         7.41589814E-04
  0.606999993         7.08492880E-04
  0.607999980         6.76875701E-04
  0.609000027         6.46701141E-04
  0.610000014         6.17927348E-04
  0.611000001         5.90508978E-04
  0.611999989         5.64398128E-04
  0.612999976         5.39544679E-04
  0.614000022         5.15897234E-04
  0.615000010         4.93403408E-04
  0.615999997         4.72010579E-04
  0.616999984         4.51666303E-04
  0.617999971         4.32318484E-04
  0.619000018         4.13915113E-04
  0.620000005         3.96404008E-04
  0.620999992         3.79732344E-04
  0.621999979         3.63846426E-04
  0.623000026         3.48691829E-04
  0.624000013         3.34213633E-04
  0.625000000         3.20356950E-04
  0.625999987         3.07067239E-04
  0.626999974         2.94290308E-04
  0.628000021         2.81971967E-04
  0.629000008         2.70057237E-04
  0.629999995         2.58489774E-04
  0.630999982         2.47211108E-04
  0.632000029         2.36160296E-04
  0.633000016         2.25273703E-04
  0.634000003         2.14484797E-04
  0.634999990         2.03723946E-04
  0.635999978         1.92917956E-04
  0.637000024         1.81989526E-04
  0.638000011         1.70856525E-04
  0.638999999         1.59431394E-04
  0.639999986         1.47620653E-04
  0.640999973         1.35324532E-04
  0.642000020         1.22436846E-04
  0.643000007         1.08844950E-04
  0.643999994         9.44298372E-05
  0.644999981         7.90662234E-05
  0.646000028         6.26226465E-05
  0.647000015         4.49615909E-05
  0.648000002         2.59395674E-05
  0.648999989         5.40721521E-06
  0.649999976        -1.67905218E-05
  0.651000023        -4.08141350E-05
  0.652000010        -6.68291468E-05
  0.652999997        -9.50055110E-05
  0.653999984        -1.25516803E-04
  0.654999971        -1.58539158E-04
  0.656000018        -1.94249864E-04
  0.657000005        -2.32825652E-04
  0.657999992        -2.74440536E-04
  0.658999979        -3.19263228E-04
  0.660000026        -3.67454370E-04
  0.661000013        -4.19163553E-04
  0.662000000        -4.74526401E-04
  0.662999988        -5.33661805E-04
  0.663999975        -5.96669328E-04
  0.665000021        -6.63626764E-04
  0.666000009        -7.34587258E-04
  0.666999996        -8.09576537E-04
  0.667999983        -8.88589479E-04
  0.669000030        -9.71586967E-04
  0.670000017        -1.05849258E-03
  0.671000004        -1.14918977E-03
  0.671999991        -1.24351960E-03
  0.672999978        -1.34127843E-03
  0.674000025        -1.44221610E-03
  0.675000012        -1.54603424E-03
  0.675999999        -1.65238464E-03
  0.676999986        -1.76086731E-03
  0.677999973        -1.87102973E-03
  0.679000020        -1.98236736E-03
  0.680000007        -2.09432514E-03
  0.680999994        -2.20630062E-03
  0.681999981        -2.31764768E-03
  0.683000028        -2.42768019E-03
  0.684000015        -2.53567705E-03
  0.685000002        -2.64088647E-03
  0.685999990        -2.74253101E-03
  0.686999977        -2.83981464E-03
  0.688000023        -2.93192849E-03
  0.689000010        -3.01805930E-03