  -1.2000000000000000         -4.4788269669141586E-006
  -1.1960937500000000         -4.4852667755281381E-006
  -1.1921875000000000         -4.4917256682887680E-006
  -1.1882812500000000         -4.4982014127073767E-006
  -1.1843750000000000         -4.5046913098856373E-006
  -1.1804687500000000         -4.5111915693483198E-006
  -1.1765625000000000         -4.5176972936781272E-006
  -1.1726562500000000         -4.5242048150184687E-006
  -1.1687500000000000         -4.5307098340389250E-006
  -1.1648437500000000         -4.5372096698365032E-006
  -1.1609375000000000         -4.5437029985559190E-006
  -1.1570312500000000         -4.5501897792276557E-006
  -1.1531250000000000         -4.5566719074386993E-006
  -1.1492187500000000         -4.5631517548156757E-006
  -1.1453125000000000         -4.5696331680844596E-006
  -1.1414062500000000         -4.5761202787017009E-006
  -1.1375000000000000         -4.5826177062697017E-006
  -1.1335937500000000         -4.5891292073780261E-006
  -1.1296875000000000         -4.5956576058923214E-006
  -1.1257812500000000         -4.6022050165396296E-006
  -1.1218750000000000         -4.6087718394720970E-006
  -1.1179687500000000         -4.6153565770280438E-006
  -1.1140625000000000         -4.6219567965572244E-006
  -1.1101562500000000         -4.6285694831750406E-006
  -1.1062500000000000         -4.6351900104852525E-006
  -1.1023437500000000         -4.6418142267712276E-006
  -1.0984375000000000         -4.6484378714452260E-006
  -1.0945312500000000         -4.6550577976555127E-006
  -1.0906250000000000         -4.6616713956514211E-006
  -1.0867187500000000         -4.6682784281757178E-006
  -1.0828125000000000         -4.6748790502566916E-006
  -1.0789062500000000         -4.6814758053904350E-006
  -1.0750000000000000         -4.6880717243140726E-006
  -1.0710937500000000         -4.6946705947886300E-006
  -1.0671875000000000         -4.7012770182992352E-006
  -1.0632812500000000         -4.7078948236604627E-006
  -1.0593750000000000         -4.7145279395372206E-006
  -1.0554687500000000         -4.7211784919419792E-006
  -1.0515625000000000         -4.7278484994543092E-006
  -1.0476562500000000         -4.7345372713426913E-006
  -1.0437500000000000         -4.7412436046016202E-006
  -1.0398437500000000         -4.7479652891338548E-006
  -1.0359375000000000         -4.7546985552955437E-006
  -1.0320312500000000         -4.7614396471525568E-006
  -1.0281250000000000         -4.7681842859999800E-006
  -1.0242187500000000         -4.7749290929135740E-006
  -1.0203125000000000         -4.7816710921282959E-006
  -1.0164062500000000         -4.7884082899756893E-006
  -1.0125000000000000         -4.7951405045823559E-006
  -1.0085937500000000         -4.8018681502248487E-006
  -1.0046875000000000         -4.8085933551454082E-006
  -1.0007812500000000         -4.8153191183761067E-006
 -0.99687499999999996         -4.8220486939957034E-006
 -0.99296874999999996         -4.8287861971209572E-006
 -0.98906249999999996         -4.8355346407835724E-006
 -0.98515624999999996         -4.8422965350057260E-006
 -0.98124999999999996         -4.8490746372737154E-006
 -0.97734374999999996         -4.8558690365263898E-006
 -0.97343749999999996         -4.8626798050614416E-006
 -0.96953124999999996         -4.8695059554265542E-006
 -0.96562499999999996         -4.8763446681521788E-006
 -0.96171874999999996         -4.8831931507008461E-006
 -0.95781249999999996         -4.8900482035890007E-006
 -0.95390624999999996         -4.8969064276324255E-006
 -0.94999999999999996         -4.9037654916782250E-006
 -0.94609374999999996         -4.9106231039829662E-006
 -0.94218749999999996         -4.9174783937946285E-006
 -0.93828124999999996         -4.9243313726914816E-006
 -0.93437499999999996         -4.9311830482639810E-006
 -0.93046874999999996         -4.9380350305969120E-006
 -0.92656249999999996         -4.9448904032650966E-006
 -0.92265624999999996         -4.9517515361754622E-006
 -0.91874999999999996         -4.9586222284584947E-006
 -0.91484374999999996         -4.9655051293961688E-006
 -0.91093749999999996         -4.9724019560801335E-006
 -0.90703124999999996         -4.9793143951671236E-006
 -0.90312499999999996         -4.9862431558684228E-006
 -0.89921874999999996         -4.9931875833477895E-006
 -0.89531249999999996         -5.0001461466612313E-006
 -0.89140624999999996         -5.0071163290653089E-006
 -0.88749999999999996         -5.0140954584983868E-006
 -0.88359374999999996         -5.0210810312713144E-006
 -0.87968749999999996         -5.0280695462067383E-006
 -0.87578124999999996         -5.0350590132550253E-006
 -0.87187499999999996         -5.0420477797291403E-006
 -0.86796874999999996         -5.0490347433495034E-006
 -0.86406249999999996         -5.0560202179709364E-006
 -0.86015624999999996         -5.0630055475141807E-006
 -0.85624999999999996         -5.0699922581502537E-006
 -0.85234374999999996         -5.0769826850391037E-006
 -0.84843749999999996         -5.0839797227953723E-006
 -0.84453124999999996         -5.0909864407014059E-006
 -0.84062499999999996         -5.0980053646319100E-006
 -0.83671874999999996         -5.1050379156623288E-006
 -0.83281249999999996         -5.1120856417610037E-006
 -0.82890624999999996         -5.1191489858911362E-006
 -0.82499999999999996         -5.1262270519635535E-006
 -0.82109374999999996         -5.1333187026739578E-006
 -0.81718749999999996         -5.1404215300659880E-006
 -0.81328124999999996         -5.1475335261673577E-006
 -0.80937499999999996         -5.1546516717238249E-006
 -0.80546874999999996         -5.1617734956239562E-006
 -0.80156249999999996         -5.1688969904895741E-006
 -0.79765624999999996         -5.1760208448209408E-006
 -0.79374999999999996         -5.1831440521204266E-006
 -0.78984374999999996         -5.1902667086308939E-006
 -0.78593749999999996         -5.1973900854766719E-006
 -0.78203124999999996         -5.2045161538621063E-006
 -0.77812499999999996         -5.2116468357407125E-006
 -0.77421874999999996         -5.2187847386476730E-006
 -0.77031249999999996         -5.2259323793150717E-006
 -0.76640624999999996         -5.2330919673414306E-006
 -0.76249999999999996         -5.2402654095878085E-006
 -0.75859374999999996         -5.2474536238188616E-006
 -0.75468749999999996         -5.2546568186606414E-006
 -0.75078124999999996         -5.2618747433293645E-006
 -0.74687499999999996         -5.2691053877939751E-006
 -0.74296874999999996         -5.2763467532248105E-006
 -0.73906249999999996         -5.2835967409418745E-006
 -0.73515624999999996         -5.2908533888107642E-006
 -0.73124999999999996         -5.2981140214900925E-006
 -0.72734374999999996         -5.3053763551089081E-006
 -0.72343749999999996         -5.3126396737460234E-006
 -0.71953124999999996         -5.3199036620092712E-006
 -0.71562499999999996         -5.3271688022940277E-006
 -0.71171874999999996         -5.3344360821479982E-006
 -0.70781249999999996         -5.3417075365133531E-006
 -0.70390624999999996         -5.3489851800722807E-006
 -0.69999999999999996         -5.3562713541118837E-006
 -0.69609374999999996         -5.3635683000575792E-006
 -0.69218749999999996         -5.3708780659671507E-006
 -0.68828124999999996         -5.3782017766826096E-006
 -0.68437499999999996         -5.3855396838582947E-006
 -0.68046874999999996         -5.3928916939655505E-006
 -0.67656249999999996         -5.4002562947489582E-006
 -0.67265624999999996         -5.4076323878149664E-006
 -0.66874999999999996         -5.4150174475674249E-006
 -0.66484374999999996         -5.4224096526917784E-006
 -0.66093749999999996         -5.4298064846030480E-006
 -0.65703124999999996         -5.4372064046700371E-006
 -0.65312499999999996         -5.4446078991840165E-006
 -0.64921874999999996         -5.4520105024134756E-006
 -0.64531249999999996         -5.4594146764938084E-006
 -0.64140624999999996         -5.4668212946240391E-006
 -0.63749999999999996         -5.4742323368612237E-006
 -0.63359374999999996         -5.4816494539319453E-006
 -0.62968749999999996         -5.4890748690717673E-006
 -0.62578124999999996         -5.4965111640320933E-006
 -0.62187499999999996         -5.5039597483970647E-006
 -0.61796874999999996         -5.5114220423694618E-006
 -0.61406249999999996         -5.5188984548587537E-006
 -0.61015624999999996         -5.5263888376570445E-006
 -0.60624999999999996         -5.5338922337733840E-006
 -0.60234374999999996         -5.5414075650742003E-006
 -0.59843749999999996         -5.5489326110381344E-006
 -0.59453124999999996         -5.5564652233688420E-006
 -0.59062499999999996         -5.5640032452941443E-006
 -0.58671874999999996         -5.5715448992785945E-006
 -0.58281249999999996         -5.5790891698386580E-006
 -0.57890624999999996         -5.5866358137958283E-006
 -0.57499999999999996         -5.5941850610911548E-006
 -0.57109374999999996         -5.6017373078953697E-006
 -0.56718749999999996         -5.6092943518934116E-006
 -0.56328124999999996         -5.6168582755009936E-006
 -0.55937499999999996         -5.6244309130869603E-006
 -0.55546874999999996         -5.6320142486927133E-006
 -0.55156249999999996         -5.6396097210150841E-006
 -0.54765624999999996         -5.6472185914416736E-006
 -0.54374999999999996         -5.6548416411188669E-006
 -0.53984374999999996         -5.6624780654538283E-006
 -0.53593749999999996         -5.6701268076052767E-006
 -0.53203124999999996         -5.6777862599589500E-006
 -0.52812499999999996         -5.6854550768630530E-006
 -0.52421874999999996         -5.6931310469388504E-006
 -0.52031249999999996         -5.7008121861449405E-006
 -0.51640624999999996         -5.7084971556348228E-006
 -0.51249999999999996         -5.7161856554806274E-006
 -0.50859374999999996         -5.7238770292974152E-006
 -0.50468749999999996         -5.7315721406428671E-006
 -0.50078124999999996         -5.7392715333015025E-006
 -0.49687499999999996         -5.7469774277946793E-006
 -0.49296874999999996         -5.7546915835520222E-006
 -0.48906249999999996         -5.7624157371508158E-006
 -0.48515624999999996         -5.7701517818407180E-006
 -0.48124999999999996         -5.7779005588144348E-006
 -0.47734374999999996         -5.7856632518061451E-006
 -0.47343749999999996         -5.7934399196966617E-006
 -0.46953124999999996         -5.8012300669636423E-006
 -0.46562499999999996         -5.8090320483202665E-006
 -0.46171874999999996         -5.8168445700797740E-006
 -0.45781249999999996         -5.8246653798939105E-006
 -0.45390624999999996         -5.8324927911294625E-006
 -0.44999999999999996         -5.8403253651622790E-006
 -0.44609374999999996         -5.8481618948230859E-006
 -0.44218749999999996         -5.8560013849610091E-006
 -0.43828124999999996         -5.8638442493538798E-006
 -0.43437499999999996         -5.8716911741661163E-006
 -0.43046874999999996         -5.8795437595134462E-006
 -0.42656249999999996         -5.8874035009260985E-006
 -0.42265624999999996         -5.8952725806701176E-006
 -0.41874999999999996         -5.9031528553112561E-006
 -0.41484374999999996         -5.9110460933377273E-006
 -0.41093749999999996         -5.9189534131858330E-006
 -0.40703124999999996         -5.9268753124366880E-006
 -0.40312499999999996         -5.9348116434765038E-006
 -0.39921874999999996         -5.9427613813022481E-006
 -0.39531249999999996         -5.9507230941328721E-006
 -0.39140624999999996         -5.9586947887843512E-006
 -0.38749999999999996         -5.9666746740001645E-006
 -0.38359374999999996         -5.9746609181256739E-006
 -0.37968749999999996         -5.9826517187029652E-006
 -0.37578124999999996         -5.9906459280990135E-006
 -0.37187499999999996         -5.9986430757866218E-006
 -0.36796874999999996         -6.0066434182884960E-006
 -0.36406249999999996         -6.0146482010178680E-006
 -0.36015624999999996         -6.0226583718957490E-006
 -0.35624999999999996         -6.0306764987579435E-006
 -0.35234374999999996         -6.0387044478001912E-006
 -0.34843749999999996         -6.0467440735294728E-006
 -0.34453124999999996         -6.0547973192235499E-006
 -0.34062499999999996         -6.0628651737002699E-006
 -0.33671874999999996         -6.0709481074868261E-006
 -0.33281249999999996         -6.0790462411544413E-006
 -0.32890624999999996         -6.0871583292898842E-006
 -0.32499999999999996         -6.0952823653762861E-006
 -0.32109374999999996         -6.1034171561599713E-006
 -0.31718749999999996         -6.1115602607093836E-006
 -0.31328124999999996         -6.1197093066878023E-006
 -0.30937499999999996         -6.1278629594389505E-006
 -0.30546874999999996         -6.1360201302946491E-006
 -0.30156249999999996         -6.1441800985380268E-006
 -0.29765624999999996         -6.1523430936378707E-006
 -0.29374999999999996         -6.1605105198225904E-006
 -0.28984374999999996         -6.1686839725454263E-006
 -0.28593749999999996         -6.1768651088659914E-006
 -0.28203124999999996         -6.1850568126903987E-006
 -0.27812499999999996         -6.1932605185252576E-006
 -0.27421874999999996         -6.2014785398264729E-006
 -0.27031249999999996         -6.2097118863273055E-006
 -0.26640624999999996         -6.2179613057985464E-006
 -0.26249999999999996         -6.2262260142955725E-006
 -0.25859374999999996         -6.2345053803445559E-006
 -0.25468749999999996         -6.2427978382603819E-006
 -0.25078124999999996         -6.2511011583904258E-006
 -0.24687499999999996         -6.2594133065811488E-006
 -0.24296874999999996         -6.2677315416832126E-006
 -0.23906249999999996         -6.2760544610169049E-006
 -0.23515624999999996         -6.2843806507011199E-006
 -0.23124999999999996         -6.2927095418343500E-006
 -0.22734374999999996         -6.3010411365480452E-006
 -0.22343749999999996         -6.3093768369278123E-006
 -0.21953124999999996         -6.3177179474735741E-006
 -0.21562499999999996         -6.3260663839104537E-006
 -0.21171874999999996         -6.3344250031746803E-006
 -0.20781249999999996         -6.3427957327755212E-006
 -0.20390624999999996         -6.3511803642594095E-006
 -0.19999999999999996         -6.3595807252852844E-006
 -0.19609374999999996         -6.3679973258738384E-006
 -0.19218749999999996         -6.3764305798142584E-006
 -0.18828124999999996         -6.3848793261520283E-006
 -0.18437499999999996         -6.3933422153379744E-006
 -0.18046874999999996         -6.4018173836120070E-006
 -0.17656249999999996         -6.4103027260829442E-006
 -0.17265624999999996         -6.4187954155826827E-006
 -0.16874999999999996         -6.4272936466491935E-006
 -0.16484374999999996         -6.4357960961931130E-006
 -0.16093749999999996         -6.4443017384227792E-006
 -0.15703124999999996         -6.4528107682545236E-006
 -0.15312499999999996         -6.4613239419236172E-006
 -0.14921874999999996         -6.4698421840000093E-006
 -0.14531249999999996         -6.4783675807967931E-006
 -0.14140624999999996         -6.4869022553223239E-006
 -0.13749999999999996         -6.4954489737210870E-006
 -0.13359374999999996         -6.5040096253310725E-006
 -0.12968749999999996         -6.5125855540730227E-006
 -0.12578124999999996         -6.5211781786850537E-006
 -0.12187499999999996         -6.5297877070331505E-006
 -0.11796874999999996         -6.5384137689505225E-006
 -0.11406249999999996         -6.5470553489536335E-006
 -0.11015624999999996         -6.5557103815607689E-006
 -0.10624999999999996         -6.5643766598876129E-006
 -0.10234374999999996         -6.5730516789748723E-006
  -9.8437499999999956E-002    -6.5817336111636096E-006
  -9.4531249999999956E-002    -6.5904202829564553E-006
  -9.0624999999999956E-002    -6.5991106956156663E-006
  -8.6718749999999956E-002    -6.6078041214245529E-006
  -8.2812499999999956E-002    -6.6165010935666631E-006
  -7.8906249999999956E-002    -6.6252026413192868E-006
  -7.4999999999999956E-002    -6.6339099235895237E-006
  -7.1093749999999956E-002    -6.6426251791726182E-006
  -6.7187499999999956E-002    -6.6513514148832340E-006
  -6.3281249999999956E-002    -6.6600905291179500E-006
  -5.9374999999999956E-002    -6.6688446614044359E-006
  -5.5468749999999956E-002    -6.6776152852818863E-006
  -5.1562499999999956E-002    -6.6864035124766984E-006
  -4.7656249999999956E-002    -6.6952093165177076E-006
  -4.3749999999999956E-002    -6.7040319820551239E-006
  -3.9843749999999956E-002    -6.7128702821584139E-006
  -3.5937499999999956E-002    -6.7217219142945066E-006
  -3.2031249999999956E-002    -6.7305848961908609E-006
  -2.8124999999999956E-002    -6.7394568886191471E-006
  -2.4218749999999956E-002    -6.7483355821191572E-006
  -2.0312499999999956E-002    -6.7572191892241939E-006
  -1.6406249999999956E-002    -6.7661061345237678E-006
  -1.2499999999999956E-002    -6.7749965374235918E-006
  -8.5937499999999556E-003    -6.7838911181304657E-006
  -4.6874999999999556E-003    -6.7927906606003668E-006
  -7.8124999999995559E-004    -6.8016971285277517E-006
   3.1250000000000444E-003    -6.8106129789866120E-006
   7.0312500000000444E-003    -6.8195401762541579E-006
   1.0937500000000044E-002    -6.8284812826944777E-006
   1.4843750000000044E-002    -6.8374381765660141E-006
   1.8750000000000044E-002    -6.8464123154335929E-006
   2.2656250000000044E-002    -6.8554040658943451E-006
   2.6562500000000044E-002    -6.8644135830605930E-006
   3.0468750000000044E-002    -6.8734394335072020E-006
   3.4375000000000044E-002    -6.8824806281377667E-006
   3.8281250000000044E-002    -6.8915346051709533E-006
   4.2187500000000044E-002    -6.9005995390065956E-006
   4.6093750000000044E-002    -6.9096726606641598E-006
   5.0000000000000044E-002    -6.9187522645319479E-006
   5.3906250000000044E-002    -6.9278368812723400E-006
   5.7812500000000044E-002    -6.9369253285053331E-006
   6.1718750000000044E-002    -6.9460179827421011E-006
   6.5625000000000044E-002    -6.9551158365760264E-006
   6.9531250000000044E-002    -6.9642199359255565E-006
   7.3437500000000044E-002    -6.9733324446467208E-006
   7.7343750000000044E-002    -6.9824553222815588E-006
   8.1250000000000044E-002    -6.9915912336368535E-006
   8.5156250000000044E-002    -7.0007424251282287E-006
   8.9062500000000044E-002    -7.0099098296127991E-006
   9.2968750000000044E-002    -7.0190950141357084E-006
   9.6875000000000044E-002    -7.0282976112443716E-006
  0.10078125000000004         -7.0375174350696911E-006
  0.10468750000000004         -7.0467533628170726E-006
  0.10859375000000004         -7.0560031966607874E-006
  0.11250000000000004         -7.0652645065807611E-006
  0.11640625000000004         -7.0745355051102965E-006
  0.12031250000000004         -7.0838138891335675E-006
  0.12421875000000004         -7.0930978372141761E-006
  0.12812500000000004         -7.1023863707525162E-006
  0.13203125000000004         -7.1116793574045722E-006
  0.13593750000000004         -7.1209774535174765E-006
  0.13984375000000004         -7.1302814812184839E-006
  0.14375000000000004         -7.1395936161364154E-006
  0.14765625000000004         -7.1489159243357402E-006
  0.15156250000000004         -7.1582507270494585E-006
  0.15546875000000004         -7.1676002594917983E-006
  0.15937500000000004         -7.1769668247785859E-006
  0.16328125000000004         -7.1863514832425849E-006
  0.16718750000000004         -7.1957546737059376E-006
  0.17109375000000004         -7.2051757314183591E-006
  0.17500000000000004         -7.2146143153984289E-006
  0.17890625000000004         -7.2240681598810161E-006
  0.18281250000000004         -7.2335355959496831E-006
  0.18671875000000004         -7.2430143705167055E-006
  0.19062500000000004         -7.2525021643700495E-006
  0.19453125000000004         -7.2619966521969820E-006
  0.19843750000000004         -7.2714972144964909E-006
  0.20234375000000004         -7.2810024988720016E-006
  0.20625000000000004         -7.2905127792701525E-006
  0.21015625000000004         -7.3000287992488011E-006
  0.21406250000000004         -7.3095525356407260E-006
  0.21796875000000004         -7.3190851123946735E-006
  0.22187500000000004         -7.3286293255450945E-006
  0.22578125000000004         -7.3381869896126060E-006
  0.22968750000000004         -7.3477600008509817E-006
  0.23359375000000004         -7.3573498126612809E-006
  0.23750000000000004         -7.3669572781770716E-006
  0.24140625000000004         -7.3765822860189118E-006
  0.24531250000000004         -7.3862248361868034E-006
  0.24921875000000004         -7.3958835785488190E-006
  0.25312500000000004         -7.4055567443381886E-006
  0.25703125000000004         -7.4152429759244495E-006
  0.26093750000000004         -7.4249400582693176E-006
  0.26484375000000004         -7.4346460047768295E-006
  0.26875000000000004         -7.4443597232032938E-006
  0.27265625000000004         -7.4540809945653672E-006
  0.27656250000000004         -7.4638090750993125E-006
  0.28046875000000004         -7.4735443334118692E-006
  0.28437500000000004         -7.4832883331293817E-006
  0.28828125000000004         -7.4930423267980936E-006
  0.29218750000000004         -7.5028081384467684E-006
  0.29609375000000004         -7.5125874807247258E-006
  0.30000000000000004         -7.5223818133396002E-006
  0.30390625000000004         -7.5321926535143099E-006
  0.30781250000000004         -7.5420206270942489E-006
  0.31171875000000004         -7.5518664801078019E-006
  0.31562500000000004         -7.5617291991302073E-006
  0.31953125000000004         -7.5716080682289197E-006
  0.32343750000000004         -7.5815015300728165E-006
  0.32734375000000004         -7.5914080113101786E-006
  0.33125000000000004         -7.6013262401234346E-006
  0.33515625000000004         -7.6112538952795857E-006
  0.33906250000000004         -7.6211904347251659E-006
  0.34296875000000004         -7.6311347279611706E-006
  0.34687500000000004         -7.6410866452359505E-006
  0.35078125000000004         -7.6510463085967414E-006
  0.35468750000000004         -7.6610148566906644E-006
  0.35859375000000004         -7.6709934698389512E-006
  0.36250000000000004         -7.6809837873117593E-006
  0.36640625000000004         -7.6909873027864223E-006
  0.37031250000000004         -7.7010057150807012E-006
  0.37421875000000004         -7.7110401728107714E-006
  0.37812500000000004         -7.7210918605834771E-006
  0.38203125000000004         -7.7311612427875081E-006
  0.38593750000000004         -7.7412481018487130E-006
  0.38984375000000004         -7.7513519077036482E-006
  0.39375000000000004         -7.7614710403534839E-006
  0.39765625000000004         -7.7716044852079512E-006
  0.40156250000000004         -7.7817510576602042E-006
  0.40546875000000004         -7.7919081613764555E-006
  0.40937500000000004         -7.8020756430481158E-006
  0.41328125000000004         -7.8122512887910526E-006
  0.41718750000000004         -7.8224356634938661E-006
  0.42109375000000004         -7.8326279651674405E-006
  0.42500000000000004         -7.8428290297705906E-006
  0.42890625000000004         -7.8530394215045307E-006
  0.43281250000000004         -7.8632601549595315E-006
  0.43671875000000004         -7.8734932943849753E-006
  0.44062500000000004         -7.8837408263768222E-006
  0.44453125000000004         -7.8940037157031154E-006
  0.44843750000000004         -7.9042822811597227E-006
  0.45234375000000004         -7.9145788226873486E-006
  0.45625000000000004         -7.9248922908705677E-006
  0.46015625000000004         -7.9352227355316070E-006
  0.46406250000000004         -7.9455696381739390E-006
  0.46796875000000004         -7.9559327159923615E-006
  0.47187500000000004         -7.9663100503303175E-006
  0.47578125000000004         -7.9767006764197604E-006
  0.47968750000000004         -7.9871033394498004E-006
  0.48359375000000004         -7.9975159615831761E-006
  0.48750000000000004         -8.0079388199302873E-006
  0.49140625000000004         -8.0183714183973911E-006
  0.49531250000000004         -8.0288143531344377E-006
  0.49921875000000004         -8.0392673927357139E-006
  0.50312500000000004         -8.0497318280027715E-006
  0.50703125000000004         -8.0602095331983540E-006
  0.51093750000000004         -8.0707006636520138E-006
  0.51484375000000004         -8.0812073377209712E-006
  0.51875000000000004         -8.0917296385097666E-006
  0.52265625000000004         -8.1022690341178337E-006
  0.52656250000000004         -8.1128252069148106E-006
  0.53046875000000004         -8.1233983341985760E-006
  0.53437500000000004         -8.1339869200385023E-006
  0.53828125000000004         -8.1445915590072797E-006
  0.54218750000000004         -8.1552102145186530E-006
  0.54609375000000004         -8.1658418079168077E-006
  0.55000000000000004         -8.1764844483763824E-006
  0.55390625000000004         -8.1871379029143987E-006
  0.55781250000000004         -8.1978017890812018E-006
  0.56171875000000004         -8.2084753750917231E-006
  0.56562500000000004         -8.2191595426094656E-006
  0.56953125000000004         -8.2298540146920979E-006
  0.57343750000000004         -8.2405610233409283E-006
  0.57734375000000004         -8.2512809375857994E-006
  0.58125000000000004         -8.2620155083313472E-006
  0.58515625000000004         -8.2727659541541149E-006
  0.58906250000000004         -8.2835341755934867E-006
  0.59296875000000004         -8.2943207049775540E-006
  0.59687500000000004         -8.3051251748537308E-006
  0.60078125000000004         -8.3159485526984128E-006
  0.60468750000000004         -8.3267899842675359E-006
  0.60859375000000004         -8.3376481330548619E-006
  0.61250000000000004         -8.3485218662967386E-006
  0.61640625000000004         -8.3594090296452820E-006
  0.62031250000000004         -8.3703086402152744E-006
  0.62421875000000004         -8.3812203610936776E-006
  0.62812500000000004         -8.3921420646209994E-006
  0.63203125000000004         -8.4030738644413280E-006
  0.63593750000000004         -8.4140150246520524E-006
  0.63984375000000004         -8.4249670495869532E-006
  0.64375000000000004         -8.4359306394941140E-006
  0.64765625000000004         -8.4469069769594159E-006
  0.65156250000000004         -8.4578980401756624E-006
  0.65546875000000004         -8.4689059834907393E-006
  0.65937500000000004         -8.4799309398314141E-006
  0.66328125000000004         -8.4909752365578373E-006
  0.66718750000000004         -8.5020386144330987E-006
  0.67109375000000004         -8.5131211371109907E-006
  0.67500000000000004         -8.5242220723946886E-006
  0.67890625000000004         -8.5353408198486332E-006
  0.68281250000000004         -8.5464762469528569E-006
  0.68671875000000004         -8.5576263075751513E-006
  0.69062500000000004         -8.5687899871252459E-006
  0.69453125000000004         -8.5799658854431099E-006
  0.69843750000000004         -8.5911526885933579E-006
  0.70234375000000004         -8.6023496647909182E-006
  0.70625000000000004         -8.6135568280354243E-006
  0.71015625000000004         -8.6247739109304975E-006
  0.71406250000000004         -8.6360031954677399E-006
  0.71796875000000004         -8.6472459778771189E-006
  0.72187500000000004         -8.6585032727489018E-006
  0.72578125000000004         -8.6697771080981245E-006
  0.72968750000000004         -8.6810687439204042E-006
  0.73359375000000004         -8.6923803119927720E-006
  0.73750000000000004         -8.7037117081414781E-006
  0.74140625000000004         -8.7150629183668908E-006
  0.74531250000000004         -8.7264341600750948E-006
  0.74921875000000004         -8.7378242189751543E-006
  0.75312500000000004         -8.7492307992439053E-006
  0.75703125000000004         -8.7606528681739030E-006
  0.76093750000000004         -8.7720876659650448E-006
  0.76484375000000004         -8.7835339507388893E-006
  0.76875000000000004         -8.7949914038676352E-006
  0.77265625000000004         -8.8064584300198871E-006
  0.77656250000000004         -8.8179342835790129E-006
  0.78046875000000004         -8.8294203744190646E-006
  0.78437500000000004         -8.8409180485922350E-006
  0.78828125000000004         -8.8524285884969264E-006
  0.79218750000000004         -8.8639539499231625E-006
  0.79609375000000004         -8.8754969787276181E-006
  0.80000000000000004         -8.8870589167887381E-006
  0.80390625000000004         -8.8986416379575114E-006
  0.80781250000000004         -8.9102467919168580E-006
  0.81171875000000004         -8.9218734510549068E-006
  0.81562500000000004         -8.9335224927495470E-006
  0.81953125000000004         -8.9451917074022585E-006
  0.82343750000000004         -8.9568800208865222E-006
  0.82734375000000004         -8.9685845416409749E-006
  0.83125000000000004         -8.9803032640533675E-006
  0.83515625000000004         -8.9920341922254734E-006
  0.83906250000000004         -9.0037752026153429E-006
  0.84296875000000004         -9.0155258131288666E-006
  0.84687500000000004         -9.0272852281591170E-006
  0.85078125000000004         -9.0390533256588548E-006
  0.85468750000000004         -9.0508317012031637E-006
  0.85859375000000004         -9.0626224242261488E-006
  0.86250000000000004         -9.0744283320132685E-006
  0.86640625000000004         -9.0862514163452088E-006
  0.87031250000000004         -9.0980937145392720E-006
  0.87421875000000004         -9.1099562867223455E-006
  0.87812500000000004         -9.1218415059592646E-006
  0.88203125000000004         -9.1337501040350993E-006
  0.88593750000000004         -9.1456820490011087E-006
  0.88984375000000004         -9.1576349453896744E-006
  0.89375000000000004         -9.1696084012051867E-006
  0.89765625000000004         -9.1815997150409916E-006
  0.90156250000000004         -9.1936067454060385E-006
  0.90546875000000004         -9.2056274187486735E-006
  0.90937500000000004         -9.2176588799099517E-006
  0.91328125000000004         -9.2297006189645666E-006
  0.91718750000000004         -9.2417510308670998E-006
  0.92109375000000004         -9.2538110749344768E-006
  0.92500000000000004         -9.2658813013682801E-006