  -1.2000000000000000          7.5284518424312617E-011
  -1.1960937500000000          7.7494495292036993E-011
  -1.1921875000000000          7.5489739876989358E-011
  -1.1882812500000000          6.9498664338384270E-011
  -1.1843750000000000          6.0004687070436003E-011
  -1.1804687500000000          4.7708730210375132E-011
  -1.1765625000000000          3.3467704731234920E-011
  -1.1726562500000000          1.8219061709465664E-011
  -1.1687500000000000          2.9028399431056691E-012
  -1.1648437500000000         -1.1605391542876794E-011
  -1.1609375000000000         -2.4555359402537784E-011
  -1.1570312500000000         -3.5361771282031200E-011
  -1.1531250000000000         -4.3638837330150244E-011
  -1.1492187500000000         -4.9202954814814212E-011
  -1.1453125000000000         -5.2057240169195150E-011
  -1.1414062500000000         -5.2365928391193710E-011
  -1.1375000000000000         -5.0422590767335253E-011
  -1.1335937500000000         -4.6601479586068773E-011
  -1.1296875000000000         -4.1319834241328089E-011
  -1.1257812500000000         -3.4996168841304586E-011
  -1.1218750000000000         -2.8022816343841611E-011
  -1.1179687500000000         -2.0751770465647222E-011
  -1.1140625000000000         -1.3478300326303109E-011
  -1.1101562500000000         -6.4388223458905534E-012
  -1.1062500000000000          1.7124345759814179E-013
  -1.1023437500000000          6.1819693658633582E-012
  -1.0984375000000000          1.1442964582066650E-011
  -1.0945312500000000          1.5808222581351274E-011
  -1.0906250000000000          1.9122826428683041E-011
  -1.0867187500000000          2.1239641770087255E-011
  -1.0828125000000000          2.2021292654489310E-011
  -1.0789062500000000          2.1357241594853869E-011
  -1.0750000000000000          1.9186001413789527E-011
  -1.0710937500000000          1.5512086640763544E-011
  -1.0671875000000000          1.0431038945890565E-011
  -1.0632812500000000          4.1375500101186491E-012
  -1.0593750000000000         -3.0689603763126033E-012
  -1.0554687500000000         -1.0795357358665330E-011
  -1.0515625000000000         -1.8571813094495540E-011
  -1.0476562500000000         -2.5885833600695513E-011
  -1.0437500000000000         -3.2213496662322495E-011
  -1.0398437500000000         -3.7066570874599780E-011
  -1.0359375000000000         -4.0032001169767649E-011
  -1.0320312500000000         -4.0824188789588396E-011
  -1.0281250000000000         -3.9299145336957134E-011
  -1.0242187500000000         -3.5489884936119759E-011
  -1.0203125000000000         -2.9600411734789196E-011
  -1.0164062500000000         -2.2002521095275949E-011
  -1.0125000000000000         -1.3205922720391059E-011
  -1.0085937500000000         -3.8164733563621524E-012
  -1.0046875000000000          5.4931575474513747E-012
  -1.0007812500000000          1.4059647127926268E-011
 -0.99687499999999996          2.1262614813772050E-011
 -0.99296874999999996          2.6580609251975280E-011
 -0.98906249999999996          2.9626054615924968E-011
 -0.98515624999999996          3.0174649709461295E-011
 -0.98124999999999996          2.8189353588090822E-011
 -0.97734374999999996          2.3800283491937558E-011
 -0.97343749999999996          1.7304003593733928E-011
 -0.96953124999999996          9.1234632071613685E-012
 -0.96562499999999996         -2.0858598782333364E-013
 -0.96171874999999996         -1.0107820385763543E-011
 -0.95781249999999996         -1.9975834864488449E-011
 -0.95390624999999996         -2.9240222704377036E-011
 -0.94999999999999996         -3.7398107586457277E-011
 -0.94609374999999996         -4.4037776915492372E-011
 -0.94218749999999996         -4.8867496376628093E-011
 -0.93828124999999996         -5.1713340009145280E-011
 -0.93437499999999996         -5.2534258050004691E-011
 -0.93046874999999996         -5.1407981859178961E-011
 -0.92656249999999996         -4.8513635788345239E-011
 -0.92265624999999996         -4.4119802285534405E-011
 -0.91874999999999996         -3.8550263346652061E-011
 -0.91484374999999996         -3.2165526948683828E-011
 -0.91093749999999996         -2.5335345123571191E-011
 -0.90703124999999996         -1.8411586653216399E-011
 -0.90312499999999996         -1.1711049261664637E-011
 -0.89921874999999996         -5.5092538471333389E-012
 -0.89531249999999996         -1.7292441156213648E-014
 -0.89140624999999996          4.6155789943868096E-012
 -0.88749999999999996          8.3056405760025070E-012
 -0.88359374999999996          1.1029764997738527E-011
 -0.87968749999999996          1.2817838281056158E-011
 -0.87578124999999996          1.3740407077989915E-011
 -0.87187499999999996          1.3893073308590882E-011
 -0.86796874999999996          1.3389214962416840E-011
 -0.86406249999999996          1.2350260917854807E-011
 -0.86015624999999996          1.0891492918051796E-011
 -0.85624999999999996          9.1243480434590250E-012
 -0.85234374999999996          7.1519650620809594E-012
 -0.84843749999999996          5.0617303802100491E-012
 -0.84453124999999996          2.9306108823182332E-012
 -0.84062499999999996          8.3178181359563682E-013
 -0.83671874999999996         -1.1613372127072338E-012
 -0.83281249999999996         -2.9678979232986707E-012
 -0.82890624999999996         -4.5126507476324211E-012
 -0.82499999999999996         -5.7087807479226517E-012
 -0.82109374999999996         -6.4682101769154204E-012
 -0.81718749999999996         -6.7040315474796923E-012
 -0.81328124999999996         -6.3458060308242281E-012
 -0.80937499999999996         -5.3471487023556003E-012
 -0.80546874999999996         -3.6978959455167686E-012
 -0.80156249999999996         -1.4334225899117095E-012
 -0.79765624999999996          1.3561098134657316E-012
 -0.79374999999999996          4.5164877730027217E-012
 -0.78984374999999996          7.8422530379470630E-012
 -0.78593749999999996          1.1069376734796599E-011
 -0.78203124999999996          1.3902294168677269E-011
 -0.77812499999999996          1.6032150197358779E-011
 -0.77421874999999996          1.7165376184023178E-011
 -0.77031249999999996          1.7062083493286552E-011
 -0.76640624999999996          1.5555313224336165E-011
 -0.76249999999999996          1.2573636681893822E-011
 -0.75859374999999996          8.1635835087384215E-012
 -0.75468749999999996          2.5010218963012082E-012
 -0.75078124999999996         -4.1158736378859129E-012
 -0.74687499999999996         -1.1279634953882824E-011
 -0.74296874999999996         -1.8505468075705751E-011
 -0.73906249999999996         -2.5270904949480454E-011
 -0.73515624999999996         -3.1056225469859519E-011
 -0.73124999999999996         -3.5392224905008658E-011
 -0.72734374999999996         -3.7908978810506512E-011
 -0.72343749999999996         -3.8362271742118757E-011
 -0.71953124999999996         -3.6668252114280178E-011
 -0.71562499999999996         -3.2910300053755584E-011
 -0.71171874999999996         -2.7326420987633834E-011
 -0.70781249999999996         -2.0299144158250667E-011
 -0.70390624999999996         -1.2315464317331833E-011
 -0.69999999999999996         -3.9293109219602381E-012
 -0.69609374999999996          4.2996874786775993E-012
 -0.69218749999999996          1.1855641110106878E-011
 -0.68828124999999996          1.8295446158719454E-011
 -0.68437499999999996          2.3297942253245559E-011
 -0.68046874999999996          2.6676278785897310E-011
 -0.67656249999999996          2.8394015869648523E-011
 -0.67265624999999996          2.8551490525630904E-011
 -0.66874999999999996          2.7357604001143069E-011
 -0.66484374999999996          2.5098766749382322E-011
 -0.66093749999999996          2.2091339956273749E-011
 -0.65703124999999996          1.8633281856901055E-011
 -0.65312499999999996          1.4978655502992292E-011
 -0.64921874999999996          1.1307373299817221E-011
 -0.64531249999999996          7.7036474731892301E-012
 -0.64140624999999996          4.1569132090085172E-012
 -0.63749999999999996          5.8064583929265990E-013
 -0.63359374999999996         -3.1586880649804701E-012
 -0.62968749999999996         -7.2077054952590979E-012
 -0.62578124999999996         -1.1696824170703778E-011
 -0.62187499999999996         -1.6687828211515439E-011
 -0.61796874999999996         -2.2148101062318849E-011
 -0.61406249999999996         -2.7933809449052078E-011
 -0.61015624999999996         -3.3790215414140267E-011
 -0.60624999999999996         -3.9372039786683630E-011
 -0.60234374999999996         -4.4269602186365048E-011
 -0.59843749999999996         -4.8040126358609541E-011
 -0.59453124999999996         -5.0280725828073307E-011
 -0.59062499999999996         -5.0665675321345789E-011
 -0.58671874999999996         -4.8985091474557944E-011
 -0.58281249999999996         -4.5183659909286500E-011
 -0.57890624999999996         -3.9382417137542116E-011
 -0.57499999999999996         -3.1878964098257276E-011
 -0.57109374999999996         -2.3127401488022875E-011
 -0.56718749999999996         -1.3697784505150963E-011
 -0.56328124999999996         -4.2351960529320440E-012
 -0.55937499999999996          4.6148256205023964E-012
 -0.55546874999999996          1.2262504275839162E-011
 -0.55156249999999996          1.8228178082990627E-011
 -0.54765624999999996          2.2195812355320383E-011
 -0.54374999999999996          2.4035960941778408E-011
 -0.53984374999999996          2.3813975840428489E-011
 -0.53593749999999996          2.1780155407416554E-011
 -0.53203124999999996          1.8333681575017677E-011
 -0.52812499999999996          1.3975346689481898E-011
 -0.52421874999999996          9.2514868203255846E-012
 -0.52031249999999996          4.6936146516707785E-012
 -0.51640624999999996          7.5750313226709686E-013
 -0.51249999999999996         -2.2269082633236894E-012
 -0.50859374999999996         -4.0776254821633822E-012
 -0.50468749999999996         -4.7665842868619341E-012
 -0.50078124999999996         -4.4243531066893838E-012
 -0.49687499999999996         -3.2997709073424868E-012
 -0.49296874999999996         -1.7238919311242047E-012
 -0.48906249999999996         -5.3608189040271263E-014
 -0.48515624999999996          1.3655080342011609E-012
 -0.48124999999999996          2.2587594660488710E-012
 -0.47734374999999996          2.4597213976347856E-012
 -0.47343749999999996          1.9252678507621192E-012
 -0.46953124999999996          7.4367364729932445E-013
 -0.46562499999999996         -8.7993153383688553E-013
 -0.46171874999999996         -2.6566218787200981E-012
 -0.45781249999999996         -4.2576952375651142E-012
 -0.45390624999999996         -5.3632736951404239E-012
 -0.44999999999999996         -5.7005075595500079E-012
 -0.44609374999999996         -5.1049720703033951E-012
 -0.44218749999999996         -3.5288843419023932E-012
 -0.43828124999999996         -1.0519167568836835E-012
 -0.43437499999999996          2.1026439251148471E-012
 -0.43046874999999996          5.6105139708690559E-012
 -0.42656249999999996          9.0711258325113205E-012
 -0.42265624999999996          1.2069708124790858E-011
 -0.41874999999999996          1.4210855452732471E-011
 -0.41484374999999996          1.5185159278596613E-011
 -0.41093749999999996          1.4806693024759683E-011
 -0.40703124999999996          1.3038928929267834E-011
 -0.40312499999999996          1.0012342413333492E-011
 -0.39921874999999996          6.0015800944578976E-012
 -0.39531249999999996          1.4113367145226059E-012
 -0.39140624999999996         -3.2752770056415903E-012
 -0.38749999999999996         -7.5458556097217304E-012
 -0.38359374999999996         -1.0908009670676165E-011
 -0.37968749999999996         -1.2954826088383662E-011
 -0.37578124999999996         -1.3402550967719286E-011
 -0.37187499999999996         -1.2117532772511345E-011
 -0.36796874999999996         -9.1396907788336851E-012
 -0.36406249999999996         -4.6752234653765209E-012
 -0.36015624999999996          9.2386793210013265E-013
 -0.35624999999999996          7.1903495206149141E-012
 -0.35234374999999996          1.3582896787484328E-011
 -0.34843749999999996          1.9559452101566863E-011
 -0.34453124999999996          2.4622067645712184E-011
 -0.34062499999999996          2.8356381331395842E-011
 -0.33671874999999996          3.0473424474630030E-011
 -0.33281249999999996          3.0824441090348306E-011
 -0.32890624999999996          2.9415295466559759E-011
 -0.32499999999999996          2.6379659267334596E-011
 -0.32109374999999996          2.1981374403446399E-011
 -0.31718749999999996          1.6549471951042601E-011
 -0.31328124999999996          1.0466190322583590E-011
 -0.30937499999999996          4.1197032551698943E-012
 -0.30546874999999996         -2.1367579464908550E-012
 -0.30156249999999996         -8.0098498816916082E-012
 -0.29765624999999996         -1.3283824325431433E-011
 -0.29374999999999996         -1.7834432842159810E-011
 -0.28984374999999996         -2.1603887239048185E-011
 -0.28593749999999996         -2.4601492450926922E-011
 -0.28203124999999996         -2.6888634382801526E-011
 -0.27812499999999996         -2.8531652779014397E-011
 -0.27421874999999996         -2.9607399046221747E-011
 -0.27031249999999996         -3.0163891156890752E-011
 -0.26640624999999996         -3.0213848163162413E-011
 -0.26249999999999996         -2.9729771315607526E-011
 -0.25859374999999996         -2.8656196138802741E-011
 -0.25468749999999996         -2.6908629140875160E-011
 -0.25078124999999996         -2.4405312296803239E-011
 -0.24687499999999996         -2.1082501565314733E-011
 -0.24296874999999996         -1.6925788525664589E-011
 -0.23906249999999996         -1.1969901031084754E-011
 -0.23515624999999996         -6.3325822813903452E-012
 -0.23124999999999996         -2.1438431610219346E-013
 -0.22734374999999996          6.1145326648817366E-012
 -0.22343749999999996          1.2327706526868332E-011
 -0.21953124999999996          1.8054657831240061E-011
 -0.21562499999999996          2.2916818269209926E-011
 -0.21171874999999996          2.6556627671766482E-011
 -0.20781249999999996          2.8689514215932517E-011
 -0.20390624999999996          2.9098275094082832E-011
 -0.19999999999999996          2.7677699482669812E-011
 -0.19609374999999996          2.4449401421444593E-011
 -0.19218749999999996          1.9558240705851534E-011
 -0.18828124999999996          1.3278123906985158E-011
 -0.18437499999999996          5.9885935151408618E-012
 -0.18046874999999996         -1.8621493191551928E-012
 -0.17656249999999996         -9.7746663382386302E-012
 -0.17265624999999996         -1.7234598819254778E-011
 -0.16874999999999996         -2.3754882355994847E-011
 -0.16484374999999996         -2.8913594257497435E-011
 -0.16093749999999996         -3.2372470994789388E-011
 -0.15703124999999996         -3.3914073665615457E-011
 -0.15312499999999996         -3.3440097925931884E-011
 -0.14921874999999996         -3.0988255862618822E-011
 -0.14531249999999996         -2.6725657609123801E-011
 -0.14140624999999996         -2.0931793227223535E-011
 -0.13749999999999996         -1.3970556492788115E-011
 -0.13359374999999996         -6.2712222420060386E-012
 -0.12968749999999996          1.7065552668223411E-012
 -0.12578124999999996          9.5041340343987449E-012
 -0.12187499999999996          1.6689878765889166E-011
 -0.11796874999999996          2.2899046408177377E-011
 -0.11406249999999996          2.7847368796462183E-011
 -0.11015624999999996          3.1348815909333491E-011
 -0.10624999999999996          3.3311636101537790E-011
 -0.10234374999999996          3.3758892823197003E-011
  -9.8437499999999956E-002     3.2794452834629789E-011
  -9.4531249999999956E-002     3.0607893633844260E-011
  -9.0624999999999956E-002     2.7444206214161170E-011
  -8.6718749999999956E-002     2.3583802989693526E-011
  -8.2812499999999956E-002     1.9323661557500344E-011
  -7.8906249999999956E-002     1.4944063013971825E-011
  -7.4999999999999956E-002     1.0692767771354235E-011
  -7.1093749999999956E-002     6.7877390449508219E-012
  -6.7187499999999956E-002     3.3863197237468083E-012
  -6.3281249999999956E-002     5.9142252748295281E-013
  -5.9374999999999956E-002    -1.5414982340181985E-012
  -5.5468749999999956E-002    -2.9893003644135050E-012
  -5.1562499999999956E-002    -3.7677704169068997E-012
  -4.7656249999999956E-002    -3.9200621814276423E-012
  -4.3749999999999956E-002    -3.4865691988641276E-012
  -3.9843749999999956E-002    -2.5105542388201508E-012
  -3.5937499999999956E-002    -1.0373581565995552E-012
  -3.2031249999999956E-002     8.9600069543592416E-013
  -2.8124999999999956E-002     3.2521465524253994E-012
  -2.4218749999999956E-002     5.9881767669857510E-012
  -2.0312499999999956E-002     9.0438742511997099E-012
  -1.6406249999999956E-002     1.2331994265832864E-011
  -1.2499999999999956E-002     1.5723807347271894E-011
  -8.5937499999999556E-003     1.9054884474586595E-011
  -4.6874999999999556E-003     2.2120541187372263E-011
  -7.8124999999995559E-004     2.4687131521896507E-011
   3.1250000000000444E-003     2.6497509689779970E-011
   7.0312500000000444E-003     2.7302136399115677E-011
   1.0937500000000044E-002     2.6879442412490223E-011
   1.4843750000000044E-002     2.5077402461053411E-011
   1.8750000000000044E-002     2.1812045046137522E-011
   2.2656250000000044E-002     1.7111367440484536E-011
   2.6562500000000044E-002     1.1122406610221299E-011
   3.0468750000000044E-002     4.1138311116997434E-012
   3.4375000000000044E-002    -3.5206141245928892E-012
   3.8281250000000044E-002    -1.1316662782295487E-011
   4.2187500000000044E-002    -1.8745136470747133E-011
   4.6093750000000044E-002    -2.5256781169627364E-011
   5.0000000000000044E-002    -3.0344316423589420E-011
   5.3906250000000044E-002    -3.3566180303984783E-011
   5.7812500000000044E-002    -3.4600626535360193E-011
   6.1718750000000044E-002    -3.3286476841540291E-011
   6.5625000000000044E-002    -2.9636126840693164E-011
   6.9531250000000044E-002    -2.3839126551139212E-011
   7.3437500000000044E-002    -1.6260265357838390E-011
   7.7343750000000044E-002    -7.4014927538806780E-012
   8.1250000000000044E-002     2.1308181921737544E-012
   8.5156250000000044E-002     1.1679205816377516E-011
   8.9062500000000044E-002     2.0580933858699548E-011
   9.2968750000000044E-002     2.8234999749881178E-011
   9.6875000000000044E-002     3.4142409899923469E-011
  0.10078125000000004          3.7946892431777880E-011
  0.10468750000000004          3.9449670825350844E-011
  0.10859375000000004          3.8641119426713502E-011
  0.11250000000000004          3.5674758349107071E-011
  0.11640625000000004          3.0836476657002873E-011
  0.12031250000000004          2.4519271336078215E-011
  0.12421875000000004          1.7181352926639379E-011
  0.12812500000000004          9.3038534140922360E-012
  0.13203125000000004          1.3355785319105356E-012
  0.13593750000000004         -6.3455651371626618E-012
  0.13984375000000004         -1.3441532084809057E-011
  0.14375000000000004         -1.9747172616335553E-011
  0.14765625000000004         -2.5153775010224321E-011
  0.15156250000000004         -2.9634178744907924E-011
  0.15546875000000004         -3.3220015823563815E-011
  0.15937500000000004         -3.5963497227611619E-011
  0.16328125000000004         -3.7924059959416245E-011
  0.16718750000000004         -3.9132002285716814E-011
  0.17109375000000004         -3.9584607049066006E-011
  0.17500000000000004         -3.9234462265440811E-011
  0.17890625000000004         -3.7986663745854640E-011
  0.18281250000000004         -3.5732308192935493E-011
  0.18671875000000004         -3.2349640946814926E-011
  0.19062500000000004         -2.7751411223389192E-011
  0.19453125000000004         -2.1904054882767109E-011
  0.19843750000000004         -1.4840317399403667E-011
  0.20234375000000004         -6.6799245881396726E-012
  0.20625000000000004          2.3586298292838843E-012
  0.21015625000000004          1.1974594253087317E-011
  0.21406250000000004          2.1810344544918255E-011
  0.21796875000000004          3.1480779717094642E-011
  0.22187500000000004          4.0607471705888227E-011
  0.22578125000000004          4.8862651150275716E-011
  0.22968750000000004          5.5987668529914838E-011
  0.23359375000000004          6.1836314965140814E-011
  0.23750000000000004          6.6382398610120971E-011
  0.24140625000000004          6.9690820843270040E-011
  0.24531250000000004          7.1932704328703572E-011
  0.24921875000000004          7.3325551389958820E-011
  0.25312500000000004          7.4095739990982456E-011
  0.25703125000000004          7.4403020197759919E-011
  0.26093750000000004          7.4308928487790994E-011
  0.26484375000000004          7.3707633625793237E-011
  0.26875000000000004          7.2292089382656376E-011
  0.27265625000000004          6.9489400510993783E-011
  0.27656250000000004          6.4471804668462133E-011
  0.28046875000000004          5.6163697725268857E-011
  0.28437500000000004          4.3249221737832119E-011
  0.28828125000000004          2.4219368208149582E-011
  0.29218750000000004         -2.5509901789672042E-012
  0.29609375000000004         -3.8774706399922311E-011
  0.30000000000000004         -8.6160235414738487E-011
  0.30390625000000004         -1.4636010856424501E-010
  0.30781250000000004         -2.2092056027182531E-010
  0.31171875000000004         -3.1122972556567499E-010
  0.31562500000000004         -4.1850699027624448E-010
  0.31953125000000004         -5.4380328210955298E-010
  0.32343750000000004         -6.8800577114497333E-010
  0.32734375000000004         -8.5183261343296062E-010
  0.33125000000000004         -1.0358750822913769E-009
  0.33515625000000004         -1.2406130046314840E-009
  0.33906250000000004         -1.4664467967003131E-009
  0.34296875000000004         -1.7136950260607211E-009
  0.34687500000000004         -1.9826256488307666E-009
  0.35078125000000004         -2.2734445113268419E-009
  0.35468750000000004         -2.5862872517566484E-009
  0.35859375000000004         -2.9212068482269408E-009
  0.36250000000000004         -3.2781554753659774E-009
  0.36640625000000004         -3.6569684274710329E-009
  0.37031250000000004         -4.0573530507801624E-009
  0.37421875000000004         -4.4788842229925872E-009
  0.37812500000000004         -4.9209964269410347E-009
  0.38203125000000004         -5.3829941674640251E-009
  0.38593750000000004         -5.8640577328710903E-009
  0.38984375000000004         -6.3632912984942243E-009
  0.39375000000000004         -6.8797508017673071E-009
  0.39765625000000004         -7.4124664880888460E-009
  0.40156250000000004         -7.9604885752213449E-009
  0.40546875000000004         -8.5229223467111420E-009
  0.40937500000000004         -9.0989110265667044E-009
  0.41328125000000004         -9.6876664087717111E-009
  0.41718750000000004         -1.0288477949843602E-008
  0.42109375000000004         -1.0900689292929635E-008
  0.42500000000000004         -1.1523691189305293E-008
  0.42890625000000004         -1.2156908416178748E-008
  0.43281250000000004         -1.2799774997219677E-008
  0.43671875000000004         -1.3451731763585444E-008
  0.44062500000000004         -1.4112196048810124E-008
  0.44453125000000004         -1.4780583775554991E-008
  0.44843750000000004         -1.5456278814402044E-008
  0.45234375000000004         -1.6138659887532408E-008
  0.45625000000000004         -1.6827133470236116E-008
  0.46015625000000004         -1.7521144034900230E-008
  0.46406250000000004         -1.8220203899130998E-008
  0.46796875000000004         -1.8923905292956622E-008
  0.47187500000000004         -1.9631955900379654E-008
  0.47578125000000004         -2.0344190895655138E-008
  0.47968750000000004         -2.1060579976983178E-008
  0.48359375000000004         -2.1781235573230745E-008
  0.48750000000000004         -2.2506379241422252E-008
  0.49140625000000004         -2.3236338742954643E-008
  0.49531250000000004         -2.3971518383444231E-008
  0.49921875000000004         -2.4712395710478445E-008
  0.50312500000000004         -2.5459447028695048E-008
  0.50703125000000004         -2.6213144058556785E-008
  0.51093750000000004         -2.6973915867239689E-008
  0.51484375000000004         -2.7742140877413292E-008
  0.51875000000000004         -2.8518105987438248E-008
  0.52265625000000004         -2.9301987303670430E-008
  0.52656250000000004         -3.0093859828306031E-008
  0.53046875000000004         -3.0893669811291349E-008
  0.53437500000000004         -3.1701257924865713E-008
  0.53828125000000004         -3.2516353298060969E-008
  0.54218750000000004         -3.3338587083379643E-008
  0.54609375000000004         -3.4167495010695677E-008
  0.55000000000000004         -3.5002526088071131E-008
  0.55390625000000004         -3.5843070336505604E-008
  0.55781250000000004         -3.6688465905118361E-008
  0.56171875000000004         -3.7538012712696399E-008
  0.56562500000000004         -3.8391003775005739E-008
  0.56953125000000004         -3.9246742491852390E-008
  0.57343750000000004         -4.0104557636173904E-008
  0.57734375000000004         -4.0963808333347064E-008
  0.58125000000000004         -4.1823918585814192E-008
  0.58515625000000004         -4.2684376668168753E-008
  0.58906250000000004         -4.3544745987007331E-008
  0.59296875000000004         -4.4404676503627158E-008
  0.59687500000000004         -4.5263895695275590E-008
  0.60078125000000004         -4.6122211402278240E-008
  0.60468750000000004         -4.6979506276514378E-008
  0.60859375000000004         -4.7835705359746322E-008
  0.61250000000000004         -4.8690792935976478E-008
  0.61640625000000004         -4.9544788548302694E-008
  0.62031250000000004         -5.0397740814208471E-008
  0.62421875000000004         -5.1249722679416347E-008
  0.62812500000000004         -5.2100824456012212E-008
  0.63203125000000004         -5.2951152164298171E-008
  0.63593750000000004         -5.3800812686840580E-008
  0.63984375000000004         -5.4649918725566421E-008
  0.64375000000000004         -5.5498599417270103E-008
  0.64765625000000004         -5.6346983019986907E-008
  0.65156250000000004         -5.7195208068879545E-008
  0.65546875000000004         -5.8043389068198534E-008
  0.65937500000000004         -5.8891624109123355E-008
  0.66328125000000004         -5.9739955408894369E-008
  0.66718750000000004         -6.0588384005353185E-008
  0.67109375000000004         -6.1436849770564763E-008
  0.67500000000000004         -6.2285211770835203E-008
  0.67890625000000004         -6.3133244338851056E-008
  0.68281250000000004         -6.3980650722233465E-008
  0.68671875000000004         -6.4827038916032113E-008
  0.69062500000000004         -6.5671973281648502E-008
  0.69453125000000004         -6.6514978815006099E-008
  0.69843750000000004         -6.7355586831116793E-008
  0.70234375000000004         -6.8193340527548011E-008
  0.70625000000000004         -6.9027843732045181E-008
  0.71015625000000004         -6.9858782782250101E-008
  0.71406250000000004         -7.0685949044151766E-008
  0.71796875000000004         -7.1509276251089858E-008
  0.72187500000000004         -7.2328831753821426E-008
  0.72578125000000004         -7.3144792532233229E-008
  0.72968750000000004         -7.3957437145065181E-008
  0.73359375000000004         -7.4767114648690442E-008
  0.73750000000000004         -7.5574196584482243E-008
  0.74140625000000004         -7.6379081770927991E-008
  0.74531250000000004         -7.7182100197605178E-008
  0.74921875000000004         -7.7983518246959223E-008
  0.75312500000000004         -7.8783532482077164E-008
  0.75703125000000004         -7.9582217263711357E-008
  0.76093750000000004         -8.0379520065757049E-008
  0.76484375000000004         -8.1175320660381488E-008
  0.76875000000000004         -8.1969386061529779E-008
  0.77265625000000004         -8.2761455167296768E-008
  0.77656250000000004         -8.3551240892995141E-008
  0.78046875000000004         -8.4338458081843292E-008
  0.78437500000000004         -8.5122856247159881E-008
  0.78828125000000004         -8.5904232739436675E-008
  0.79218750000000004         -8.6682419438620348E-008
  0.79609375000000004         -8.7457284846304643E-008
  0.80000000000000004         -8.8228716852314281E-008
  0.80390625000000004         -8.8996616418997086E-008
  0.80781250000000004         -8.9760851651560078E-008
  0.81171875000000004         -9.0521253558594417E-008
  0.81562500000000004         -9.1277558831820887E-008
  0.81953125000000004         -9.2029437316329834E-008
  0.82343750000000004         -9.2776469970653452E-008
  0.82734375000000004         -9.3518174298139067E-008
  0.83125000000000004         -9.4254035195252582E-008
  0.83515625000000004         -9.4983549725464003E-008
  0.83906250000000004         -9.5706250908397537E-008
  0.84296875000000004         -9.6421777832583611E-008
  0.84687500000000004         -9.7129868372599332E-008
  0.85078125000000004         -9.7830434099237741E-008
  0.85468750000000004         -9.8523552716947922E-008
  0.85859375000000004         -9.9209482547392673E-008
  0.86250000000000004         -9.9888639445113262E-008
  0.86640625000000004         -1.0056156005286125E-007
  0.87031250000000004         -1.0122887089172884E-007
  0.87421875000000004         -1.0189122648997692E-007
  0.87812500000000004         -1.0254925798189738E-007
  0.88203125000000004         -1.0320352646361885E-007
  0.88593750000000004         -1.0385446171787332E-007
  0.88984375000000004         -1.0450237017729645E-007
  0.89375000000000004         -1.0514737624642560E-007
  0.89765625000000004         -1.0578944524988448E-007
  0.90156250000000004         -1.0642841113894919E-007
  0.90546875000000004         -1.0706398042281012E-007
  0.90937500000000004         -1.0769580112946881E-007
  0.91328125000000004         -1.0832346240562281E-007
  0.91718750000000004         -1.0894657985867794E-007
  0.92109375000000004         -1.0956478477684380E-007
  0.92500000000000004         -1.1017781027387047E-007