  -1.2000000000000000         -1.5879574992055688E-012
  -1.1960937500000000         -1.2955330039280751E-012
  -1.1921875000000000         -6.1433744171835548E-013
  -1.1882812500000000          3.6547383014639934E-013
  -1.1843750000000000          1.5038545052389323E-012
  -1.1804687500000000          2.6255002853552635E-012
  -1.1765625000000000          3.5396669319071898E-012
  -1.1726562500000000          4.0625632093990916E-012
  -1.1687500000000000          4.0418732159843601E-012
  -1.1648437500000000          3.3752465935738356E-012
  -1.1609375000000000          2.0273598964667831E-012
  -1.1570312500000000          3.8558193777896501E-014
  -1.1531250000000000         -2.4730699979799269E-012
  -1.1492187500000000         -5.3203213389608826E-012
  -1.1453125000000000         -8.2625791581996573E-012
  -1.1414062500000000         -1.1027764444657080E-011
  -1.1375000000000000         -1.3339614976636035E-011
  -1.1335937500000000         -1.4947329443802755E-011
  -1.1296875000000000         -1.5653925433960643E-011
  -1.1257812500000000         -1.5339346085518458E-011
  -1.1218750000000000         -1.3979324324122471E-011
  -1.1179687500000000         -1.1650372090511938E-011
  -1.1140625000000000         -8.5291375598506968E-012
  -1.1101562500000000         -4.8766390846235699E-012
  -1.1062500000000000         -1.0164494217054017E-012
  -1.1023437500000000          2.6984874160428661E-012
  -1.0984375000000000          5.9229338174271812E-012
  -1.0945312500000000          8.3539681951462580E-012
  -1.0906250000000000          9.7670043867371234E-012
  -1.0867187500000000          1.0041759511435508E-011
  -1.0828125000000000          9.1786091170408069E-012
  -1.0789062500000000          7.3017673930257244E-012
  -1.0750000000000000          4.6504157407318862E-012
  -1.0710937500000000          1.5548856009956976E-012
  -1.0671875000000000         -1.5965783709160570E-012
  -1.0632812500000000         -4.4006915196103076E-012
  -1.0593750000000000         -6.4824878841640236E-012
  -1.0554687500000000         -7.5379936108690150E-012
  -1.0515625000000000         -7.3708328036301892E-012
  -1.0476562500000000         -5.9169903175051596E-012
  -1.0437500000000000         -3.2554583113519720E-012
  -1.0398437500000000          3.9683501896083241E-013
  -1.0359375000000000          4.7054331332248914E-012
  -1.0320312500000000          9.2535255819428378E-012
  -1.0281250000000000          1.3584727503223796E-011
  -1.0242187500000000          1.7253220475142822E-011
  -1.0203125000000000          1.9873113881928100E-011
  -1.0164062500000000          2.1161921278483981E-011
  -1.0125000000000000          2.0972784188738767E-011
  -1.0085937500000000          1.9309626577862572E-011
  -1.0046875000000000          1.6329687144091554E-011
  -1.0007812500000000          1.2325347442597673E-011
 -0.99687499999999996          7.6922180690522852E-012
 -0.99296874999999996          2.8840392507116721E-012
 -0.98906249999999996         -1.6366431545045194E-012
 -0.98515624999999996         -5.4497356289814082E-012
 -0.98124999999999996         -8.2247873645528367E-012
 -0.97734374999999996         -9.7552534949918468E-012
 -0.97343749999999996         -9.9794680442485411E-012
 -0.96953124999999996         -8.9828427088362233E-012
 -0.96562499999999996         -6.9842930648978036E-012
 -0.96171874999999996         -4.3056360749699480E-012
 -0.95781249999999996         -1.3295296665164487E-012
 -0.95390624999999996          1.5498243069971717E-012
 -0.94999999999999996          3.9747424567013984E-012
 -0.94609374999999996          5.6694753336805981E-012
 -0.94218749999999996          6.4717252361518370E-012
 -0.93828124999999996          6.3523501434245012E-012
 -0.93437499999999996          5.4148549685389643E-012
 -0.93046874999999996          3.8784366956833171E-012
 -0.92656249999999996          2.0470124201664561E-012
 -0.92265624999999996          2.6634517448275909E-013
 -0.91874999999999996         -1.1252225393636187E-012
 -0.91484374999999996         -1.8444898098261543E-012
 -0.91093749999999996         -1.7039515327492868E-012
 -0.90703124999999996         -6.4008488590184851E-013
 -0.90312499999999996          1.2741027656525440E-012
 -0.89921874999999996          3.8332720846962651E-012
 -0.89531249999999996          6.7242064673004135E-012
 -0.89140624999999996          9.5623841087580916E-012
 -0.88749999999999996          1.1940063101136212E-011
 -0.88359374999999996          1.3478149446502995E-011
 -0.87968749999999996          1.3876321951992988E-011
 -0.87578124999999996          1.2953841405794347E-011
 -0.87187499999999996          1.0677696046518294E-011
 -0.86796874999999996          7.1716034469661255E-012
 -0.86406249999999996          2.7076692398625267E-012
 -0.86015624999999996         -2.3218490000764626E-012
 -0.85624999999999996         -7.4471805120850086E-012
 -0.85234374999999996         -1.2173409239177245E-011
 -0.84843749999999996         -1.6038599115521252E-011
 -0.84453124999999996         -1.8665278651765076E-011
 -0.84062499999999996         -1.9805412213741126E-011
 -0.83671874999999996         -1.9370209755926103E-011
 -0.83281249999999996         -1.7441300714399878E-011
 -0.82890624999999996         -1.4261739359582741E-011
 -0.82499999999999996         -1.0207092717554419E-011
 -0.82109374999999996         -5.7437732910524630E-012
 -0.81718749999999996         -1.3754373285509966E-012
 -0.81328124999999996          2.4152134784028847E-012
 -0.80937499999999996          5.2207047785377752E-012
 -0.80546874999999996          6.7540331465933853E-012
 -0.80156249999999996          6.8808217753331114E-012
 -0.79765624999999996          5.6318314629447698E-012
 -0.79374999999999996          3.1967145003584239E-012
 -0.78984374999999996         -1.0004652662282625E-013
 -0.78593749999999996         -3.8402419128787680E-012
 -0.78203124999999996         -7.5603640623882860E-012
 -0.77812499999999996         -1.0807998924232092E-011
 -0.77421874999999996         -1.3191032382011781E-011
 -0.77031249999999996         -1.4423636081443007E-011
 -0.76640624999999996         -1.4354907118317401E-011
 -0.76249999999999996         -1.2984080010354458E-011
 -0.75859374999999996         -1.0455441539247045E-011
 -0.75468749999999996         -7.0387267394213123E-012
 -0.75078124999999996         -3.0932317527590467E-012
 -0.74687499999999996          9.7533666621360136E-013
 -0.74296874999999996          4.7630826172987092E-012
 -0.73906249999999996          7.9140096160352559E-012
 -0.73515624999999996          1.0157800307327438E-011
 -0.73124999999999996          1.1336988022913591E-011
 -0.72734374999999996          1.1420565528349371E-011
 -0.72343749999999996          1.0498377052544740E-011
 -0.71953124999999996          8.7657019180993673E-012
 -0.71562499999999996          6.4919215602529822E-012
 -0.71171874999999996          3.9847109178373559E-012
 -0.70781249999999996          1.5472661452162981E-012
 -0.70390624999999996         -5.5635143178475335E-013
 -0.69999999999999996         -2.1326481482010610E-012
 -0.69609374999999996         -3.0790157874377934E-012
 -0.69218749999999996         -3.3919462754590373E-012
 -0.68828124999999996         -3.1610645072249420E-012
 -0.68437499999999996         -2.5505584323242084E-012
 -0.68046874999999996         -1.7728817975410332E-012
 -0.67656249999999996         -1.0543113580914377E-012
 -0.67265624999999996         -6.0204812718680257E-013
 -0.66874999999999996         -5.7233375306846525E-013
 -0.66484374999999996         -1.0448236961885437E-012
 -0.66093749999999996         -2.0114537878560439E-012
 -0.65703124999999996         -3.3732054842054912E-012
 -0.65312499999999996         -4.9516940394466748E-012
 -0.64921874999999996         -6.5097906862178598E-012
 -0.64531249999999996         -7.7805406455285054E-012
 -0.64140624999999996         -8.5024934450553886E-012
 -0.63749999999999996         -8.4539355069432451E-012
 -0.63359374999999996         -7.4836990751016721E-012
 -0.62968749999999996         -5.5367996914514376E-012
 -0.62578124999999996         -2.6659706210081590E-012
 -0.62187499999999996          9.6719958651831223E-013
 -0.61796874999999996          5.1027256239740992E-012
 -0.61406249999999996          9.4024406178632735E-012
 -0.61015624999999996          1.3481749884942284E-011
 -0.60624999999999996          1.6942061536284926E-011
 -0.60234374999999996          1.9412422098030809E-011
 -0.59843749999999996          2.0583762931260508E-011
 -0.59453124999999996          2.0240406518736440E-011
 -0.59062499999999996          1.8278521078239647E-011
 -0.58671874999999996          1.4718387927120676E-011
 -0.58281249999999996          9.7055642378214874E-012
 -0.57890624999999996          3.4982964604626874E-012
 -0.57499999999999996         -3.5524113852791758E-012
 -0.57109374999999996         -1.1029341997886031E-011
 -0.56718749999999996         -1.8483371116934033E-011
 -0.56328124999999996         -2.5465233374771636E-011
 -0.55937499999999996         -3.1556928524245355E-011
 -0.55546874999999996         -3.6398123746963733E-011
 -0.55156249999999996         -3.9705640524728253E-011
 -0.54765624999999996         -4.1285217728766384E-011
 -0.54374999999999996         -4.1038489709341621E-011
 -0.53984374999999996         -3.8956420319837050E-011
 -0.53593749999999996         -3.5106212467497893E-011
 -0.53203124999999996         -2.9617240497263380E-011
 -0.52812499999999996         -2.2664320186695571E-011
 -0.52421874999999996         -1.4450199607485634E-011
 -0.52031249999999996         -5.1884526389636210E-012
 -0.51640624999999996          4.9060790622869367E-012
 -0.51249999999999996          1.5621816898498207E-011
 -0.50859374999999996          2.6749617333506211E-011
 -0.50468749999999996          3.8071208005819969E-011
 -0.50078124999999996          4.9348215810524969E-011
 -0.49687499999999996          6.0297884346442480E-011
 -0.49296874999999996          7.0574601544176594E-011
 -0.48906249999999996          7.9747578509880224E-011
 -0.48515624999999996          8.7278012406292244E-011
 -0.48124999999999996          9.2508846997900860E-011
 -0.47734374999999996          9.4652443804049359E-011
 -0.47343749999999996          9.2798086416306741E-011
 -0.46953124999999996          8.5913073782946328E-011
 -0.46562499999999996          7.2864450344063518E-011
 -0.46171874999999996          5.2439748546885821E-011
 -0.45781249999999996          2.3380801084603275E-011
 -0.45390624999999996         -1.5578457832574134E-011
 -0.44999999999999996         -6.5681578200835413E-011
 -0.44609374999999996         -1.2811560884810969E-010
 -0.44218749999999996         -2.0398135612192346E-010
 -0.43828124999999996         -2.9427077426979680E-010
 -0.43437499999999996         -3.9985848546680105E-010
 -0.43046874999999996         -5.2148939192618228E-010
 -0.42656249999999996         -6.5978770657064420E-010
 -0.42265624999999996         -8.1526130087839481E-010
 -0.41874999999999996         -9.8831610506550575E-010
 -0.41484374999999996         -1.1792733653005294E-009
 -0.41093749999999996         -1.3883815756198058E-009
 -0.40703124999999996         -1.6158314855530138E-009
 -0.40312499999999996         -1.8617577665048705E-009
 -0.39921874999999996         -2.1262374643033051E-009
 -0.39531249999999996         -2.4092809375370815E-009
 -0.39140624999999996         -2.7108114259751807E-009
 -0.38749999999999996         -3.0306497042845491E-009
 -0.38359374999999996         -3.3684902402572656E-009
 -0.37968749999999996         -3.7238773747468440E-009
 -0.37578124999999996         -4.0961892260232789E-009
 -0.37187499999999996         -4.4846292651016381E-009
 -0.36796874999999996         -4.8882319617583856E-009
 -0.36406249999999996         -5.3058770739016569E-009
 -0.36015624999999996         -5.7363188758212989E-009
 -0.35624999999999996         -6.1782242837221968E-009
 -0.35234374999999996         -6.6302256144976402E-009
 -0.34843749999999996         -7.0909767671273210E-009
 -0.34453124999999996         -7.5592085026564363E-009
 -0.34062499999999996         -8.0337830120247722E-009
 -0.33671874999999996         -8.5137438932811283E-009
 -0.33281249999999996         -8.9983436072678894E-009
 -0.32890624999999996         -9.4870627029889768E-009
 -0.32499999999999996         -9.9796137790078104E-009
 -0.32109374999999996         -1.0475916656134204E-008
 -0.31718749999999996         -1.0976074307307316E-008
 -0.31328124999999996         -1.1480329893262953E-008
 -0.30937499999999996         -1.1989014441126027E-008
 -0.30546874999999996         -1.2502499619450861E-008
 -0.30156249999999996         -1.3021146126628754E-008
 -0.29765624999999996         -1.3545265325685907E-008
 -0.29374999999999996         -1.4075095905863487E-008
 -0.28984374999999996         -1.4610784018228604E-008
 -0.28593749999999996         -1.5152390013688358E-008
 -0.28203124999999996         -1.5699893702439702E-008
 -0.27812499999999996         -1.6253220167490823E-008
 -0.27421874999999996         -1.6812260512341863E-008
 -0.27031249999999996         -1.7376903698252400E-008
 -0.26640624999999996         -1.7947046399479641E-008
 -0.26249999999999996         -1.8522613059672656E-008
 -0.25859374999999996         -1.9103554973072456E-008
 -0.25468749999999996         -1.9689841990339439E-008
 -0.25078124999999996         -2.0281432428845353E-008
 -0.24687499999999996         -2.0878251057289895E-008
 -0.24296874999999996         -2.1480154751624689E-008
 -0.23906249999999996         -2.2086894035100784E-008
 -0.23515624999999996         -2.2698095095002031E-008
 -0.23124999999999996         -2.3313233366019080E-008
 -0.22734374999999996         -2.3931637930634258E-008
 -0.22343749999999996         -2.4552504077181946E-008
 -0.21953124999999996         -2.5174927096015193E-008
 -0.21562499999999996         -2.5797946764745738E-008
 -0.21171874999999996         -2.6420604314876000E-008
 -0.20781249999999996         -2.7042000886568003E-008
 -0.20390624999999996         -2.7661366149606178E-008
 -0.19999999999999996         -2.8278108667344256E-008
 -0.19609374999999996         -2.8891859955078865E-008
 -0.19218749999999996         -2.9502491155221530E-008
 -0.18828124999999996         -3.0110116760231248E-008
 -0.18437499999999996         -3.0715081058309864E-008
 -0.18046874999999996         -3.1317916312895270E-008
 -0.17656249999999996         -3.1919289720359248E-008
 -0.17265624999999996         -3.2519935400169141E-008
 -0.16874999999999996         -3.3120596242209355E-008
 -0.16484374999999996         -3.3721952652954247E-008
 -0.16093749999999996         -3.4324581799321884E-008
 -0.15703124999999996         -3.4928906768236408E-008
 -0.15312499999999996         -3.5535185790790558E-008
 -0.14921874999999996         -3.6143510684073984E-008
 -0.14531249999999996         -3.6753824515637682E-008
 -0.14140624999999996         -3.7365951892436295E-008
 -0.13749999999999996         -3.7979644083308171E-008
 -0.13359374999999996         -3.8594623878421194E-008
 -0.12968749999999996         -3.9210619773720837E-008
 -0.12578124999999996         -3.9827408830990409E-008
 -0.12187499999999996         -4.0444828799413073E-008
 -0.11796874999999996         -4.1062791161281345E-008
 -0.11406249999999996         -4.1681271143029108E-008
 -0.11015624999999996         -4.2300263800834416E-008
 -0.10624999999999996         -4.2919773257922843E-008
 -0.10234374999999996         -4.3539753401783324E-008
  -9.8437499999999956E-002    -4.4160078565536038E-008
  -9.4531249999999956E-002    -4.4780505378081567E-008
  -9.0624999999999956E-002    -4.5400662183436177E-008
  -8.6718749999999956E-002    -4.6020030269014760E-008
  -8.2812499999999956E-002    -4.6637961638432080E-008
  -7.8906249999999956E-002    -4.7253705144330612E-008
  -7.4999999999999956E-002    -4.7866444459461491E-008
  -7.1093749999999956E-002    -4.8475353959281455E-008
  -6.7187499999999956E-002    -4.9079659726647940E-008
  -6.3281249999999956E-002    -4.9678683201637761E-008
  -5.9374999999999956E-002    -5.0271904453460820E-008
  -5.5468749999999956E-002    -5.0858981935317858E-008
  -5.1562499999999956E-002    -5.1439784663674422E-008
  -4.7656249999999956E-002    -5.2014395119712234E-008
  -4.3749999999999956E-002    -5.2583093364851840E-008
  -3.9843749999999956E-002    -5.3146327815853254E-008
  -3.5937499999999956E-002    -5.3704666933641301E-008
  -3.2031249999999956E-002    -5.4258760812400284E-008
  -2.8124999999999956E-002    -5.4809282887200006E-008
  -2.4218749999999956E-002    -5.5356884024210253E-008
  -2.0312499999999956E-002    -5.5902162852914557E-008
  -1.6406249999999956E-002    -5.6445619830244406E-008
  -1.2499999999999956E-002    -5.6987651656274747E-008
  -8.5937499999999556E-003    -5.7528550738176105E-008
  -4.6874999999999556E-003    -5.8068508578442509E-008
  -7.8124999999995559E-004    -5.8607635507930855E-008
   3.1250000000000444E-003    -5.9145997158182193E-008
   7.0312500000000444E-003    -5.9683615047175315E-008
   1.0937500000000044E-002    -6.0220507318688065E-008
   1.4843750000000044E-002    -6.0756696966763544E-008
   1.8750000000000044E-002    -6.1292208837972557E-008
   2.2656250000000044E-002    -6.1827085698233127E-008
   2.6562500000000044E-002    -6.2361348444921476E-008
   3.0468750000000044E-002    -6.2894978140834588E-008
   3.4375000000000044E-002    -6.3427909278753121E-008
   3.8281250000000044E-002    -6.3959976265184963E-008
   4.2187500000000044E-002    -6.4490898553096122E-008
   4.6093750000000044E-002    -6.5020285347329854E-008
   5.0000000000000044E-002    -6.5547573858232799E-008
   5.3906250000000044E-002    -6.6072098299358830E-008
   5.7812500000000044E-002    -6.6593048193709058E-008
   6.1718750000000044E-002    -6.7109532692495908E-008
   6.5625000000000044E-002    -6.7620603490062449E-008
   6.9531250000000044E-002    -6.8125312303633839E-008
   7.3437500000000044E-002    -6.8622744881385893E-008
   7.7343750000000044E-002    -6.9112083561168553E-008
   8.1250000000000044E-002    -6.9592652035409909E-008
   8.5156250000000044E-002    -7.0063955011351122E-008
   8.9062500000000044E-002    -7.0525694062301689E-008
   9.2968750000000044E-002    -7.0977796131315547E-008
   9.6875000000000044E-002    -7.1420403910022016E-008
  0.10078125000000004         -7.1853883217701578E-008
  0.10468750000000004         -7.2278782267485194E-008
  0.10859375000000004         -7.2695805630475460E-008
  0.11250000000000004         -7.3105772067003734E-008
  0.11640625000000004         -7.3509574340543949E-008
  0.12031250000000004         -7.3908136989266646E-008
  0.12421875000000004         -7.4302370725741235E-008
  0.12812500000000004         -7.4693142489012322E-008
  0.13203125000000004         -7.5081237339256172E-008
  0.13593750000000004         -7.5467345769630115E-008
  0.13984375000000004         -7.5852039821089009E-008
  0.14375000000000004         -7.6235754344254733E-008
  0.14765625000000004         -7.6618804836908796E-008
  0.15156250000000004         -7.7001367184410888E-008
  0.15546875000000004         -7.7383490081835694E-008
  0.15937500000000004         -7.7765129125932782E-008
  0.16328125000000004         -7.8146109094459436E-008
  0.16718750000000004         -7.8526186556755310E-008
  0.17109375000000004         -7.8905030237753473E-008
  0.17500000000000004         -7.9282233774320866E-008
  0.17890625000000004         -7.9657332087021832E-008
  0.18281250000000004         -8.0029798075073037E-008
  0.18671875000000004         -8.0399060085281431E-008
  0.19062500000000004         -8.0764492867196652E-008
  0.19453125000000004         -8.1125431991659888E-008
  0.19843750000000004         -8.1481168335961484E-008
  0.20234375000000004         -8.1830967564095553E-008
  0.20625000000000004         -8.2174078677434449E-008
  0.21015625000000004         -8.2509731549493082E-008
  0.21406250000000004         -8.2837173940331861E-008
  0.21796875000000004         -8.3155686689634499E-008
  0.22187500000000004         -8.3464594351614106E-008
  0.22578125000000004         -8.3763309363640313E-008
  0.22968750000000004         -8.4051332519295177E-008
  0.23359375000000004         -8.4328300575989116E-008
  0.23750000000000004         -8.4593989372139554E-008
  0.24140625000000004         -8.4848331506765614E-008
  0.24531250000000004         -8.5091428470017664E-008
  0.24921875000000004         -8.5323521085654473E-008
  0.25312500000000004         -8.5545006929074082E-008
  0.25703125000000004         -8.5756396652823987E-008
  0.26093750000000004         -8.5958309797327033E-008
  0.26484375000000004         -8.6151421548799880E-008
  0.26875000000000004         -8.6336433100528499E-008
  0.27265625000000004         -8.6514034132678242E-008
  0.27656250000000004         -8.6684878925857416E-008
  0.28046875000000004         -8.6849539904562388E-008
  0.28437500000000004         -8.7008502767336691E-008
  0.28828125000000004         -8.7162138807186024E-008
  0.29218750000000004         -8.7310717832794336E-008
  0.29609375000000004         -8.7454388556360980E-008
  0.30000000000000004         -8.7593204078710571E-008
  0.30390625000000004         -8.7727120812455541E-008
  0.30781250000000004         -8.7856025661719265E-008
  0.31171875000000004         -8.7979724277043489E-008
  0.31562500000000004         -8.8097977877979556E-008
  0.31953125000000004         -8.8210473026356597E-008
  0.32343750000000004         -8.8316833823274572E-008
  0.32734375000000004         -8.8416605570999283E-008
  0.33125000000000004         -8.8509243431499663E-008
  0.33515625000000004         -8.8594102796482807E-008
  0.33906250000000004         -8.8670400131784689E-008
  0.34296875000000004         -8.8737238296095414E-008
  0.34687500000000004         -8.8793579220423214E-008
  0.35078125000000004         -8.8838294988649298E-008
  0.35468750000000004         -8.8870169509806955E-008
  0.35859375000000004         -8.8887941833213571E-008
  0.36250000000000004         -8.8890360619017163E-008
  0.36640625000000004         -8.8876255701257101E-008
  0.37031250000000004         -8.8844598765778741E-008
  0.37421875000000004         -8.8794559650372461E-008
  0.37812500000000004         -8.8725563101229264E-008
  0.38203125000000004         -8.8637324530035233E-008
  0.38593750000000004         -8.8529883485282617E-008
  0.38984375000000004         -8.8403596125854834E-008
  0.39375000000000004         -8.8259108786716027E-008
  0.39765625000000004         -8.8097337498348727E-008
  0.40156250000000004         -8.7919393201394687E-008
  0.40546875000000004         -8.7726515729805377E-008
  0.40937500000000004         -8.7520013105074926E-008
  0.41328125000000004         -8.7301169880673456E-008
  0.41718750000000004         -8.7071196607435592E-008
  0.42109375000000004         -8.6831166972837733E-008
  0.42500000000000004         -8.6581975499294042E-008
  0.42890625000000004         -8.6324336077101572E-008
  0.43281250000000004         -8.6058774268889223E-008
  0.43671875000000004         -8.5785651030151120E-008
  0.44062500000000004         -8.5505194949867974E-008
  0.44453125000000004         -8.5217525926286657E-008
  0.44843750000000004         -8.4922692171263266E-008
  0.45234375000000004         -8.4620718351181471E-008
  0.45625000000000004         -8.4311597812316165E-008
  0.46015625000000004         -8.3995327168211307E-008
  0.46406250000000004         -8.3671888129573714E-008
  0.46796875000000004         -8.3341242468910553E-008
  0.47187500000000004         -8.3003283715852174E-008
  0.47578125000000004         -8.2657849237495220E-008
  0.47968750000000004         -8.2304658878793703E-008
  0.48359375000000004         -8.1943296128831749E-008
  0.48750000000000004         -8.1573215951028368E-008
  0.49140625000000004         -8.1193737723972948E-008
  0.49531250000000004         -8.0804081567253838E-008
  0.49921875000000004         -8.0403378915826042E-008
  0.50312500000000004         -7.9990737745402444E-008
  0.50703125000000004         -7.9565323283627810E-008
  0.51093750000000004         -7.9126383910067514E-008
  0.51484375000000004         -7.8673344003281852E-008
  0.51875000000000004         -7.8205832166009092E-008
  0.52265625000000004         -7.7723727714433874E-008
  0.52656250000000004         -7.7227168560705193E-008
  0.53046875000000004         -7.6716568670224407E-008
  0.53437500000000004         -7.6192562821132995E-008
  0.53828125000000004         -7.5655999092819057E-008
  0.54218750000000004         -7.5107861236056064E-008
  0.54609375000000004         -7.4549221594755032E-008
  0.55000000000000004         -7.3981182268738346E-008
  0.55390625000000004         -7.3404823170476334E-008
  0.55781250000000004         -7.2821161352997304E-008
  0.56171875000000004         -7.2231140021748946E-008
  0.56562500000000004         -7.1635593623619947E-008
  0.56953125000000004         -7.1035269288678738E-008
  0.57343750000000004         -7.0430827966313091E-008
  0.57734375000000004         -6.9822862960655752E-008
  0.58125000000000004         -6.9211939364804109E-008
  0.58515625000000004         -6.8598598857809921E-008
  0.58906250000000004         -6.7983375353137940E-008
  0.59296875000000004         -6.7366800430006876E-008
  0.59687500000000004         -6.6749371409053922E-008
  0.60078125000000004         -6.6131538666601117E-008
  0.60468750000000004         -6.5513645461110227E-008
  0.60859375000000004         -6.4895901253903379E-008
  0.61250000000000004         -6.4278332378335658E-008
  0.61640625000000004         -6.3660742560517059E-008
  0.62031250000000004         -6.3042667132693773E-008
  0.62421875000000004         -6.2423398602213390E-008
  0.62812500000000004         -6.1801952585414048E-008
  0.63203125000000004         -6.1177138751922678E-008
  0.63593750000000004         -6.0547592219513931E-008
  0.63984375000000004         -5.9911825872066465E-008
  0.64375000000000004         -5.9268331617579406E-008
  0.64765625000000004         -5.8615655090061916E-008
  0.65156250000000004         -5.7952488472223050E-008
  0.65546875000000004         -5.7277722487542618E-008
  0.65937500000000004         -5.6590529106073366E-008
  0.66328125000000004         -5.5890380665488920E-008
  0.66718750000000004         -5.5177079729015900E-008
  0.67109375000000004         -5.4450742859282327E-008
  0.67500000000000004         -5.3711784309827105E-008
  0.67890625000000004         -5.2960876536516320E-008
  0.68281250000000004         -5.2198892935903752E-008
  0.68671875000000004         -5.1426840728984675E-008
  0.69062500000000004         -5.0645809963887830E-008
  0.69453125000000004         -4.9856913508196048E-008
  0.69843750000000004         -4.9061256790915764E-008
  0.70234375000000004         -4.8259896172280761E-008
  0.70625000000000004         -4.7453815027211648E-008
  0.71015625000000004         -4.6643906228513482E-008
  0.71406250000000004         -4.5830978691232640E-008
  0.71796875000000004         -4.5015752485579780E-008
  0.72187500000000004         -4.4198862181585851E-008
  0.72578125000000004         -4.3380856160410474E-008
  0.72968750000000004         -4.2562194649482963E-008
  0.73359375000000004         -4.1743243133140827E-008
  0.73750000000000004         -4.0924263841940775E-008
  0.74140625000000004         -4.0105407162874319E-008
  0.74531250000000004         -3.9286681066152129E-008
  0.74921875000000004         -3.8467947998820587E-008
  0.75312500000000004         -3.7648906471210614E-008
  0.75703125000000004         -3.6829082289844045E-008
  0.76093750000000004         -3.6007834595501664E-008
  0.76484375000000004         -3.5184379110274310E-008
  0.76875000000000004         -3.4357796961238846E-008
  0.77265625000000004         -3.3527077417811099E-008
  0.77656250000000004         -3.2691159207706838E-008
  0.78046875000000004         -3.1848977838803280E-008
  0.78437500000000004         -3.0999501595739609E-008
  0.78828125000000004         -3.0141779910598090E-008
  0.79218750000000004         -2.9274979756276741E-008
  0.79609375000000004         -2.8398423899712010E-008
  0.80000000000000004         -2.7511611313180261E-008
  0.80390625000000004         -2.6614223678032455E-008
  0.80781250000000004         -2.5706135135316758E-008
  0.81171875000000004         -2.4787392228384297E-008
  0.81562500000000004         -2.3858200384396120E-008
  0.81953125000000004         -2.2918915503265136E-008
  0.82343750000000004         -2.1970002958132599E-008
  0.82734375000000004         -2.1012024079960368E-008
  0.83125000000000004         -2.0045596057326617E-008
  0.83515625000000004         -1.9071388752421773E-008
  0.83906250000000004         -1.8090089993688070E-008
  0.84296875000000004         -1.7102397285022346E-008
  0.84687500000000004         -1.6108999083242790E-008
  0.85078125000000004         -1.5110575486992099E-008
  0.85468750000000004         -1.4107794162830163E-008
  0.85859375000000004         -1.3101297647615663E-008
  0.86250000000000004         -1.2091705759857845E-008
  0.86640625000000004         -1.1079606959161189E-008
  0.87031250000000004         -1.0065546493787660E-008
  0.87421875000000004         -9.0500284113157918E-009
  0.87812500000000004         -8.0334960195399177E-009
  0.88203125000000004         -7.0163368332768238E-009
  0.88593750000000004         -5.9988750998252146E-009
  0.88984375000000004         -4.9813516784789340E-009
  0.89375000000000004         -3.9639209393815259E-009
  0.89765625000000004         -2.9466367970398331E-009
  0.90156250000000004         -1.9294196082240538E-009
  0.90546875000000004         -9.1205454833869932E-010
  0.90937500000000004          1.0581016888564482E-010
  0.91328125000000004          1.1246746838294163E-009
  0.91718750000000004          2.1451843594305211E-009
  0.92109375000000004          3.1681251043732873E-009
  0.92500000000000004          4.1944191510767888E-009