  -1.2000000000000000          2.7940765339738217E-007
  -1.1960937500000000          2.7440458662849282E-007
  -1.1921875000000000          2.6940343706118044E-007
  -1.1882812500000000          2.6440398123459557E-007
  -1.1843750000000000          2.5940582898569417E-007
  -1.1804687500000000          2.5440848312201056E-007
  -1.1765625000000000          2.4941141108698350E-007
  -1.1726562500000000          2.4441404413288312E-007
  -1.1687500000000000          2.3941588825455587E-007
  -1.1648437500000000          2.3441658788523187E-007
  -1.1609375000000000          2.2941592136708542E-007
  -1.1570312500000000          2.2441385996977300E-007
  -1.1531250000000000          2.1941056408480056E-007
  -1.1492187500000000          2.1440633927605861E-007
  -1.1453125000000000          2.0940165366203489E-007
  -1.1414062500000000          2.0439705142796160E-007
  -1.1375000000000000          1.9939310257060720E-007
  -1.1335937500000000          1.9439032464314221E-007
  -1.1296875000000000          1.8938916746237660E-007
  -1.1257812500000000          1.8438992009547374E-007
  -1.1218750000000000          1.7939269129033318E-007
  -1.1179687500000000          1.7439739643973242E-007
  -1.1140625000000000          1.6940373948839579E-007
  -1.1101562500000000          1.6441128833836519E-007
  -1.1062500000000000          1.5941951102902563E-007
  -1.1023437500000000          1.5442779021044832E-007
  -1.0984375000000000          1.4943552262395491E-007
  -1.0945312500000000          1.4444217315155631E-007
  -1.0906250000000000          1.3944734292435121E-007
  -1.0867187500000000          1.3445079785495956E-007
  -1.0828125000000000          1.2945249507919881E-007
  -1.0789062500000000          1.2445261604683591E-007
  -1.0750000000000000          1.1945151886446809E-007
  -1.0710937500000000          1.1444970864378455E-007
  -1.0671875000000000          1.0944779310083907E-007
  -1.0632812500000000          1.0444640733512356E-007
  -1.0593750000000000          9.9446147835379660E-008
  -1.0554687500000000          9.4447514283458739E-008
  -1.0515625000000000          8.9450846179298659E-008
  -1.0476562500000000          8.4456288928617451E-008
  -1.0437500000000000          7.9463776746824407E-008
  -1.0398437500000000          7.4473046493408725E-008
  -1.0359375000000000          6.9483646812344660E-008
  -1.0320312500000000          6.4494998077586725E-008
  -1.0281250000000000          5.9506441298957832E-008
  -1.0242187500000000          5.4517323721605346E-008
  -1.0203125000000000          4.9527062856055387E-008
  -1.0164062500000000          4.4535197181868768E-008
  -1.0125000000000000          3.9541440099267713E-008
  -1.0085937500000000          3.4545724774513462E-008
  -1.0046875000000000          2.9548184719312628E-008
  -1.0007812500000000          2.4549160470659497E-008
 -0.99687499999999996          1.9549143072260514E-008
 -0.99296874999999996          1.4548740846420817E-008
 -0.98906249999999996          9.5485871976887539E-009
 -0.98515624999999996          4.5493004258712777E-009
 -0.98124999999999996         -4.4861061021489759E-010
 -0.97734374999999996         -5.4447949349520462E-009
 -0.97343749999999996         -1.0439084859520561E-008
 -0.96953124999999996         -1.5431542738783535E-008
 -0.96562499999999996         -2.0422422656557801E-008
 -0.96171874999999996         -2.5412164025835460E-008
 -0.95781249999999996         -3.0401337877337192E-008
 -0.95390624999999996         -3.5390574883935009E-008
 -0.94999999999999996         -4.0380511215423529E-008
 -0.94609374999999996         -4.5371707999146777E-008
 -0.94218749999999996         -5.0364586162805551E-008
 -0.93828124999999996         -5.5359389737830093E-008
 -0.93437499999999996         -6.0356163404795256E-008
 -0.93046874999999996         -6.5354732707602588E-008
 -0.92656249999999996         -7.0354731251705344E-008
 -0.92265624999999996         -7.5355639308514311E-008
 -0.91874999999999996         -8.0356860580687094E-008
 -0.91484374999999996         -8.5357752789980344E-008
 -0.91093749999999996         -9.0357741747383274E-008
 -0.90703124999999996         -9.5356360312718800E-008
 -0.90312499999999996         -1.0035332000501140E-007
 -0.89921874999999996         -1.0534852680494743E-007
 -0.89531249999999996         -1.1034209437444515E-007
 -0.89140624999999996         -1.1533434376668906E-007
 -0.88749999999999996         -1.2032576853537596E-007
 -0.88359374999999996         -1.2531698089624060E-007
 -0.87968749999999996         -1.3030861681000434E-007
 -0.87578124999999996         -1.3530129860439880E-007
 -0.87187499999999996         -1.4029554272146781E-007
 -0.86796874999999996         -1.4529171441121901E-007
 -0.86406249999999996         -1.5028998683094825E-007
 -0.86015624999999996         -1.5529030310306474E-007
 -0.85624999999999996         -1.6029239278579491E-007
 -0.85234374999999996         -1.6529581726164204E-007
 -0.84843749999999996         -1.7030000146297909E-007
 -0.84453124999999996         -1.7530430315717721E-007
 -0.84062499999999996         -1.8030809221585946E-007
 -0.83671874999999996         -1.8531080967484267E-007
 -0.83281249999999996         -1.9031207081787601E-007
 -0.82890624999999996         -1.9531164967985426E-007
 -0.82499999999999996         -2.0030957307960274E-007
 -0.82109374999999996         -2.0530606652282802E-007
 -0.81718749999999996         -2.1030154143609079E-007
 -0.81328124999999996         -2.1529658205994020E-007
 -0.80937499999999996         -2.2029184035322134E-007
 -0.80546874999999996         -2.2528800496985970E-007
 -0.80156249999999996         -2.3028564878623774E-007
 -0.79765624999999996         -2.3528525175579304E-007
 -0.79374999999999996         -2.4028710886230673E-007
 -0.78984374999999996         -2.4529125412512746E-007
 -0.78593749999999996         -2.5029753909727277E-007
 -0.78203124999999996         -2.5530555238646724E-007
 -0.77812499999999996         -2.6031476820819982E-007
 -0.77421874999999996         -2.6532454723252984E-007
 -0.77031249999999996         -2.7033417203673058E-007
 -0.76640624999999996         -2.7534301988530441E-007
 -0.76249999999999996         -2.8035058449373269E-007
 -0.75859374999999996         -2.8535654087012815E-007
 -0.75468749999999996         -2.9036077188446980E-007
 -0.75078124999999996         -2.9536342951477804E-007
 -0.74687499999999996         -3.0036484787540271E-007
 -0.74296874999999996         -3.0536556421208492E-007
 -0.73906249999999996         -3.1036622320213722E-007
 -0.73515624999999996         -3.1536753210319984E-007
 -0.73124999999999996         -3.2037017944747201E-007
 -0.72734374999999996         -3.2537471110173030E-007
 -0.72343749999999996         -3.3038153822133616E-007
 -0.71953124999999996         -3.3539081357402986E-007
 -0.71562499999999996         -3.4040251874685339E-007
 -0.71171874999999996         -3.4541630942976089E-007
 -0.70781249999999996         -3.5043175194238609E-007
 -0.70390624999999996         -3.5544818741002738E-007
 -0.69999999999999996         -3.6046493575508180E-007
 -0.69609374999999996         -3.6548131094159830E-007
 -0.69218749999999996         -3.7049675933329178E-007
 -0.68828124999999996         -3.7551083617683747E-007
 -0.68437499999999996         -3.8052334829066183E-007
 -0.68046874999999996         -3.8553433723961466E-007
 -0.67656249999999996         -3.9054407836554874E-007
 -0.67265624999999996         -3.9555301381127396E-007
 -0.66874999999999996         -4.0056176297450963E-007
 -0.66484374999999996         -4.0557102966140856E-007
 -0.66093749999999996         -4.1058147492046368E-007
 -0.65703124999999996         -4.1559373247988134E-007
 -0.65312499999999996         -4.2060822374028945E-007
 -0.64921874999999996         -4.2562518748341429E-007
 -0.64531249999999996         -4.3064464227054402E-007
 -0.64140624999999996         -4.3566638003591677E-007
 -0.63749999999999996         -4.4068995519443425E-007
 -0.63359374999999996         -4.4571476044806444E-007
 -0.62968749999999996         -4.5074018110650623E-007
 -0.62578124999999996         -4.5576548513083593E-007
 -0.62187499999999996         -4.6079009672605935E-007
 -0.61796874999999996         -4.6581352409026956E-007
 -0.61406249999999996         -4.7083553788570790E-007
 -0.61015624999999996         -4.7585610741573768E-007
 -0.60624999999999996         -4.8087541452204704E-007
 -0.60234374999999996         -4.8589389974831007E-007
 -0.59843749999999996         -4.9091211726873565E-007
 -0.59453124999999996         -4.9593076234480359E-007
 -0.59062499999999996         -5.0095045797189927E-007
 -0.58671874999999996         -5.0597182186515549E-007
 -0.58281249999999996         -5.1099527250748778E-007
 -0.57890624999999996         -5.1602112492051939E-007
 -0.57499999999999996         -5.2104945173669567E-007
 -0.57109374999999996         -5.2608006689061823E-007
 -0.56718749999999996         -5.3111259413068578E-007
 -0.56328124999999996         -5.3614655372354405E-007
 -0.55937499999999996         -5.4118132525040191E-007
 -0.55546874999999996         -5.4621638438965876E-007
 -0.55156249999999996         -5.5125118220218969E-007
 -0.54765624999999996         -5.5628541146447929E-007
 -0.54374999999999996         -5.6131895305035490E-007
 -0.53984374999999996         -5.6635189211170265E-007
 -0.53593749999999996         -5.7138457611974558E-007
 -0.53203124999999996         -5.7641745974269957E-007
 -0.52812499999999996         -5.8145124757035104E-007
 -0.52421874999999996         -5.8648660219728976E-007
 -0.52031249999999996         -5.9152427946918124E-007
 -0.51640624999999996         -5.9656483956720743E-007
 -0.51249999999999996         -6.0160867984384633E-007
 -0.50859374999999996         -6.0665595027285793E-007
 -0.50468749999999996         -6.1170653829602595E-007
 -0.50078124999999996         -6.1675994898501784E-007
 -0.49687499999999996         -6.2181549931772060E-007
 -0.49296874999999996         -6.2687229877237533E-007
 -0.48906249999999996         -6.3192928955973322E-007
 -0.48515624999999996         -6.3698534793874184E-007
 -0.48124999999999996         -6.4203936428175409E-007
 -0.47734374999999996         -6.4709034010786914E-007
 -0.47343749999999996         -6.5213744151607997E-007
 -0.46953124999999996         -6.5718004168687453E-007
 -0.46562499999999996         -6.6221766812044249E-007
 -0.46171874999999996         -6.6725011079711541E-007
 -0.45781249999999996         -6.7227730378624917E-007
 -0.45390624999999996         -6.7729917199611119E-007
 -0.44999999999999996         -6.8231577884059631E-007
 -0.44609374999999996         -6.8732706700848346E-007
 -0.44218749999999996         -6.9233286971520904E-007
 -0.43828124999999996         -6.9733291214407537E-007
 -0.43437499999999996         -7.0232669594810409E-007
 -0.43046874999999996         -7.0731353063173352E-007
 -0.42656249999999996         -7.1229261476202063E-007
 -0.42265624999999996         -7.1726304060763504E-007
 -0.41874999999999996         -7.2222392132343614E-007
 -0.41484374999999996         -7.2717439276534611E-007
 -0.41093749999999996         -7.3211382417323826E-007
 -0.40703124999999996         -7.3704173940234636E-007
 -0.40312499999999996         -7.4195796722618590E-007
 -0.39921874999999996         -7.4686258977483739E-007
 -0.39531249999999996         -7.5175602852616881E-007
 -0.39140624999999996         -7.5663888313469529E-007
 -0.38749999999999996         -7.6151202975084785E-007
 -0.38359374999999996         -7.6637642745684300E-007
 -0.37968749999999996         -7.7123305111974680E-007
 -0.37578124999999996         -7.7608285020996995E-007
 -0.37187499999999996         -7.8092657941495993E-007
 -0.36796874999999996         -7.8576477951270892E-007
 -0.36406249999999996         -7.9059780307547463E-007
 -0.36015624999999996         -7.9542578940542596E-007
 -0.35624999999999996         -8.0024864141026213E-007
 -0.35234374999999996         -8.0506604093349169E-007
 -0.34843749999999996         -8.0987762120795156E-007
 -0.34453124999999996         -8.1468293538360486E-007
 -0.34062499999999996         -8.1948168946832718E-007
 -0.33671874999999996         -8.2427363147479039E-007
 -0.33281249999999996         -8.2905873079404906E-007
 -0.32890624999999996         -8.3383714109523457E-007
 -0.32499999999999996         -8.3860919972347881E-007
 -0.32109374999999996         -8.4337549433848483E-007
 -0.31718749999999996         -8.4813665187855300E-007
 -0.31328124999999996         -8.5289341474393237E-007
 -0.30937499999999996         -8.5764653225763299E-007
 -0.30546874999999996         -8.6239656024694156E-007
 -0.30156249999999996         -8.6714407241554983E-007
 -0.29765624999999996         -8.7188928677293192E-007
 -0.29374999999999996         -8.7663228740049604E-007
 -0.28984374999999996         -8.8137292159654505E-007
 -0.28593749999999996         -8.8611084425091289E-007
 -0.28203124999999996         -8.9084557680312652E-007
 -0.27812499999999996         -8.9557662243843215E-007
 -0.27421874999999996         -9.0030347843212550E-007
 -0.27031249999999996         -9.0502577085402045E-007
 -0.26640624999999996         -9.0974323725166618E-007
 -0.26249999999999996         -9.1445595278192934E-007
 -0.25859374999999996         -9.1916413170822101E-007
 -0.25468749999999996         -9.2386835764235024E-007
 -0.25078124999999996         -9.2856924085458182E-007
 -0.24687499999999996         -9.3326768410531151E-007
 -0.24296874999999996         -9.3796455192739182E-007
 -0.23906249999999996         -9.4266069074333495E-007
 -0.23515624999999996         -9.4735703314389641E-007
 -0.23124999999999996         -9.5205419844165488E-007
 -0.22734374999999996         -9.5675253914003507E-007
 -0.22343749999999996         -9.6145216141457649E-007
 -0.21953124999999996         -9.6615295740261327E-007
 -0.21562499999999996         -9.7085447598726414E-007
 -0.21171874999999996         -9.7555619207579625E-007
 -0.20781249999999996         -9.8025722668341372E-007
 -0.20390624999999996         -9.8495684279639481E-007
 -0.19999999999999996         -9.8965423353922067E-007
 -0.19609374999999996         -9.9434864995628530E-007
 -0.19218749999999996         -9.9903950750757469E-007
 -0.18828124999999996         -1.0037263312245606E-006
 -0.18437499999999996         -1.0084090744028171E-006
 -0.18046874999999996         -1.0130877492672986E-006
 -0.17656249999999996         -1.0177624997302267E-006
 -0.17265624999999996         -1.0224336840890765E-006
 -0.16874999999999996         -1.0271018102541354E-006
 -0.16484374999999996         -1.0317671677179526E-006
 -0.16093749999999996         -1.0364302159232178E-006
 -0.15703124999999996         -1.0410912250071351E-006
 -0.15312499999999996         -1.0457505248759336E-006
 -0.14921874999999996         -1.0504081612616347E-006
 -0.14531249999999996         -1.0550641349023956E-006
 -0.14140624999999996         -1.0597183805360793E-006
 -0.13749999999999996         -1.0643708328547509E-006
 -0.13359374999999996         -1.0690214123507773E-006
 -0.12968749999999996         -1.0736702484703225E-006
 -0.12578124999999996         -1.0783173810633728E-006
 -0.12187499999999996         -1.0829632323779434E-006
 -0.11796874999999996         -1.0876082111942670E-006
 -0.11406249999999996         -1.0922529770391095E-006
 -0.11015624999999996         -1.0968982653017108E-006
 -0.10624999999999996         -1.1015448407311728E-006
 -0.10234374999999996         -1.1061935868020450E-006
  -9.8437499999999956E-002    -1.1108453275347777E-006
  -9.4531249999999956E-002    -1.1155006385185311E-006
  -9.0624999999999956E-002    -1.1201601051621870E-006
  -8.6718749999999956E-002    -1.1248238522921981E-006
  -8.2812499999999956E-002    -1.1294919088143693E-006
  -7.8906249999999956E-002    -1.1341639702000106E-006
  -7.4999999999999956E-002    -1.1388395741593421E-006
  -7.1093749999999956E-002    -1.1435177777637189E-006
  -6.7187499999999956E-002    -1.1481978335055128E-006
  -6.3281249999999956E-002    -1.1528787170043942E-006
  -5.9374999999999956E-002    -1.1575592809880472E-006
  -5.5468749999999956E-002    -1.1622385203499163E-006
  -5.1562499999999956E-002    -1.1669156250441804E-006
  -4.7656249999999956E-002    -1.1715897980950081E-006
  -4.3749999999999956E-002    -1.1762606204871915E-006
  -3.9843749999999956E-002    -1.1809275988439512E-006
  -3.5937499999999956E-002    -1.1855906046791431E-006
  -3.2031249999999956E-002    -1.1902497842334618E-006
  -2.8124999999999956E-002    -1.1949052222629399E-006
  -2.4218749999999956E-002    -1.1995572174344464E-006
  -2.0312499999999956E-002    -1.2042062377571000E-006
  -1.6406249999999956E-002    -1.2088526000555116E-006
  -1.2499999999999956E-002    -1.2134968357712993E-006
  -8.5937499999999556E-003    -1.2181392700787232E-006
  -4.6874999999999556E-003    -1.2227802707253954E-006
  -7.8124999999995559E-004    -1.2274202571967098E-006
   3.1250000000000444E-003    -1.2320595133651837E-006
   7.0312500000000444E-003    -1.2366983261247481E-006
   1.0937500000000044E-002    -1.2413371117717439E-006
   1.4843750000000044E-002    -1.2459761633194202E-006
   1.8750000000000044E-002    -1.2506160561463977E-006
   2.2656250000000044E-002    -1.2552572403887409E-006
   2.6562500000000044E-002    -1.2599004622020652E-006
   3.0468750000000044E-002    -1.2645463083231274E-006
   3.4375000000000044E-002    -1.2691954485677525E-006
   3.8281250000000044E-002    -1.2738487016871880E-006
   4.2187500000000044E-002    -1.2785067021083796E-006
   4.6093750000000044E-002    -1.2831699824963014E-006
   5.0000000000000044E-002    -1.2878389521649398E-006
   5.3906250000000044E-002    -1.2925139110210946E-006
   5.7812500000000044E-002    -1.2971949887483761E-006
   6.1718750000000044E-002    -1.3018819815368708E-006
   6.5625000000000044E-002    -1.3065745305268706E-006
   6.9531250000000044E-002    -1.3112719428654217E-006
   7.3437500000000044E-002    -1.3159736449077227E-006
   7.7343750000000044E-002    -1.3206786229486662E-006
   8.1250000000000044E-002    -1.3253859787551172E-006
   8.5156250000000044E-002    -1.3300945449612569E-006
   8.9062500000000044E-002    -1.3348034682296706E-006
   9.2968750000000044E-002    -1.3395118104382607E-006
   9.6875000000000044E-002    -1.3442188748490053E-006
  0.10078125000000004         -1.3489239667919580E-006
  0.10468750000000004         -1.3536267823636037E-006
  0.10859375000000004         -1.3583271371769569E-006
  0.11250000000000004         -1.3630251301928307E-006
  0.11640625000000004         -1.3677208528014021E-006
  0.12031250000000004         -1.3724148196689486E-006
  0.12421875000000004         -1.3771074120080990E-006
  0.12812500000000004         -1.3817991044080342E-006
  0.13203125000000004         -1.3864905850791500E-006
  0.13593750000000004         -1.3911822765711541E-006
  0.13984375000000004         -1.3958749016872950E-006
  0.14375000000000004         -1.4005688740126180E-006
  0.14765625000000004         -1.4052645372500135E-006
  0.15156250000000004         -1.4099624077726759E-006
  0.15546875000000004         -1.4146629007103062E-006
  0.15937500000000004         -1.4193663281706580E-006
  0.16328125000000004         -1.4240729359836393E-006
  0.16718750000000004         -1.4287831956526049E-006
  0.17109375000000004         -1.4334974511468117E-006
  0.17500000000000004         -1.4382159887477990E-006
  0.17890625000000004         -1.4429391507362253E-006
  0.18281250000000004         -1.4476673014323481E-006
  0.18671875000000004         -1.4524006940253128E-006
  0.19062500000000004         -1.4571396317820946E-006
  0.19453125000000004         -1.4618842358944535E-006
  0.19843750000000004         -1.4666343821612876E-006
  0.20234375000000004         -1.4713899169250924E-006
  0.20625000000000004         -1.4761504474037051E-006
  0.21015625000000004         -1.4809153534122012E-006
  0.21406250000000004         -1.4856839245781609E-006
  0.21796875000000004         -1.4904550972925277E-006
  0.22187500000000004         -1.4952279274136368E-006
  0.22578125000000004         -1.5000013468002255E-006
  0.22968750000000004         -1.5047742040151797E-006
  0.23359375000000004         -1.5095454180778403E-006
  0.23750000000000004         -1.5143140799546622E-006
  0.24140625000000004         -1.5190793503895632E-006
  0.24531250000000004         -1.5238406830771986E-006
  0.24921875000000004         -1.5285976398964993E-006
  0.25312500000000004         -1.5333501496547252E-006
  0.25703125000000004         -1.5380983682856415E-006
  0.26093750000000004         -1.5428425210750637E-006
  0.26484375000000004         -1.5475831452199973E-006
  0.26875000000000004         -1.5523207877626088E-006
  0.27265625000000004         -1.5570560815001030E-006
  0.27656250000000004         -1.5617897540642391E-006
  0.28046875000000004         -1.5665224755921428E-006
  0.28437500000000004         -1.5712547728372170E-006
  0.28828125000000004         -1.5759873104980030E-006
  0.29218750000000004         -1.5807204871363325E-006
  0.29609375000000004         -1.5854548823697588E-006
  0.30000000000000004         -1.5901908367827745E-006
  0.30390625000000004         -1.5949287042179989E-006
  0.30781250000000004         -1.5996688678878027E-006
  0.31171875000000004         -1.6044118280552193E-006
  0.31562500000000004         -1.6091580739339667E-006
  0.31953125000000004         -1.6139081162455171E-006
  0.32343750000000004         -1.6186625296082325E-006
  0.32734375000000004         -1.6234218225673382E-006
  0.33125000000000004         -1.6281867102403200E-006
  0.33515625000000004         -1.6329576611409667E-006
  0.33906250000000004         -1.6377352530848448E-006
  0.34296875000000004         -1.6425198263499755E-006
  0.34687500000000004         -1.6473115743095204E-006
  0.35078125000000004         -1.6521105796033235E-006
  0.35468750000000004         -1.6569168830630776E-006
  0.35859375000000004         -1.6617301894949261E-006
  0.36250000000000004         -1.6665501350336953E-006
  0.36640625000000004         -1.6713763370959809E-006
  0.37031250000000004         -1.6762082508475384E-006
  0.37421875000000004         -1.6810454613883764E-006
  0.37812500000000004         -1.6858875176353357E-006
  0.38203125000000004         -1.6907342283737641E-006
  0.38593750000000004         -1.6955854189211044E-006
  0.38984375000000004         -1.7004412557268539E-006
  0.39375000000000004         -1.7053021544016717E-006
  0.39765625000000004         -1.7101685518676835E-006
  0.40156250000000004         -1.7150412717130671E-006
  0.40546875000000004         -1.7199212119487822E-006
  0.40937500000000004         -1.7248093860019405E-006
  0.41328125000000004         -1.7297067956286383E-006
  0.41718750000000004         -1.7346145407900347E-006
  0.42109375000000004         -1.7395336157780215E-006
  0.42500000000000004         -1.7444650166271713E-006
  0.42890625000000004         -1.7494096605659563E-006
  0.43281250000000004         -1.7543682518823652E-006
  0.43671875000000004         -1.7593414059726420E-006
  0.44062500000000004         -1.7643297055893082E-006
  0.44453125000000004         -1.7693337400851685E-006
  0.44843750000000004         -1.7743538411108754E-006
  0.45234375000000004         -1.7793904973483012E-006
  0.45625000000000004         -1.7844439947143363E-006
  0.46015625000000004         -1.7895148452753394E-006
  0.46406250000000004         -1.7946033226371705E-006
  0.46796875000000004         -1.7997100409209877E-006
  0.47187500000000004         -1.8048352649002983E-006
  0.47578125000000004         -1.8099794023560601E-006
  0.47968750000000004         -1.8151427835655614E-006
  0.48359375000000004         -1.8203256486185954E-006
  0.48750000000000004         -1.8255280534616640E-006
  0.49140625000000004         -1.8307499775079543E-006
  0.49531250000000004         -1.8359912388834821E-006
  0.49921875000000004         -1.8412513454541609E-006
  0.50312500000000004         -1.8465298653293461E-006
  0.50703125000000004         -1.8518262759923871E-006
  0.51093750000000004         -1.8571398944167356E-006
  0.51484375000000004         -1.8624700859435597E-006
  0.51875000000000004         -1.8678161724123339E-006
  0.52265625000000004         -1.8731777785942226E-006
  0.52656250000000004         -1.8785542948019912E-006
  0.53046875000000004         -1.8839456100094888E-006
  0.53437500000000004         -1.8893515283858324E-006
  0.53828125000000004         -1.8947722314171000E-006
  0.54218750000000004         -1.9002080535268913E-006
  0.54609375000000004         -1.9056591172486470E-006
  0.55000000000000004         -1.9111259159796346E-006
  0.55390625000000004         -1.9166087939769890E-006
  0.55781250000000004         -1.9221082481166568E-006
  0.56171875000000004         -1.9276246527146803E-006
  0.56562500000000004         -1.9331584513609213E-006
  0.56953125000000004         -1.9387098764832145E-006
  0.57343750000000004         -1.9442791259889403E-006
  0.57734375000000004         -1.9498661942449646E-006
  0.58125000000000004         -1.9554711750765107E-006
  0.58515625000000004         -1.9610941803462995E-006
  0.58906250000000004         -1.9667350975884930E-006
  0.59296875000000004         -1.9723939153809806E-006
  0.59687500000000004         -1.9780706704762861E-006
  0.60078125000000004         -1.9837656766623310E-006
  0.60468750000000004         -1.9894789150278035E-006
  0.60859375000000004         -1.9952105568257196E-006
  0.61250000000000004         -2.0009608282954059E-006
  0.61640625000000004         -2.0067300460125714E-006
  0.62031250000000004         -2.0125182087986743E-006
  0.62421875000000004         -2.0183255321415016E-006
  0.62812500000000004         -2.0241521068991201E-006
  0.63203125000000004         -2.0299979079408835E-006
  0.63593750000000004         -2.0358628092887069E-006
  0.63984375000000004         -2.0417463340314842E-006
  0.64375000000000004         -2.0476480791557301E-006
  0.64765625000000004         -2.0535675916948724E-006
  0.65156250000000004         -2.0595040637829892E-006
  0.65546875000000004         -2.0654567277885659E-006
  0.65937500000000004         -2.0714251379704908E-006
  0.66328125000000004         -2.0774084665454005E-006
  0.66718750000000004         -2.0834065250832249E-006
  0.67109375000000004         -2.0894187894604235E-006
  0.67500000000000004         -2.0954449422615058E-006
  0.67890625000000004         -2.1014848818094122E-006
  0.68281250000000004         -2.1075386406463756E-006
  0.68671875000000004         -2.1136067308878934E-006
  0.69062500000000004         -2.1196893167415066E-006
  0.69453125000000004         -2.1257869956392392E-006
  0.69843750000000004         -2.1319004259372907E-006
  0.70234375000000004         -2.1380298332992201E-006
  0.70625000000000004         -2.1441758532710388E-006
  0.71015625000000004         -2.1503388129662488E-006
  0.71406250000000004         -2.1565192318438714E-006
  0.71796875000000004         -2.1627172860988219E-006
  0.72187500000000004         -2.1689329893480414E-006
  0.72578125000000004         -2.1751664995558633E-006
  0.72968750000000004         -2.1814177938780674E-006
  0.73359375000000004         -2.1876868297801082E-006
  0.73750000000000004         -2.1939736676005023E-006
  0.74140625000000004         -2.2002783230632447E-006
  0.74531250000000004         -2.2066007537661039E-006
  0.74921875000000004         -2.2129413426559697E-006
  0.75312500000000004         -2.2193001313903664E-006
  0.75703125000000004         -2.2256777125268754E-006
  0.76093750000000004         -2.2320743246990273E-006
  0.76484375000000004         -2.2384904464504319E-006
  0.76875000000000004         -2.2449262899832802E-006
  0.77265625000000004         -2.2513823094488295E-006
  0.77656250000000004         -2.2578583750957489E-006
  0.78046875000000004         -2.2643546129050627E-006
  0.78437500000000004         -2.2708707168150560E-006
  0.78828125000000004         -2.2774062866101921E-006
  0.79218750000000004         -2.2839605700915892E-006
  0.79609375000000004         -2.2905330459909479E-006
  0.80000000000000004         -2.2971228087316147E-006
  0.80390625000000004         -2.3037288277178453E-006
  0.80781250000000004         -2.3103502157018463E-006
  0.81171875000000004         -2.3169861204372419E-006
  0.81562500000000004         -2.3236358127694066E-006
  0.81953125000000004         -2.3302989155270569E-006
  0.82343750000000004         -2.3369752601876689E-006
  0.82734375000000004         -2.3436647785443144E-006
  0.83125000000000004         -2.3503675411075303E-006
  0.83515625000000004         -2.3570839967042582E-006
  0.83906250000000004         -2.3638145104468574E-006
  0.84296875000000004         -2.3705596181790222E-006
  0.84687500000000004         -2.3773198779413561E-006
  0.85078125000000004         -2.3840957120480262E-006
  0.85468750000000004         -2.3908877473258078E-006
  0.85859375000000004         -2.3976963599840506E-006
  0.86250000000000004         -2.4045218279421299E-006
  0.86640625000000004         -2.4113641116565300E-006
  0.87031250000000004         -2.4182233184885954E-006
  0.87421875000000004         -2.4250995542683830E-006
  0.87812500000000004         -2.4319929902116701E-006
  0.88203125000000004         -2.4389036486886693E-006
  0.88593750000000004         -2.4458319106241289E-006
  0.88984375000000004         -2.4527781838417367E-006
  0.89375000000000004         -2.4597429156272599E-006
  0.89765625000000004         -2.4667268059810583E-006
  0.90156250000000004         -2.4737304631847072E-006
  0.90546875000000004         -2.4807546348031266E-006
  0.90937500000000004         -2.4878001077650382E-006
  0.91328125000000004         -2.4948672911637243E-006
  0.91718750000000004         -2.5019564674438106E-006
  0.92109375000000004         -2.5090677934515874E-006
  0.92500000000000004         -2.5162011114864629E-006