  -1.2000000000000000         -1.8968724989682823E-006
  -1.1960937500000000         -1.9019767089356580E-006
  -1.1921875000000000         -1.9070827583495030E-006
  -1.1882812500000000         -1.9121904958776968E-006
  -1.1843750000000000         -1.9173002612624543E-006
  -1.1804687500000000         -1.9224121856818955E-006
  -1.1765625000000000         -1.9275266716926485E-006
  -1.1726562500000000         -1.9326436505252473E-006
  -1.1687500000000000         -1.9377634909577069E-006
  -1.1648437500000000         -1.9428862860465085E-006
  -1.1609375000000000         -1.9480120731432044E-006
  -1.1570312500000000         -1.9531408223923914E-006
  -1.1531250000000000         -1.9582724655989386E-006
  -1.1492187500000000         -1.9634068925228630E-006
  -1.1453125000000000         -1.9685439208917490E-006
  -1.1414062500000000         -1.9736831603020225E-006
  -1.1375000000000000         -1.9788246268522907E-006
  -1.1335937500000000         -1.9839679497186465E-006
  -1.1296875000000000         -1.9891129977229695E-006
  -1.1257812500000000         -1.9942596997350935E-006
  -1.1218750000000000         -1.9994082543441321E-006
  -1.1179687500000000         -2.0045585024210595E-006
  -1.1140625000000000         -2.0097107711683705E-006
  -1.1101562500000000         -2.0148650154516581E-006
  -1.1062500000000000         -2.0200218826359660E-006
  -1.1023437500000000         -2.0251813400770903E-006
  -1.0984375000000000         -2.0303438261561660E-006
  -1.0945312500000000         -2.0355092867720056E-006
  -1.0906250000000000         -2.0406780711724749E-006
  -1.0867187500000000         -2.0458502229789853E-006
  -1.0828125000000000         -2.0510257398448885E-006
  -1.0789062500000000         -2.0562043068893203E-006
  -1.0750000000000000         -2.0613860204268910E-006
  -1.0710937500000000         -2.0665704492354681E-006
  -1.0671875000000000         -2.0717571463669249E-006
  -1.0632812500000000         -2.0769459112581119E-006
  -1.0593750000000000         -2.0821365326834767E-006
  -1.0554687500000000         -2.0873288589960919E-006
  -1.0515625000000000         -2.0925230229365878E-006
  -1.0476562500000000         -2.0977187424640553E-006
  -1.0437500000000000         -2.1029162919910706E-006
  -1.0398437500000000         -2.1081158029965111E-006
  -1.0359375000000000         -2.1133176759911128E-006
  -1.0320312500000000         -2.1185220884218112E-006
  -1.0281250000000000         -2.1237295129176865E-006
  -1.0242187500000000         -2.1289401557929018E-006
  -1.0203125000000000         -2.1341541686943853E-006
  -1.0164062500000000         -2.1393719332406268E-006
  -1.0125000000000000         -2.1445932937069654E-006
  -1.0085937500000000         -2.1498182207568457E-006
  -1.0046875000000000         -2.1550466637289084E-006
  -1.0007812500000000         -2.1602782582376808E-006
 -0.99687499999999996         -2.1655128013733645E-006
 -0.99296874999999996         -2.1707496449644405E-006
 -0.98906249999999996         -2.1759888286123918E-006
 -0.98515624999999996         -2.1812296994524022E-006
 -0.98124999999999996         -2.1864723436555293E-006
 -0.97734374999999996         -2.1917167063364461E-006
 -0.97343749999999996         -2.1969627509005604E-006
 -0.96953124999999996         -2.2022107764037086E-006
 -0.96562499999999996         -2.2074611210810817E-006
 -0.96171874999999996         -2.2127139810206225E-006
 -0.95781249999999996         -2.2179697582601128E-006
 -0.95390624999999996         -2.2232288945850522E-006
 -0.94999999999999996         -2.2284917945979621E-006
 -0.94609374999999996         -2.2337583632105198E-006
 -0.94218749999999996         -2.2390288957239247E-006
 -0.93828124999999996         -2.2443031652006843E-006
 -0.93437499999999996         -2.2495811386817866E-006
 -0.93046874999999996         -2.2548624245737609E-006
 -0.92656249999999996         -2.2601466359764338E-006
 -0.92265624999999996         -2.2654331011327437E-006
 -0.91874999999999996         -2.2707218356024270E-006
 -0.91484374999999996         -2.2760124033509978E-006
 -0.91093749999999996         -2.2813044359011983E-006
 -0.90703124999999996         -2.2865980885083588E-006
 -0.90312499999999996         -2.2918935415403992E-006
 -0.89921874999999996         -2.2971908787498714E-006
 -0.89531249999999996         -2.3024904404673763E-006
 -0.89140624999999996         -2.3077928943581895E-006
 -0.88749999999999996         -2.3130984569295461E-006
 -0.88359374999999996         -2.3184078203577995E-006
 -0.87968749999999996         -2.3237212000924677E-006
 -0.87578124999999996         -2.3290387905954150E-006
 -0.87187499999999996         -2.3343606911929828E-006
 -0.86796874999999996         -2.3396867194218423E-006
 -0.86406249999999996         -2.3450168317464890E-006
 -0.86015624999999996         -2.3503504478897801E-006
 -0.85624999999999996         -2.3556871745990171E-006
 -0.85234374999999996         -2.3610265288008095E-006
 -0.84843749999999996         -2.3663680435970698E-006
 -0.84453124999999996         -2.3717114716369839E-006
 -0.84062499999999996         -2.3770563565858306E-006
 -0.83671874999999996         -2.3824025928969244E-006
 -0.83281249999999996         -2.3877505815231530E-006
 -0.82890624999999996         -2.3931003130779221E-006
 -0.82499999999999996         -2.3984523512068688E-006
 -0.82109374999999996         -2.4038071017024122E-006
 -0.81718749999999996         -2.4091652514592223E-006
 -0.81328124999999996         -2.4145270305950961E-006
 -0.80937499999999996         -2.4198931621299652E-006
 -0.80546874999999996         -2.4252636052724485E-006
 -0.80156249999999996         -2.4306387724846160E-006
 -0.79765624999999996         -2.4360184921836302E-006
 -0.79374999999999996         -2.4414023404325734E-006
 -0.78984374999999996         -2.4467902277278811E-006
 -0.78593749999999996         -2.4521813072262540E-006
 -0.78203124999999996         -2.4575753686076530E-006
 -0.77812499999999996         -2.4629715101434537E-006
 -0.77421874999999996         -2.4683694504529893E-006
 -0.77031249999999996         -2.4737689831230609E-006
 -0.76640624999999996         -2.4791699685771312E-006
 -0.76249999999999996         -2.4845724878436522E-006
 -0.75859374999999996         -2.4899767673907871E-006
 -0.75468749999999996         -2.4953833326103524E-006
 -0.75078124999999996         -2.5007927805763275E-006
 -0.74687499999999996         -2.5062055477925291E-006
 -0.74296874999999996         -2.5116225423401058E-006
 -0.73906249999999996         -2.5170440146370899E-006
 -0.73515624999999996         -2.5224701706273499E-006
 -0.73124999999999996         -2.5279012079390002E-006
 -0.72734374999999996         -2.5333372304726242E-006
 -0.72343749999999996         -2.5387777923649891E-006
 -0.71953124999999996         -2.5442223880220352E-006
 -0.71562499999999996         -2.5496706577515860E-006
 -0.71171874999999996         -2.5551217107055099E-006
 -0.70781249999999996         -2.5605753205206482E-006
 -0.70390624999999996         -2.5660307909157355E-006
 -0.69999999999999996         -2.5714878729997864E-006
 -0.69609374999999996         -2.5769464027052090E-006
 -0.69218749999999996         -2.5824064720731288E-006
 -0.68828124999999996         -2.5878682797621993E-006
 -0.68437499999999996         -2.5933323532927953E-006
 -0.68046874999999996         -2.5987992546513273E-006
 -0.67656249999999996         -2.6042698834710091E-006
 -0.67265624999999996         -2.6097444620232150E-006
 -0.66874999999999996         -2.6152239610017876E-006
 -0.66484374999999996         -2.6207083778691650E-006
 -0.66093749999999996         -2.6261981427897648E-006
 -0.65703124999999996         -2.6316931632531307E-006
 -0.65312499999999996         -2.6371930283313953E-006
 -0.64921874999999996         -2.6426974734347563E-006
 -0.64531249999999996         -2.6482057050781961E-006
 -0.64140624999999996         -2.6537173029200743E-006
 -0.63749999999999996         -2.6592315564801775E-006
 -0.63359374999999996         -2.6647477747589250E-006
 -0.62968749999999996         -2.6702656916323133E-006
 -0.62578124999999996         -2.6757850943346197E-006
 -0.62187499999999996         -2.6813058161013297E-006
 -0.61796874999999996         -2.6868284638020206E-006
 -0.61406249999999996         -2.6923530725242620E-006
 -0.61015624999999996         -2.6978806641975876E-006
 -0.60624999999999996         -2.7034116549396712E-006
 -0.60234374999999996         -2.7089467284920576E-006
 -0.59843749999999996         -2.7144866010659496E-006
 -0.59453124999999996         -2.7200315177976959E-006
 -0.59062499999999996         -2.7255819209552527E-006
 -0.58671874999999996         -2.7311379773031328E-006
 -0.58281249999999996         -2.7366990795024296E-006
 -0.57890624999999996         -2.7422652390351474E-006
 -0.57499999999999996         -2.7478356660387240E-006
 -0.57109374999999996         -2.7534097609934960E-006
 -0.56718749999999996         -2.7589866295479323E-006
 -0.56328124999999996         -2.7645659987561750E-006
 -0.55937499999999996         -2.7701471566309869E-006
 -0.55546874999999996         -2.7757298767960834E-006
 -0.55156249999999996         -2.7813142073209056E-006
 -0.54765624999999996         -2.7869002907888815E-006
 -0.54374999999999996         -2.7924883409962725E-006
 -0.53984374999999996         -2.7980791159043458E-006
 -0.53593749999999996         -2.8036734722123247E-006
 -0.53203124999999996         -2.8092718479641966E-006
 -0.52812499999999996         -2.8148749258437904E-006
 -0.52421874999999996         -2.8204832338479676E-006
 -0.52031249999999996         -2.8260972231619477E-006
 -0.51640624999999996         -2.8317168195660082E-006
 -0.51249999999999996         -2.8373421491382847E-006
 -0.50859374999999996         -2.8429725255996721E-006
 -0.50468749999999996         -2.8486076557443802E-006
 -0.50078124999999996         -2.8542467147744820E-006
 -0.49687499999999996         -2.8598890242301168E-006
 -0.49296874999999996         -2.8655341099420327E-006
 -0.48906249999999996         -2.8711810320468413E-006
 -0.48515624999999996         -2.8768297454748373E-006
 -0.48124999999999996         -2.8824798503036701E-006
 -0.47734374999999996         -2.8881316929380493E-006
 -0.47343749999999996         -2.8937854599662380E-006
 -0.46953124999999996         -2.8994416771303266E-006
 -0.46562499999999996         -2.9051011739215404E-006
 -0.46171874999999996         -2.9107645964291150E-006
 -0.45781249999999996         -2.9164326545448775E-006
 -0.45390624999999996         -2.9221060843109356E-006
 -0.44999999999999996         -2.9277851513819633E-006
 -0.44609374999999996         -2.9334702556803108E-006
 -0.44218749999999996         -2.9391612818305461E-006
 -0.43828124999999996         -2.9448578593730880E-006
 -0.43437499999999996         -2.9505596904088504E-006
 -0.43046874999999996         -2.9562659690321501E-006
 -0.42656249999999996         -2.9619758002899441E-006
 -0.42265624999999996         -2.9676887242119299E-006
 -0.41874999999999996         -2.9734040120140348E-006
 -0.41484374999999996         -2.9791211853030409E-006
 -0.41093749999999996         -2.9848400154881974E-006
 -0.40703124999999996         -2.9905606132516382E-006
 -0.40312499999999996         -2.9962831284679766E-006
 -0.39921874999999996         -3.0020080549780088E-006
 -0.39531249999999996         -3.0077360012186625E-006
 -0.39140624999999996         -3.0134678113494395E-006
 -0.38749999999999996         -3.0192042041794315E-006
 -0.38359374999999996         -3.0249458938244328E-006
 -0.37968749999999996         -3.0306933535150337E-006
 -0.37578124999999996         -3.0364470099122524E-006
 -0.37187499999999996         -3.0422067790726237E-006
 -0.36796874999999996         -3.0479727238600778E-006
 -0.36406249999999996         -3.0537441188030290E-006
 -0.36015624999999996         -3.0595203973408260E-006
 -0.35624999999999996         -3.0653007048696561E-006
 -0.35234374999999996         -3.0710843330247375E-006
 -0.34843749999999996         -3.0768705577152964E-006
 -0.34453124999999996         -3.0826586929721971E-006
 -0.34062499999999996         -3.0884485421059834E-006
 -0.33671874999999996         -3.0942401524655284E-006
 -0.33281249999999996         -3.1000337130847789E-006
 -0.32890624999999996         -3.1058299322023025E-006
 -0.32499999999999996         -3.1116293804705364E-006
 -0.32109374999999996         -3.1174327150245387E-006
 -0.31718749999999996         -3.1232410686353386E-006
 -0.31328124999999996         -3.1290549426801840E-006
 -0.30937499999999996         -3.1348748082942575E-006
 -0.30546874999999996         -3.1407013577660710E-006
 -0.30156249999999996         -3.1465343006339578E-006
 -0.29765624999999996         -3.1523737118322388E-006
 -0.29374999999999996         -3.1582188680178863E-006
 -0.28984374999999996         -3.1640692136429225E-006
 -0.28593749999999996         -3.1699238898795671E-006
 -0.28203124999999996         -3.1757821972803046E-006
 -0.27812499999999996         -3.1816431817827974E-006
 -0.27421874999999996         -3.1875063622768836E-006
 -0.27031249999999996         -3.1933712776355111E-006
 -0.26640624999999996         -3.1992379909135235E-006
 -0.26249999999999996         -3.2051066420105546E-006
 -0.25859374999999996         -3.2109779009113530E-006
 -0.25468749999999996         -3.2168521063335643E-006
 -0.25078124999999996         -3.2227303596162522E-006
 -0.24687499999999996         -3.2286133215169309E-006
 -0.24296874999999996         -3.2345019267363610E-006
 -0.23906249999999996         -3.2403966866267726E-006
 -0.23515624999999996         -3.2462980477991450E-006
 -0.23124999999999996         -3.2522061797349350E-006
 -0.22734374999999996         -3.2581209555435593E-006
 -0.22343749999999996         -3.2640419258252379E-006
 -0.21953124999999996         -3.2699685589546846E-006
 -0.21562499999999996         -3.2758997625101002E-006
 -0.21171874999999996         -3.2818348840497242E-006
 -0.20781249999999996         -3.2877732377366030E-006
 -0.20390624999999996         -3.2937138788949937E-006
 -0.19999999999999996         -3.2996565857228527E-006
 -0.19609374999999996         -3.3056011808923003E-006
 -0.19218749999999996         -3.3115478080576065E-006
 -0.18828124999999996         -3.3174971267592091E-006
 -0.18437499999999996         -3.3234494391201627E-006
 -0.18046874999999996         -3.3294057826769388E-006
 -0.17656249999999996         -3.3353668370792968E-006
 -0.17265624999999996         -3.3413332604868631E-006
 -0.16874999999999996         -3.3473059928820817E-006
 -0.16484374999999996         -3.3532852413987190E-006
 -0.16093749999999996         -3.3592711519326898E-006
 -0.15703124999999996         -3.3652635950286716E-006
 -0.15312499999999996         -3.3712621342959333E-006
 -0.14921874999999996         -3.3772662381091893E-006
 -0.14531249999999996         -3.3832750769772139E-006
 -0.14140624999999996         -3.3892877825665764E-006
 -0.13749999999999996         -3.3953038968833271E-006
 -0.13359374999999996         -3.4013225222906277E-006
 -0.12968749999999996         -3.4073436664886658E-006
 -0.12578124999999996         -3.4133669587725919E-006
 -0.12187499999999996         -3.4193927638509750E-006
 -0.11796874999999996         -3.4254212923669495E-006
 -0.11406249999999996         -3.4314535300057317E-006
 -0.11015624999999996         -3.4374900947099000E-006
 -0.10624999999999996         -3.4435318363899693E-006
 -0.10234374999999996         -3.4495794619036972E-006
  -9.8437499999999956E-002    -3.4556333994391478E-006
  -9.4531249999999956E-002    -3.4616943166615966E-006
  -9.0624999999999956E-002    -3.4677621514217115E-006
  -8.6718749999999956E-002    -3.4738367570311525E-006
  -8.2812499999999956E-002    -3.4799177143322059E-006
  -7.8906249999999956E-002    -3.4860042529429407E-006
  -7.4999999999999956E-002    -3.4920955606051500E-006
  -7.1093749999999956E-002    -3.4981910027116013E-006
  -6.7187499999999956E-002    -3.5042899054957313E-006
  -6.3281249999999956E-002    -3.5103913394194062E-006
  -5.9374999999999956E-002    -3.5164953164067809E-006
  -5.5468749999999956E-002    -3.5226014610597087E-006
  -5.1562499999999956E-002    -3.5287098851311655E-006
  -4.7656249999999956E-002    -3.5348212513278396E-006
  -4.3749999999999956E-002    -3.5409360566768007E-006
  -3.9843749999999956E-002    -3.5470553072825563E-006
  -3.5937499999999956E-002    -3.5531796424456344E-006
  -3.2031249999999956E-002    -3.5593099246162715E-006
  -2.8124999999999956E-002    -3.5654468500757325E-006
  -2.4218749999999956E-002    -3.5715906117588345E-006
  -2.0312499999999956E-002    -3.5777416231853638E-006
  -1.6406249999999956E-002    -3.5838997553693277E-006
  -1.2499999999999956E-002    -3.5900643832363228E-006
  -8.5937499999999556E-003    -3.5962352596808037E-006
  -4.6874999999999556E-003    -3.6024113774083657E-006
  -7.8124999999995559E-004    -3.6085921536630331E-006
   3.1250000000000444E-003    -3.6147766940932749E-006
   7.0312500000000444E-003    -3.6209646002837654E-006
   1.0937500000000044E-002    -3.6271552225228126E-006
   1.4843750000000044E-002    -3.6333486543917152E-006
   1.8750000000000044E-002    -3.6395447614765629E-006
   2.2656250000000044E-002    -3.6457439388801952E-006
   2.6562500000000044E-002    -3.6519468927126232E-006
   3.0468750000000044E-002    -3.6581543844385141E-006
   3.4375000000000044E-002    -3.6643670126720179E-006
   3.8281250000000044E-002    -3.6705853805552529E-006
   4.2187500000000044E-002    -3.6768103258951971E-006
   4.6093750000000044E-002    -3.6830422842901543E-006
   5.0000000000000044E-002    -3.6892811533737441E-006
   5.3906250000000044E-002    -3.6955270135800631E-006
   5.7812500000000044E-002    -3.7017797145983146E-006
   6.1718750000000044E-002    -3.7080385516933300E-006
   6.5625000000000044E-002    -3.7143029886787080E-006
   6.9531250000000044E-002    -3.7205719837940080E-006
   7.3437500000000044E-002    -3.7268451983347096E-006
   7.7343750000000044E-002    -3.7331219866809076E-006
   8.1250000000000044E-002    -3.7394022181733279E-006
   8.5156250000000044E-002    -3.7456855027455454E-006
   8.9062500000000044E-002    -3.7519722277530131E-006
   9.2968750000000044E-002    -3.7582625603033604E-006
   9.6875000000000044E-002    -3.7645569393520579E-006
  0.10078125000000004         -3.7708561422219490E-006
  0.10468750000000004         -3.7771607176391538E-006
  0.10859375000000004         -3.7834714935878744E-006
  0.11250000000000004         -3.7897888563798984E-006
  0.11640625000000004         -3.7961131829404189E-006
  0.12031250000000004         -3.8024446087210400E-006
  0.12421875000000004         -3.8087830466120448E-006
  0.12812500000000004         -3.8151283001692455E-006
  0.13203125000000004         -3.8214794877270664E-006
  0.13593750000000004         -3.8278360856388250E-006
  0.13984375000000004         -3.8341970646838012E-006
  0.14375000000000004         -3.8405618589028571E-006
  0.14765625000000004         -3.8469303114532879E-006
  0.15156250000000004         -3.8533017767151869E-006
  0.15546875000000004         -3.8596761411632675E-006
  0.15937500000000004         -3.8660537418287683E-006
  0.16328125000000004         -3.8724349585578656E-006
  0.16718750000000004         -3.8788202643358823E-006
  0.17109375000000004         -3.8852105793862174E-006
  0.17500000000000004         -3.8916064613854040E-006
  0.17890625000000004         -3.8980084684461581E-006
  0.18281250000000004         -3.9044176935917914E-006
  0.18671875000000004         -3.9108347531056530E-006
  0.19062500000000004         -3.9172593370785944E-006
  0.19453125000000004         -3.9236919896424718E-006
  0.19843750000000004         -3.9301323706129208E-006
  0.20234375000000004         -3.9365800588689991E-006
  0.20625000000000004         -3.9430341617455829E-006
  0.21015625000000004         -3.9494945821107742E-006
  0.21406250000000004         -3.9559603043875624E-006
  0.21796875000000004         -3.9624307389122120E-006
  0.22187500000000004         -3.9689057467428425E-006
  0.22578125000000004         -3.9753847182657557E-006
  0.22968750000000004         -3.9818674976432047E-006
  0.23359375000000004         -3.9883544062135859E-006
  0.23750000000000004         -3.9948458332096686E-006
  0.24140625000000004         -4.0013421748382823E-006
  0.24531250000000004         -4.0078434362952041E-006
  0.24921875000000004         -4.0143505414594367E-006
  0.25312500000000004         -4.0208635532612031E-006
  0.25703125000000004         -4.0273820676145157E-006
  0.26093750000000004         -4.0339065890557175E-006
  0.26484375000000004         -4.0404367423328966E-006
  0.26875000000000004         -4.0469716500375911E-006
  0.27265625000000004         -4.0535104263134036E-006
  0.27656250000000004         -4.0600525596171929E-006
  0.28046875000000004         -4.0665966581813765E-006
  0.28437500000000004         -4.0731412124559663E-006
  0.28828125000000004         -4.0796856429044104E-006
  0.29218750000000004         -4.0862284922772842E-006
  0.29609375000000004         -4.0927696069513070E-006
  0.30000000000000004         -4.0993079624653529E-006
  0.30390625000000004         -4.1058430538468957E-006
  0.30781250000000004         -4.1123748088454108E-006
  0.31171875000000004         -4.1189032172019384E-006
  0.31562500000000004         -4.1254283814422205E-006
  0.31953125000000004         -4.1319503768708744E-006
  0.32343750000000004         -4.1384693540971342E-006
  0.32734375000000004         -4.1449854461600690E-006
  0.33125000000000004         -4.1514984054129481E-006
  0.33515625000000004         -4.1580079644971892E-006
  0.33906250000000004         -4.1645137387742857E-006
  0.34296875000000004         -4.1710150342317953E-006
  0.34687500000000004         -4.1775109863381246E-006
  0.35078125000000004         -4.1840007096730592E-006
  0.35468750000000004         -4.1904837890847646E-006
  0.35859375000000004         -4.1969597791461883E-006
  0.36250000000000004         -4.2034277252669348E-006
  0.36640625000000004         -4.2098879658530863E-006
  0.37031250000000004         -4.2163400437774978E-006
  0.37421875000000004         -4.2227848160624878E-006
  0.37812500000000004         -4.2292227151919457E-006
  0.38203125000000004         -4.2356546693019865E-006
  0.38593750000000004         -4.2420816357989867E-006
  0.38984375000000004         -4.2485050780005083E-006
  0.39375000000000004         -4.2549254997423498E-006
  0.39765625000000004         -4.2613435638774354E-006
  0.40156250000000004         -4.2677602918528420E-006
  0.40546875000000004         -4.2741762083266936E-006
  0.40937500000000004         -4.2805919364901031E-006
  0.41328125000000004         -4.2870070813793085E-006
  0.41718750000000004         -4.2934211954255749E-006
  0.42109375000000004         -4.2998342589170541E-006
  0.42500000000000004         -4.3062457961514775E-006
  0.42890625000000004         -4.3126552247100190E-006
  0.43281250000000004         -4.3190624211783163E-006
  0.43671875000000004         -4.3254672161739458E-006
  0.44062500000000004         -4.3318694872212051E-006
  0.44453125000000004         -4.3382694819668265E-006
  0.44843750000000004         -4.3446675327487513E-006
  0.45234375000000004         -4.3510644499206899E-006
  0.45625000000000004         -4.3574611052591464E-006
  0.46015625000000004         -4.3638583947477017E-006
  0.46406250000000004         -4.3702567846357315E-006
  0.46796875000000004         -4.3766577042772397E-006
  0.47187500000000004         -4.3830612718908112E-006
  0.47578125000000004         -4.3894680175284134E-006
  0.47968750000000004         -4.3958780844880733E-006
  0.48359375000000004         -4.4022910944637864E-006
  0.48750000000000004         -4.4087071248355572E-006
  0.49140625000000004         -4.4151253234724351E-006
  0.49531250000000004         -4.4215452283158621E-006
  0.49921875000000004         -4.4279667940320291E-006
  0.50312500000000004         -4.4343890965038233E-006
  0.50703125000000004         -4.4408120299133000E-006
  0.51093750000000004         -4.4472350672225408E-006
  0.51484375000000004         -4.4536585302061207E-006
  0.51875000000000004         -4.4600828035025483E-006
  0.52265625000000004         -4.4665087431954821E-006
  0.52656250000000004         -4.4729367602459381E-006
  0.53046875000000004         -4.4793678289561617E-006
  0.53437500000000004         -4.4858028725046069E-006
  0.53828125000000004         -4.4922424200708747E-006
  0.54218750000000004         -4.4986870047610240E-006
  0.54609375000000004         -4.5051376858066241E-006
  0.55000000000000004         -4.5115940607346378E-006
  0.55390625000000004         -4.5180562435065365E-006
  0.55781250000000004         -4.5245242697651277E-006
  0.56171875000000004         -4.5309972634767900E-006
  0.56562500000000004         -4.5374747489392575E-006
  0.56953125000000004         -4.5439557663663586E-006
  0.57343750000000004         -4.5504397940877651E-006
  0.57734375000000004         -4.5569266533344598E-006
  0.58125000000000004         -4.5634157628906378E-006
  0.58515625000000004         -4.5699070026603933E-006
  0.58906250000000004         -4.5764002410457934E-006
  0.59296875000000004         -4.5828962705660179E-006
  0.59687500000000004         -4.5893955148208368E-006
  0.60078125000000004         -4.5958988385799564E-006
  0.60468750000000004         -4.6024067522497884E-006
  0.60859375000000004         -4.6089207247798508E-006
  0.61250000000000004         -4.6154408514247218E-006
  0.61640625000000004         -4.6219677438734879E-006
  0.62031250000000004         -4.6285015799565074E-006
  0.62421875000000004         -4.6350425090399474E-006
  0.62812500000000004         -4.6415901976090909E-006
  0.63203125000000004         -4.6481442879421470E-006
  0.63593750000000004         -4.6547043712197834E-006
  0.63984375000000004         -4.6612691300003331E-006
  0.64375000000000004         -4.6678385273979209E-006
  0.64765625000000004         -4.6744119925219993E-006
  0.65156250000000004         -4.6809890077212420E-006
  0.65546875000000004         -4.6875694442136966E-006
  0.65937500000000004         -4.6941535799213103E-006
  0.66328125000000004         -4.7007422718664015E-006
  0.66718750000000004         -4.7073358638889407E-006
  0.67109375000000004         -4.7139351891085764E-006
  0.67500000000000004         -4.7205415971195121E-006
  0.67890625000000004         -4.7271555330844346E-006
  0.68281250000000004         -4.7337779943096421E-006
  0.68671875000000004         -4.7404095063919178E-006
  0.69062500000000004         -4.7470501352492851E-006
  0.69453125000000004         -4.7536999299038951E-006
  0.69843750000000004         -4.7603589843672587E-006
  0.70234375000000004         -4.7670264331691227E-006
  0.70625000000000004         -4.7737017827726910E-006
  0.71015625000000004         -4.7803836587424327E-006
  0.71406250000000004         -4.7870715112482365E-006
  0.71796875000000004         -4.7937648116129741E-006
  0.72187500000000004         -4.8004624874638429E-006
  0.72578125000000004         -4.8071639433070779E-006
  0.72968750000000004         -4.8138694868373618E-006
  0.73359375000000004         -4.8205790220995691E-006
  0.73750000000000004         -4.8272924982342699E-006
  0.74140625000000004         -4.8340112305677002E-006
  0.74531250000000004         -4.8407357001697179E-006
  0.74921875000000004         -4.8474664885204900E-006
  0.75312500000000004         -4.8542046158903235E-006
  0.75703125000000004         -4.8609507451321423E-006
  0.76093750000000004         -4.8677054562849761E-006
  0.76484375000000004         -4.8744694351657574E-006
  0.76875000000000004         -4.8812424432762376E-006
  0.77265625000000004         -4.8880241700657101E-006
  0.77656250000000004         -4.8948147084352103E-006
  0.78046875000000004         -4.9016137194361340E-006
  0.78437500000000004         -4.9084207253170800E-006
  0.78828125000000004         -4.9152356934492889E-006
  0.79218750000000004         -4.9220576138877085E-006
  0.79609375000000004         -4.9288868313709239E-006
  0.80000000000000004         -4.9357236740460601E-006
  0.80390625000000004         -4.9425680046832272E-006
  0.80781250000000004         -4.9494205548149950E-006
  0.81171875000000004         -4.9562821291631175E-006
  0.81562500000000004         -4.9631531926021310E-006
  0.81953125000000004         -4.9700345570987011E-006
  0.82343750000000004         -4.9769266887041342E-006
  0.82734375000000004         -4.9838305269902777E-006
  0.83125000000000004         -4.9907461648319139E-006
  0.83515625000000004         -4.9976736503125360E-006
  0.83906250000000004         -5.0046130450930518E-006
  0.84296875000000004         -5.0115643545410504E-006
  0.84687500000000004         -5.0185261978884990E-006
  0.85078125000000004         -5.0254985931417424E-006
  0.85468750000000004         -5.0324800687733959E-006
  0.85859375000000004         -5.0394700815239627E-006
  0.86250000000000004         -5.0464680349610188E-006
  0.86640625000000004         -5.0534733429110958E-006
  0.87031250000000004         -5.0604854506789677E-006
  0.87421875000000004         -5.0675046699520685E-006
  0.87812500000000004         -5.0745304669237924E-006
  0.88203125000000004         -5.0815633005986050E-006
  0.88593750000000004         -5.0886036184789430E-006
  0.88984375000000004         -5.0956520029836343E-006
  0.89375000000000004         -5.1027094722675539E-006
  0.89765625000000004         -5.1097757137046078E-006
  0.90156250000000004         -5.1168518479754131E-006
  0.90546875000000004         -5.1239381155361452E-006
  0.90937500000000004         -5.1310342551226156E-006
  0.91328125000000004         -5.1381404560271645E-006
  0.91718750000000004         -5.1452568697576420E-006
  0.92109375000000004         -5.1523831377198934E-006
  0.92500000000000004         -5.1595188407693304E-006