  -1.2000000000000000          1.7390478556082347E-011
  -1.1960937500000000          1.9450027667946817E-011
  -1.1921875000000000          2.1919572077442922E-011
  -1.1882812500000000          2.4434080598201005E-011
  -1.1843750000000000          2.6463397935252245E-011
  -1.1804687500000000          2.7384919106804226E-011
  -1.1765625000000000          2.6558294685684778E-011
  -1.1726562500000000          2.3465909475496320E-011
  -1.1687500000000000          1.7757432353825592E-011
  -1.1648437500000000          9.3487096612516955E-012
  -1.1609375000000000         -1.5471666222716973E-012
  -1.1570312500000000         -1.4417360315331108E-011
  -1.1531250000000000         -2.8459348983075726E-011
  -1.1492187500000000         -4.2628481651513902E-011
  -1.1453125000000000         -5.5755856459848226E-011
  -1.1414062500000000         -6.6663284819744713E-011
  -1.1375000000000000         -7.4291782465713623E-011
  -1.1335937500000000         -7.7781362308999754E-011
  -1.1296875000000000         -7.6620797182315600E-011
  -1.1257812500000000         -7.0686973370076439E-011
  -1.1218750000000000         -6.0312180863175016E-011
  -1.1179687500000000         -4.6234824602064253E-011
  -1.1140625000000000         -2.9568423490527366E-011
  -1.1101562500000000         -1.1693551772209332E-011
  -1.1062500000000000          5.8586227654421513E-012
  -1.1023437500000000          2.1580284737629232E-011
  -1.0984375000000000          3.4121862676038749E-011
  -1.0945312500000000          4.2448342151542886E-011
  -1.0906250000000000          4.5939385794702037E-011
  -1.0867187500000000          4.4451561896575885E-011
  -1.0828125000000000          3.8375600674364779E-011
  -1.0789062500000000          2.8571001729538876E-011
  -1.0750000000000000          1.6305412620765391E-011
  -1.0710937500000000          3.1063064749226092E-012
  -1.0671875000000000         -9.3954366536827473E-012
  -1.0632812500000000         -1.9625492739897299E-011
  -1.0593750000000000         -2.6250320045692856E-011
  -1.0554687500000000         -2.8317596507443812E-011
  -1.0515625000000000         -2.5352400177584243E-011
  -1.0476562500000000         -1.7404588847948011E-011
  -1.0437500000000000         -5.0642745669904550E-012
  -1.0398437500000000          1.0587632271841325E-011
  -1.0359375000000000          2.8123759062957376E-011
  -1.0320312500000000          4.5872931347986778E-011
  -1.0281250000000000          6.2115283617351683E-011
  -1.0242187500000000          7.5277381853429824E-011
  -1.0203125000000000          8.4079655499173136E-011
  -1.0164062500000000          8.7670037093562355E-011
  -1.0125000000000000          8.5718340836239856E-011
  -1.0085937500000000          7.8440765270084511E-011
  -1.0046875000000000          6.6569541349995145E-011
  -1.0007812500000000          5.1255089726580543E-011
 -0.99687499999999996          3.3937126839380689E-011
 -0.99296874999999996          1.6194367777135043E-011
 -0.98906249999999996         -4.3704429826218278E-013
 -0.98515624999999996         -1.4629816148941526E-011
 -0.98124999999999996         -2.5372512983896960E-011
 -0.97734374999999996         -3.2086834636249850E-011
 -0.97343749999999996         -3.4659600109947104E-011
 -0.96953124999999996         -3.3408940349318831E-011
 -0.96562499999999996         -2.9043123560526234E-011
 -0.96171874999999996         -2.2538012637877586E-011
 -0.95781249999999996         -1.5011888404513007E-011
 -0.95390624999999996         -7.5383104166231390E-012
 -0.94999999999999996         -1.0295955573336228E-012
 -0.94609374999999996          3.8741783729952367E-012
 -0.94218749999999996          6.8739457100824166E-012
 -0.93828124999999996          8.0598366272622560E-012
 -0.93437499999999996          7.8629478870896151E-012
 -0.93046874999999996          6.9731107179848908E-012
 -0.92656249999999996          6.2573880836961077E-012
 -0.92265624999999996          6.5778676266587128E-012
 -0.91874999999999996          8.6672141446915104E-012
 -0.91484374999999996          1.3007744708556898E-011
 -0.91093749999999996          1.9733952639908434E-011
 -0.90703124999999996          2.8585097504170146E-011
 -0.90312499999999996          3.8906009161305791E-011
 -0.89921874999999996          4.9695704751901556E-011
 -0.89531249999999996          5.9716983190936897E-011
 -0.89140624999999996          6.7654655722483715E-011
 -0.88749999999999996          7.2264082605868939E-011
 -0.88359374999999996          7.2537172566179046E-011
 -0.87968749999999996          6.7835159059754880E-011
 -0.87578124999999996          5.7994616052572253E-011
 -0.87187499999999996          4.3390386323306316E-011
 -0.86796874999999996          2.4929665399977355E-011
 -0.86406249999999996          3.9613459695153612E-012
 -0.86015624999999996         -1.7839650280546181E-011
 -0.85624999999999996         -3.8631508508574407E-011
 -0.85234374999999996         -5.6620921084146055E-011
 -0.84843749999999996         -7.0249253349994249E-011
 -0.84453124999999996         -7.8334501208432747E-011
 -0.84062499999999996         -8.0233706470580890E-011
 -0.83671874999999996         -7.5916131179906216E-011
 -0.83281249999999996         -6.5974667466355168E-011
 -0.82890624999999996         -5.1569786837693059E-011
 -0.82499999999999996         -3.4308342144009270E-011
 -0.82109374999999996         -1.6059496400140502E-011
 -0.81718749999999996          1.2485907965841180E-012
 -0.81328124999999996          1.5816465033480069E-011
 -0.80937499999999996          2.6198766074362980E-011
 -0.80546874999999996          3.1440779401045906E-011
 -0.80156249999999996          3.1170399465475357E-011
 -0.79765624999999996          2.5608814479211639E-011
 -0.79374999999999996          1.5570963748489019E-011
 -0.78984374999999996          2.3802785482260445E-012
 -0.78593749999999996         -1.2328554044399682E-011
 -0.78203124999999996         -2.6766388231691985E-011
 -0.77812499999999996         -3.9197987649666017E-011
 -0.77421874999999996         -4.8135798114953948E-011
 -0.77031249999999996         -5.2508247774416717E-011
 -0.76640624999999996         -5.1757438788179885E-011
 -0.76249999999999996         -4.5915950359275801E-011
 -0.75859374999999996         -3.5523427780889580E-011
 -0.75468749999999996         -2.1617824498401719E-011
 -0.75078124999999996         -5.5746413478404565E-012
 -0.74687499999999996          1.1044605724627100E-011
 -0.74296874999999996          2.6687161231997734E-011
 -0.73906249999999996          3.9973642076525239E-011
 -0.73515624999999996          4.9841429185220018E-011
 -0.73124999999999996          5.5643711834232312E-011
 -0.72734374999999996          5.7210528338458800E-011
 -0.72343749999999996          5.4820113894714615E-011
 -0.71953124999999996          4.9186519224794836E-011
 -0.71562499999999996          4.1297614535443162E-011
 -0.71171874999999996          3.2292059412549266E-011
 -0.70781249999999996          2.3316340625009050E-011
 -0.70390624999999996          1.5369893659154456E-011
 -0.69999999999999996          9.1859465545121738E-012
 -0.69609374999999996          5.1409498207617868E-012
 -0.69218749999999996          3.2420791034135116E-012
 -0.68828124999999996          3.1192866863653928E-012
 -0.68437499999999996          4.1221162899323788E-012
 -0.68046874999999996          5.3960952232503442E-012
 -0.67656249999999996          6.0379046672510130E-012
 -0.67265624999999996          5.2256876050428755E-012
 -0.66874999999999996          2.3628152095134594E-012
 -0.66484374999999996         -2.8197643943977862E-012
 -0.66093749999999996         -1.0234017044822142E-011
 -0.65703124999999996         -1.9395323976023515E-011
 -0.65312499999999996         -2.9455573604730043E-011
 -0.64921874999999996         -3.9300468382452005E-011
 -0.64531249999999996         -4.7655924413207431E-011
 -0.64140624999999996         -5.3272948709192497E-011
 -0.63749999999999996         -5.5041274241999388E-011
 -0.63359374999999996         -5.2139450251554245E-011
 -0.62968749999999996         -4.4159166496186535E-011
 -0.62578124999999996         -3.1198099870589960E-011
 -0.62187499999999996         -1.3856112528652146E-011
 -0.61796874999999996          6.8070990681535135E-012
 -0.61406249999999996          2.9356048689191308E-011
 -0.61015624999999996          5.2119846339527021E-011
 -0.60624999999999996          7.3340574243058994E-011
 -0.60234374999999996          9.1337457101778723E-011
 -0.59843749999999996          1.0468174852327591E-010
 -0.59453124999999996          1.1233315559327379E-010
 -0.59062499999999996          1.1373346045072704E-010
 -0.58671874999999996          1.0886837211661948E-010
 -0.58281249999999996          9.8239195416893144E-011
 -0.57890624999999996          8.2817092825838958E-011
 -0.57499999999999996          6.3962538930161984E-011
 -0.57109374999999996          4.3227536250112432E-011
 -0.56718749999999996          2.2291907421358266E-011
 -0.56328124999999996          2.7210704157530575E-012
 -0.55937499999999996         -1.4115261060992904E-011
 -0.55546874999999996         -2.7204248725727508E-011
 -0.55156249999999996         -3.5955588415666113E-011
 -0.54765624999999996         -4.0231762253948089E-011
 -0.54374999999999996         -4.0317219958896401E-011
 -0.53984374999999996         -3.6857039067561223E-011
 -0.53593749999999996         -3.0802324715937380E-011
 -0.53203124999999996         -2.3253973276232296E-011
 -0.52812499999999996         -1.5336244577490696E-011
 -0.52421874999999996         -8.0913519975233920E-012
 -0.52031249999999996         -2.3534179005797226E-012
 -0.51640624999999996          1.3179001413769894E-012
 -0.51249999999999996          2.6613458818060734E-012
 -0.50859374999999996          1.7497849420367895E-012
 -0.50468749999999996         -1.0560848166894812E-012
 -0.50078124999999996         -5.1723526960149518E-012
 -0.49687499999999996         -9.8762083086225915E-012
 -0.49296874999999996         -1.4403018362800506E-011
 -0.48906249999999996         -1.8017414827407395E-011
 -0.48515624999999996         -2.0148374501449083E-011
 -0.48124999999999996         -2.0440434147837097E-011
 -0.47734374999999996         -1.8762233315554813E-011
 -0.47343749999999996         -1.5265572712005137E-011
 -0.46953124999999996         -1.0320391169078938E-011
 -0.46562499999999996         -4.4752780616586430E-012
 -0.46171874999999996          1.6065081170940633E-012
 -0.45781249999999996          7.2346684932951105E-012
 -0.45390624999999996          1.1785354682636084E-011
 -0.44999999999999996          1.4759801870220572E-011
 -0.44609374999999996          1.5882899178277773E-011
 -0.44218749999999996          1.5086026145821802E-011
 -0.43828124999999996          1.2546103282109923E-011
 -0.43437499999999996          8.6772889270558983E-012
 -0.43046874999999996          4.0529816707973244E-012
 -0.42656249999999996         -6.2068437558480845E-013
 -0.42265624999999996         -4.6330266276746588E-012
 -0.41874999999999996         -7.3366487981508425E-012
 -0.41484374999999996         -8.2319320477177950E-012
 -0.41093749999999996         -7.0313205446459106E-012
 -0.40703124999999996         -3.7416242782688986E-012
 -0.40312499999999996          1.3671657955658282E-012
 -0.39921874999999996          7.7408372754570528E-012
 -0.39531249999999996          1.4613723490589834E-011
 -0.39140624999999996          2.1084787856789831E-011
 -0.38749999999999996          2.6200561747327493E-011
 -0.38359374999999996          2.9076934891121970E-011
 -0.37968749999999996          2.8991397959077957E-011
 -0.37578124999999996          2.5495862022366364E-011
 -0.37187499999999996          1.8464772308880694E-011
 -0.36796874999999996          8.1699936003975125E-012
 -0.36406249999999996         -4.7968374261172735E-012
 -0.36015624999999996         -1.9500715149525293E-011
 -0.35624999999999996         -3.4780021070215175E-011
 -0.35234374999999996         -4.9295510818819426E-011
 -0.34843749999999996         -6.1714555743786265E-011
 -0.34453124999999996         -7.0799282776926162E-011
 -0.34062499999999996         -7.5545564703544419E-011
 -0.33671874999999996         -7.5299444496256918E-011
 -0.33281249999999996         -6.9810212105690155E-011
 -0.32890624999999996         -5.9309044873484649E-011
 -0.32499999999999996         -4.4427247238786708E-011
 -0.32109374999999996         -2.6215885055900569E-011
 -0.31718749999999996         -6.0257439724093959E-012
 -0.31328124999999996          1.4632075374800034E-011
 -0.30937499999999996          3.4196497437179115E-011
 -0.30546874999999996          5.1219334933869646E-011
 -0.30156249999999996          6.4502811441043666E-011
 -0.29765624999999996          7.3246758087455475E-011
 -0.29374999999999996          7.7054223117039229E-011
 -0.28984374999999996          7.6015844502036275E-011
 -0.28593749999999996          7.0631529631832802E-011
 -0.28203124999999996          6.1803112499376195E-011
 -0.27812499999999996          5.0690985178995676E-011
 -0.27421874999999996          3.8569484013158080E-011
 -0.27031249999999996          2.6743378831925322E-011
 -0.26640624999999996          1.6350376346472084E-011
 -0.26249999999999996          8.2875364646759410E-012
 -0.25859374999999996          3.0794186441880507E-012
 -0.25468749999999996          8.7350337749733884E-013
 -0.25078124999999996          1.4029536366635894E-012
 -0.24687499999999996          4.0673301220924354E-012
 -0.24296874999999996          8.0002806180823025E-012
 -0.23906249999999996          1.2198113803149011E-011
 -0.23515624999999996          1.5661998151881160E-011
 -0.23124999999999996          1.7538222545776640E-011
 -0.22734374999999996          1.7201478996049951E-011
 -0.22343749999999996          1.4389907232578776E-011
 -0.21953124999999996          9.1841918142018240E-012
 -0.21562499999999996          2.0362760836598443E-012
 -0.21171874999999996         -6.2905015790461907E-012
 -0.20781249999999996         -1.4823558159617268E-011
 -0.20390624999999996         -2.2510459429446113E-011
 -0.19999999999999996         -2.8333163316567140E-011
 -0.19609374999999996         -3.1441571250519596E-011
 -0.19218749999999996         -3.1267022625736451E-011
 -0.18828124999999996         -2.7644024340270391E-011
 -0.18437499999999996         -2.0798235768733194E-011
 -0.18046874999999996         -1.1360698788037286E-011
 -0.17656249999999996         -2.5791086996992980E-013
 -0.17265624999999996          1.1371178271641299E-011
 -0.16874999999999996          2.2307760409357149E-011
 -0.16484374999999996          3.1399478758686515E-011
 -0.16093749999999996          3.7696604672825648E-011
 -0.15703124999999996          4.0576346100036943E-011
 -0.15312499999999996          3.9818077804316635E-011
 -0.14921874999999996          3.5607324327683457E-011
 -0.14531249999999996          2.8573228467520473E-011
 -0.14140624999999996          1.9671004497897953E-011
 -0.13749999999999996          1.0078863161840868E-011
 -0.13359374999999996          1.0725440917942416E-012
 -0.12968749999999996         -6.1593324097739342E-012
 -0.12578124999999996         -1.0673152388121565E-011
 -0.12187499999999996         -1.1840634550192374E-011
 -0.11796874999999996         -9.4949850865242323E-012
 -0.11406249999999996         -3.9146394431831420E-012
 -0.11015624999999996          4.1757732740481211E-012
 -0.10624999999999996          1.3681064945581480E-011
 -0.10234374999999996          2.3261835808134374E-011
  -9.8437499999999956E-002     3.1494548558602617E-011
  -9.4531249999999956E-002     3.7053475990019130E-011
  -9.0624999999999956E-002     3.8862016360993971E-011
  -8.6718749999999956E-002     3.6235167361950840E-011
  -8.2812499999999956E-002     2.8964062791466254E-011
  -7.8906249999999956E-002     1.7369777910023272E-011
  -7.4999999999999956E-002     2.2760196976904855E-012
  -7.1093749999999956E-002    -1.5065266737175074E-011
  -6.7187499999999956E-002    -3.3129145087468137E-011
  -6.3281249999999956E-002    -5.0241407603691666E-011
  -5.9374999999999956E-002    -6.4813218321780021E-011
  -5.5468749999999956E-002    -7.5451054866437037E-011
  -5.1562499999999956E-002    -8.1174387649284741E-011
  -4.7656249999999956E-002    -8.1445793725207191E-011
  -4.3749999999999956E-002    -7.6290255912746994E-011
  -3.9843749999999956E-002    -6.6252766587091916E-011
  -3.5937499999999956E-002    -5.2332595418202886E-011
  -3.2031249999999956E-002    -3.5886803931477529E-011
  -2.8124999999999956E-002    -1.8493131123225193E-011
  -2.4218749999999956E-002    -1.7232689814422571E-012
  -2.0312499999999956E-002     1.2989268027727447E-011
  -1.6406249999999956E-002     2.4505173620835087E-011
  -1.2499999999999956E-002     3.2093075842833901E-011
  -8.5937499999999556E-003     3.5486476760184851E-011
  -4.6874999999999556E-003     3.4878741810301608E-011
  -7.8124999999995559E-004     3.0879408109144441E-011
   3.1250000000000444E-003     2.4434519748104722E-011
   7.0312500000000444E-003     1.6688307877726684E-011
   1.0937500000000044E-002     8.8421042256574964E-012
   1.4843750000000044E-002     1.9869110807613855E-012
   1.8750000000000044E-002    -3.0213912393129669E-012
   2.2656250000000044E-002    -5.6413305839533845E-012
   2.6562500000000044E-002    -5.6875708970821869E-012
   3.0468750000000044E-002    -3.3624643890651864E-012
   3.4375000000000044E-002     7.7261640443514285E-013
   3.8281250000000044E-002     5.9410563905541896E-012
   4.2187500000000044E-002     1.1194451150831140E-011
   4.6093750000000044E-002     1.5604543008621405E-011
   5.0000000000000044E-002     1.8379160527436009E-011
   5.3906250000000044E-002     1.8946741543200198E-011
   5.7812500000000044E-002     1.7031090384659520E-011
   6.1718750000000044E-002     1.2704352101772749E-011
   6.5625000000000044E-002     6.3884260016410159E-012
   6.9531250000000044E-002    -1.2111855693499017E-012
   7.3437500000000044E-002    -9.2003549247786857E-012
   7.7343750000000044E-002    -1.6613751984968835E-011
   8.1250000000000044E-002    -2.2511643182721978E-011
   8.5156250000000044E-002    -2.6128085941280902E-011
   8.9062500000000044E-002    -2.6968267669569111E-011
   9.2968750000000044E-002    -2.4847848775946811E-011
   9.6875000000000044E-002    -1.9948456883209443E-011
  0.10078125000000004         -1.2759401205088135E-011
  0.10468750000000004         -4.0602309666484050E-012
  0.10859375000000004          5.1751362521673307E-012
  0.11250000000000004          1.3918114931754565E-011
  0.11640625000000004          2.1182815661457737E-011
  0.12031250000000004          2.6179827939471406E-011
  0.12421875000000004          2.8375310856976108E-011
  0.12812500000000004          2.7578091977736712E-011
  0.13203125000000004          2.3963345425443901E-011
  0.13593750000000004          1.8059950838461857E-011
  0.13984375000000004          1.0693471962359526E-011
  0.14375000000000004          2.9040677755286178E-012
  0.14765625000000004         -4.1866794475228572E-012
  0.15156250000000004         -9.5107580137617451E-012
  0.15546875000000004         -1.2170994666286817E-011
  0.15937500000000004         -1.1560779766533950E-011
  0.16328125000000004         -7.4263291345242984E-012
  0.16718750000000004          7.2062339548812614E-014
  0.17109375000000004          1.0400548230222211E-011
  0.17500000000000004          2.2682960343011197E-011
  0.17890625000000004          3.5787806092139280E-011
  0.18281250000000004          4.8421886839258983E-011
  0.18671875000000004          5.9313051225224876E-011
  0.19062500000000004          6.7285244429025680E-011
  0.19453125000000004          7.1393272813457079E-011
  0.19843750000000004          7.1032708556812272E-011
  0.20234375000000004          6.5987746533927198E-011
  0.20625000000000004          5.6465389618789990E-011
  0.21015625000000004          4.3062658326154311E-011
  0.21406250000000004          2.6701531965122280E-011
  0.21796875000000004          8.5530268267834585E-012
  0.22187500000000004         -1.0066814897792084E-011
  0.22578125000000004         -2.7842731627985915E-011
  0.22968750000000004         -4.3558872705812483E-011
  0.23359375000000004         -5.6212381020386018E-011
  0.23750000000000004         -6.5110981237380556E-011
  0.24140625000000004         -6.9895114341857329E-011
  0.24531250000000004         -7.0533188533528981E-011
  0.24921875000000004         -6.7348943493267376E-011
  0.25312500000000004         -6.0937779849587529E-011
  0.25703125000000004         -5.2106359660538519E-011
  0.26093750000000004         -4.1785533421157864E-011
  0.26484375000000004         -3.0884480474642448E-011
  0.26875000000000004         -2.0258246837278470E-011
  0.27265625000000004         -1.0629959169859767E-011
  0.27656250000000004         -2.5285529184566700E-012
  0.28046875000000004          3.7574853462936518E-012
  0.28437500000000004          8.1647824832075474E-012
  0.28828125000000004          1.0826255244737071E-011
  0.29218750000000004          1.2037317501057622E-011
  0.29609375000000004          1.2202136814939772E-011
  0.30000000000000004          1.1749431278496595E-011
  0.30390625000000004          1.1064123036009809E-011
  0.30781250000000004          1.0417415875729014E-011
  0.31171875000000004          9.9660021882663572E-012
  0.31562500000000004          9.7030833767146855E-012
  0.31953125000000004          9.4632023397868018E-012
  0.32343750000000004          8.9563736463574127E-012
  0.32734375000000004          7.8232854740251540E-012
  0.33125000000000004          5.6684995028611059E-012
  0.33515625000000004          2.1905614281648184E-012
  0.33906250000000004         -2.8365101483734027E-012
  0.34296875000000004         -9.4139403225697728E-012
  0.34687500000000004         -1.7357493699106567E-011
  0.35078125000000004         -2.6284020734377335E-011
  0.35468750000000004         -3.5598370372002380E-011
  0.35859375000000004         -4.4565319577340247E-011
  0.36250000000000004         -5.2360564485540153E-011
  0.36640625000000004         -5.8179180672060807E-011
  0.37031250000000004         -6.1309813217830099E-011
  0.37421875000000004         -6.1227861003136557E-011
  0.37812500000000004         -5.7663868216191118E-011
  0.38203125000000004         -5.0666169093274576E-011
  0.38593750000000004         -4.0602620746333932E-011
  0.38984375000000004         -2.8169168293059838E-011
  0.39375000000000004         -1.4336116592924517E-011
  0.39765625000000004         -2.6837480318435853E-013
  0.40156250000000004          1.2781879788138482E-011
  0.40546875000000004          2.3591552924491239E-011
  0.40937500000000004          3.1130771394464830E-011
  0.41328125000000004          3.4645441227474904E-011
  0.41718750000000004          3.3753233246766477E-011
  0.42109375000000004          2.8491657788013769E-011
  0.42500000000000004          1.9326330165139265E-011
  0.42890625000000004          7.1728208072372417E-012
  0.43281250000000004         -6.7419052331382499E-012
  0.43671875000000004         -2.0964845435813240E-011
  0.44062500000000004         -3.3957177004318332E-011
  0.44453125000000004         -4.4289453935930304E-011
  0.44843750000000004         -5.0727437768800928E-011
  0.45234375000000004         -5.2394880599404675E-011
  0.45625000000000004         -4.8875002616500768E-011
  0.46015625000000004         -4.0240620300725975E-011
  0.46406250000000004         -2.7083859290997648E-011
  0.46796875000000004         -1.0446873985620229E-011
  0.47187500000000004          8.2924883568414555E-012
  0.47578125000000004          2.7568837854284797E-011
  0.47968750000000004          4.5776414983718986E-011
  0.48359375000000004          6.1413657465176904E-011
  0.48750000000000004          7.3227304524804504E-011
  0.49140625000000004          8.0322802847371887E-011
  0.49531250000000004          8.2289708414861444E-011
  0.49921875000000004          7.9163362593802049E-011
  0.50312500000000004          7.1468850140549484E-011
  0.50703125000000004          6.0134432969084923E-011
  0.51093750000000004          4.6322172877594668E-011
  0.51484375000000004          3.1351551100132240E-011
  0.51875000000000004          1.6508046473213374E-011
  0.52265625000000004          2.9430929139924598E-012
  0.52656250000000004         -8.4563247491075129E-012
  0.53046875000000004         -1.7166861412259988E-011
  0.53437500000000004         -2.3051968654514869E-011
  0.53828125000000004         -2.6332689706560233E-011
  0.54218750000000004         -2.7555541942372425E-011
  0.54609375000000004         -2.7430037460580516E-011
  0.55000000000000004         -2.6753728417889782E-011
  0.55390625000000004         -2.6268326573575350E-011
  0.55781250000000004         -2.6554782104995220E-011
  0.56171875000000004         -2.7915486987425276E-011
  0.56562500000000004         -3.0307933215196955E-011
  0.56953125000000004         -3.3361840183443512E-011
  0.57343750000000004         -3.6431817625868671E-011
  0.57734375000000004         -3.8683392450106727E-011
  0.58125000000000004         -3.9199358061506897E-011
  0.58515625000000004         -3.7161244226085882E-011
  0.58906250000000004         -3.1971769303781434E-011
  0.59296875000000004         -2.3353962615282261E-011
  0.59687500000000004         -1.1481179486269649E-011
  0.60078125000000004          3.0584035149120546E-012
  0.60468750000000004          1.9240829333480804E-011
  0.60859375000000004          3.5711147410465342E-011
  0.61250000000000004          5.0918754906425771E-011
  0.61640625000000004          6.3246498758550066E-011
  0.62031250000000004          7.1225555426661849E-011
  0.62421875000000004          7.3661476693484515E-011
  0.62812500000000004          6.9839405737217819E-011
  0.63203125000000004          5.9627275483555507E-011
  0.63593750000000004          4.3481730040935803E-011
  0.63984375000000004          2.2461131715716325E-011
  0.64375000000000004         -1.9023748873301025E-012
  0.64765625000000004         -2.7659325295326720E-011
  0.65156250000000004         -5.2712383274466583E-011
  0.65546875000000004         -7.4971417409055842E-011
  0.65937500000000004         -9.2603918309757577E-011
  0.66328125000000004         -1.0417955917460850E-010
  0.66718750000000004         -1.0886440791156772E-010
  0.67109375000000004         -1.0646123541435986E-010
  0.67500000000000004         -9.7486044102538299E-011
  0.67890625000000004         -8.3043791119718421E-011
  0.68281250000000004         -6.4724440873206804E-011
  0.68671875000000004         -4.4441410381281805E-011
  0.69062500000000004         -2.4200139416116381E-011
  0.69453125000000004         -5.8876786608465490E-012
  0.69843750000000004          8.9014028508442800E-012
  0.70234375000000004          1.9042885245450626E-011
  0.70625000000000004          2.3947954743592041E-011
  0.71015625000000004          2.3616193683847542E-011
  0.71406250000000004          1.8582856119907487E-011
  0.71796875000000004          9.8828203108825904E-012
  0.72187500000000004         -1.1639840970117337E-012
  0.72578125000000004         -1.3063833944619994E-011
  0.72968750000000004         -2.4379102750949921E-011
  0.73359375000000004         -3.3879290142535725E-011
  0.73750000000000004         -4.0634660954709879E-011
  0.74140625000000004         -4.4135263448726174E-011
  0.74531250000000004         -4.4281739314055667E-011
  0.74921875000000004         -4.1391615058377484E-011
  0.75312500000000004         -3.6110130863062469E-011
  0.75703125000000004         -2.9301816887718659E-011
  0.76093750000000004         -2.1922671847335615E-011
  0.76484375000000004         -1.4866042791928284E-011
  0.76875000000000004         -8.8994239761957016E-012
  0.77265625000000004         -4.5004218751906403E-012
  0.77656250000000004         -1.7933724482315939E-012
  0.78046875000000004         -6.1784070006775704E-013
  0.78437500000000004         -5.5264270007789584E-013
  0.78828125000000004         -9.6559676420126414E-013
  0.79218750000000004         -1.1384220981013102E-012
  0.79609375000000004         -3.8451314682014137E-013
  0.80000000000000004          1.8130002653436331E-012
  0.80390625000000004          5.7072554504964088E-012
  0.80781250000000004          1.1285287841404223E-011
  0.81171875000000004          1.8136338717252410E-011
  0.81562500000000004          2.5604436258992915E-011
  0.81953125000000004          3.2809815198463962E-011
  0.82343750000000004          3.8774829301948448E-011
  0.82734375000000004          4.2478001006220302E-011
  0.83125000000000004          4.3100784909258538E-011
  0.83515625000000004          4.0093667408062715E-011
  0.83906250000000004          3.3281964319797043E-011
  0.84296875000000004          2.2892443624829483E-011
  0.84687500000000004          9.5525230326640177E-012
  0.85078125000000004         -5.7394167816797092E-012
  0.85468750000000004         -2.1750155639250704E-011
  0.85859375000000004         -3.7096281450267629E-011
  0.86250000000000004         -5.0355820919972944E-011
  0.86640625000000004         -6.0268432581189689E-011
  0.87031250000000004         -6.5852283021165617E-011
  0.87421875000000004         -6.6543388590524086E-011
  0.87812500000000004         -6.2189044616107253E-011
  0.88203125000000004         -5.3136986923135763E-011
  0.88593750000000004         -4.0171384842362465E-011
  0.88984375000000004         -2.4417120662328521E-011
  0.89375000000000004         -7.2700902737053371E-012
  0.89765625000000004          9.8154453936695859E-012
  0.90156250000000004          2.5450723415593208E-011
  0.90546875000000004          3.8414065881830355E-011
  0.90937500000000004          4.7737068140725506E-011
  0.91328125000000004          5.2874861552258414E-011
  0.91718750000000004          5.3661145962056121E-011
  0.92109375000000004          5.0307855611159250E-011
  0.92500000000000004          4.3411096970731948E-011