  -1.2000000000000000         -3.1035845023010450E-006
  -1.1960937500000000         -3.1091719350965890E-006
  -1.1921875000000000         -3.1147771541790261E-006
  -1.1882812500000000         -3.1203984507929138E-006
  -1.1843750000000000         -3.1260324251775000E-006
  -1.1804687500000000         -3.1316747196359590E-006
  -1.1765625000000000         -3.1373209231084348E-006
  -1.1726562500000000         -3.1429661834789862E-006
  -1.1687500000000000         -3.1486066053694503E-006
  -1.1648437500000000         -3.1542392529285953E-006
  -1.1609375000000000         -3.1598621724032389E-006
  -1.1570312500000000         -3.1654755941560855E-006
  -1.1531250000000000         -3.1710809592016418E-006
  -1.1492187500000000         -3.1766811575073992E-006
  -1.1453125000000000         -3.1822800866554298E-006
  -1.1414062500000000         -3.1878823416841424E-006
  -1.1375000000000000         -3.1934927705221482E-006
  -1.1335937500000000         -3.1991155116697782E-006
  -1.1296875000000000         -3.2047539435173589E-006
  -1.1257812500000000         -3.2104100520287693E-006
  -1.1218750000000000         -3.2160845269629646E-006
  -1.1179687500000000         -3.2217762076313644E-006
  -1.1140625000000000         -3.2274824163507159E-006
  -1.1101562500000000         -3.2331995189180812E-006
  -1.1062500000000000         -3.2389229202950501E-006
  -1.1023437500000000         -3.2446477899105797E-006
  -1.0984375000000000         -3.2503697533391428E-006
  -1.0945312500000000         -3.2560849555214286E-006
  -1.0906250000000000         -3.2617909466918847E-006
  -1.0867187500000000         -3.2674867692403776E-006
  -1.0828125000000000         -3.2731729263072283E-006
  -1.0789062500000000         -3.2788513657984121E-006
  -1.0750000000000000         -3.2845257150482308E-006
  -1.0710937500000000         -3.2902005488563403E-006
  -1.0671875000000000         -3.2958804939508279E-006
  -1.0632812500000000         -3.3015701347733235E-006
  -1.0593750000000000         -3.3072735670166828E-006
  -1.0554687500000000         -3.3129936918836247E-006
  -1.0515625000000000         -3.3187321619543941E-006
  -1.0476562500000000         -3.3244889516712354E-006
  -1.0437500000000000         -3.3302625690555986E-006
  -1.0398437500000000         -3.3360500781666153E-006
  -1.0359375000000000         -3.3418475818353850E-006
  -1.0320312500000000         -3.3476504739651368E-006
  -1.0281250000000000         -3.3534539080618595E-006
  -1.0242187500000000         -3.3592537900235552E-006
  -1.0203125000000000         -3.3650467556333526E-006
  -1.0164062500000000         -3.3708306887940493E-006
  -1.0125000000000000         -3.3766051441750004E-006
  -1.0085937500000000         -3.3823711637823862E-006
  -1.0046875000000000         -3.3881312271268437E-006
  -1.0007812500000000         -3.3938887867929258E-006
 -0.99687499999999996         -3.3996482527984524E-006
 -0.99296874999999996         -3.4054142342958506E-006
 -0.98906249999999996         -3.4111910753779215E-006
 -0.98515624999999996         -3.4169819504841878E-006
 -0.98124999999999996         -3.4227894354340438E-006
 -0.97734374999999996         -3.4286144369814274E-006
 -0.97343749999999996         -3.4344561628262467E-006
 -0.96953124999999996         -3.4403128111964675E-006
 -0.96562499999999996         -3.4461809267365953E-006
 -0.96171874999999996         -3.4520565477000769E-006
 -0.95781249999999996         -3.4579354772002892E-006
 -0.95390624999999996         -3.4638130967275448E-006
 -0.94999999999999996         -3.4696860235273210E-006
 -0.94609374999999996         -3.4755516194731036E-006
 -0.94218749999999996         -3.4814087247026614E-006
 -0.93828124999999996         -3.4872576635088719E-006
 -0.93437499999999996         -3.4931002347643713E-006
 -0.93046874999999996         -3.4989394460744061E-006
 -0.92656249999999996         -3.5047790291971744E-006
 -0.92265624999999996         -3.5106234240312239E-006
 -0.91874999999999996         -3.5164770202961848E-006
 -0.91484374999999996         -3.5223434926312775E-006
 -0.91093749999999996         -3.5282257184904167E-006
 -0.90703124999999996         -3.5341255675566767E-006
 -0.90312499999999996         -3.5400429507850989E-006
 -0.89921874999999996         -3.5459763442409527E-006
 -0.89531249999999996         -3.5519234452752269E-006
 -0.89140624999999996         -3.5578805180502415E-006
 -0.88749999999999996         -3.5638431288588078E-006
 -0.88359374999999996         -3.5698073253710685E-006
 -0.87968749999999996         -3.5757689882047993E-006
 -0.87578124999999996         -3.5817249864052305E-006
 -0.87187499999999996         -3.5876736538475289E-006
 -0.86796874999999996         -3.5936141351851694E-006
 -0.86406249999999996         -3.5995475136893606E-006
 -0.86015624999999996         -3.6054760638778990E-006
 -0.85624999999999996         -3.6114032847496880E-006
 -0.85234374999999996         -3.6173328971814314E-006
 -0.84843749999999996         -3.6232693066412564E-006
 -0.84453124999999996         -3.6292164047427587E-006
 -0.84062499999999996         -3.6351775717360221E-006
 -0.83671874999999996         -3.6411551279537683E-006
 -0.83281249999999996         -3.6471497255768435E-006
 -0.82890624999999996         -3.6531609884941827E-006
 -0.82499999999999996         -3.6591868773256657E-006
 -0.82109374999999996         -3.6652243764355380E-006
 -0.81718749999999996         -3.6712699794534544E-006
 -0.81328124999999996         -3.6773195366826756E-006
 -0.80937499999999996         -3.6833689195787969E-006
 -0.80546874999999996         -3.6894147853619964E-006
 -0.80156249999999996         -3.6954550034951136E-006
 -0.79765624999999996         -3.7014882580140620E-006
 -0.79374999999999996         -3.7075146972636745E-006
 -0.78984374999999996         -3.7135361087140744E-006
 -0.78593749999999996         -3.7195550702186800E-006
 -0.78203124999999996         -3.7255750667107872E-006
 -0.77812499999999996         -3.7316002392071535E-006
 -0.77421874999999996         -3.7376344914931962E-006
 -0.77031249999999996         -3.7436813846316516E-006
 -0.76640624999999996         -3.7497435119993615E-006
 -0.76249999999999996         -3.7558221805957133E-006
 -0.75859374999999996         -3.7619172640157314E-006
 -0.75468749999999996         -3.7680276058590289E-006
 -0.75078124999999996         -3.7741508887519229E-006
 -0.74687499999999996         -3.7802836385347643E-006
 -0.74296874999999996         -3.7864221255612309E-006
 -0.73906249999999996         -3.7925622649485391E-006
 -0.73515624999999996         -3.7987006687492219E-006
 -0.73124999999999996         -3.8048345554023445E-006
 -0.72734374999999996         -3.8109623657138059E-006
 -0.72343749999999996         -3.8170837748282814E-006
 -0.71953124999999996         -3.8231999160080064E-006
 -0.71562499999999996         -3.8293131136055434E-006
 -0.71171874999999996         -3.8354266036332247E-006
 -0.70781249999999996         -3.8415436748375481E-006
 -0.70390624999999996         -3.8476686441651026E-006
 -0.69999999999999996         -3.8538053452199385E-006
 -0.69609374999999996         -3.8599561242668831E-006
 -0.69218749999999996         -3.8661232595036686E-006
 -0.68828124999999996         -3.8723070790775799E-006
 -0.68437499999999996         -3.8785064782319466E-006
 -0.68046874999999996         -3.8847198412573614E-006
 -0.67656249999999996         -3.8909436911129896E-006
 -0.67265624999999996         -3.8971745586322431E-006
 -0.66874999999999996         -3.9034089960855857E-006
 -0.66484374999999996         -3.9096427186086668E-006
 -0.66093749999999996         -3.9158733539173217E-006
 -0.65703124999999996         -3.9220986263206536E-006
 -0.65312499999999996         -3.9283177036769120E-006
 -0.64921874999999996         -3.9345312038029423E-006
 -0.64531249999999996         -3.9407407399219258E-006
 -0.64140624999999996         -3.9469492942606225E-006
 -0.63749999999999996         -3.9531603162496724E-006
 -0.63359374999999996         -3.9593781365983467E-006
 -0.62968749999999996         -3.9656056942849574E-006
 -0.62578124999999996         -3.9718467049728722E-006
 -0.62187499999999996         -3.9781030115637149E-006
 -0.61796874999999996         -3.9843759452006399E-006
 -0.61406249999999996         -3.9906648975319068E-006
 -0.61015624999999996         -3.9969678273018227E-006
 -0.60624999999999996         -4.0032827010393067E-006
 -0.60234374999999996         -4.0096060728903948E-006
 -0.59843749999999996         -4.0159336250131276E-006
 -0.59453124999999996         -4.0222624484359803E-006
 -0.59062499999999996         -4.0285888004548193E-006
 -0.58671874999999996         -4.0349108402798983E-006
 -0.58281249999999996         -4.0412276977987931E-006
 -0.57890624999999996         -4.0475394851327823E-006
 -0.57499999999999996         -4.0538473290862399E-006
 -0.57109374999999996         -4.0601541681164597E-006
 -0.56718749999999996         -4.0664629822899154E-006
 -0.56328124999999996         -4.0727780697126191E-006
 -0.55937499999999996         -4.0791023203156388E-006
 -0.55546874999999996         -4.0854394942527057E-006
 -0.55156249999999996         -4.0917914654172368E-006
 -0.54765624999999996         -4.0981595290571663E-006
 -0.54374999999999996         -4.1045440261870906E-006
 -0.53984374999999996         -4.1109429657786450E-006
 -0.53593749999999996         -4.1173543222349973E-006
 -0.53203124999999996         -4.1237742431067194E-006
 -0.52812499999999996         -4.1301997533204014E-006
 -0.52421874999999996         -4.1366266281355100E-006
 -0.52031249999999996         -4.1430519923638639E-006
 -0.51640624999999996         -4.1494735246441168E-006
 -0.51249999999999996         -4.1558898884657022E-006
 -0.50859374999999996         -4.1623011744232126E-006
 -0.50468749999999996         -4.1687084465110962E-006
 -0.50078124999999996         -4.1751146590612049E-006
 -0.49687499999999996         -4.1815227474751738E-006
 -0.49296874999999996         -4.1879365616955963E-006
 -0.48906249999999996         -4.1943594836760624E-006
 -0.48515624999999996         -4.2007952950073548E-006
 -0.48124999999999996         -4.2072463326890732E-006
 -0.47734374999999996         -4.2137139687162289E-006
 -0.47343749999999996         -4.2201981272371137E-006
 -0.46953124999999996         -4.2266977632977382E-006
 -0.46562499999999996         -4.2332108916685320E-006
 -0.46171874999999996         -4.2397336242895635E-006
 -0.45781249999999996         -4.2462630201070679E-006
 -0.45390624999999996         -4.2527948022157788E-006
 -0.44999999999999996         -4.2593260889696526E-006
 -0.44609374999999996         -4.2658540686859221E-006
 -0.44218749999999996         -4.2723773091561223E-006
 -0.43828124999999996         -4.2788958615393736E-006
 -0.43437499999999996         -4.2854107370959603E-006
 -0.43046874999999996         -4.2919239045218289E-006
 -0.42656249999999996         -4.2984387788948463E-006
 -0.42265624999999996         -4.3049587173293488E-006
 -0.41874999999999996         -4.3114875608238402E-006
 -0.41484374999999996         -4.3180286914421554E-006
 -0.41093749999999996         -4.3245849478666017E-006
 -0.40703124999999996         -4.3311577260154680E-006
 -0.40312499999999996         -4.3377470497962151E-006
 -0.39921874999999996         -4.3443523751318288E-006
 -0.39531249999999996         -4.3509708573255088E-006
 -0.39140624999999996         -4.3576000406518483E-006
 -0.38749999999999996         -4.3642360716399916E-006
 -0.38359374999999996         -4.3708751480678380E-006
 -0.37968749999999996         -4.3775143495129397E-006
 -0.37578124999999996         -4.3841508396895792E-006
 -0.37187499999999996         -4.3907831464812130E-006
 -0.36796874999999996         -4.3974108293503792E-006
 -0.36406249999999996         -4.4040348476495383E-006
 -0.36015624999999996         -4.4106571080498358E-006
 -0.35624999999999996         -4.4172809596374974E-006
 -0.35234374999999996         -4.4239097877841316E-006
 -0.34843749999999996         -4.4305478370764616E-006
 -0.34453124999999996         -4.4371979942638378E-006
 -0.34062499999999996         -4.4438631468807354E-006
 -0.33671874999999996         -4.4505447452807093E-006
 -0.33281249999999996         -4.4572437188578435E-006
 -0.32890624999999996         -4.4639586669006676E-006
 -0.32499999999999996         -4.4706881364433383E-006
 -0.32109374999999996         -4.4774287852040403E-006
 -0.31718749999999996         -4.4841767862316648E-006
 -0.31328124999999996         -4.4909287814958986E-006
 -0.30937499999999996         -4.4976814163686326E-006
 -0.30546874999999996         -4.5044313740821860E-006
 -0.30156249999999996         -4.5111771596181680E-006
 -0.29765624999999996         -4.5179178312361998E-006
 -0.29374999999999996         -4.5246543630316272E-006
 -0.28984374999999996         -4.5313886527315072E-006
 -0.28593749999999996         -4.5381235521859912E-006
 -0.28203124999999996         -4.5448624475566067E-006
 -0.27812499999999996         -4.5516096229019708E-006
 -0.27421874999999996         -4.5583684509952823E-006
 -0.27031249999999996         -4.5651418514738633E-006
 -0.26640624999999996         -4.5719317401734365E-006
 -0.26249999999999996         -4.5787390827782640E-006
 -0.25859374999999996         -4.5855634103675503E-006
 -0.25468749999999996         -4.5924028036669448E-006
 -0.25078124999999996         -4.5992548631770456E-006
 -0.24687499999999996         -4.6061162095407345E-006
 -0.24296874999999996         -4.6129829837040524E-006
 -0.23906249999999996         -4.6198513276550798E-006
 -0.23515624999999996         -4.6267183433037861E-006
 -0.23124999999999996         -4.6335816361596478E-006
 -0.22734374999999996         -4.6404401934769745E-006
 -0.22343749999999996         -4.6472944618441434E-006
 -0.21953124999999996         -4.6541459081847567E-006
 -0.21562499999999996         -4.6609973654187498E-006
 -0.21171874999999996         -4.6678517358599076E-006
 -0.20781249999999996         -4.6747129056513650E-006
 -0.20390624999999996         -4.6815842581218750E-006
 -0.19999999999999996         -4.6884692189048599E-006
 -0.19609374999999996         -4.6953701890747644E-006
 -0.19218749999999996         -4.7022886360881962E-006
 -0.18828124999999996         -4.7092241662170009E-006
 -0.18437499999999996         -4.7161753564172897E-006
 -0.18046874999999996         -4.7231402550961685E-006
 -0.17656249999999996         -4.7301150759957308E-006
 -0.17265624999999996         -4.7370968492355080E-006
 -0.16874999999999996         -4.7440817391359987E-006
 -0.16484374999999996         -4.7510667913447420E-006
 -0.16093749999999996         -4.7580499737864370E-006
 -0.15703124999999996         -4.7650293648265656E-006
 -0.15312499999999996         -4.7720053781655314E-006
 -0.14921874999999996         -4.7789789284909582E-006
 -0.14531249999999996         -4.7859524145171229E-006
 -0.14140624999999996         -4.7929287062392657E-006
 -0.13749999999999996         -4.7999112069583913E-006
 -0.13359374999999996         -4.8069033281344655E-006
 -0.12968749999999996         -4.8139084688811637E-006
 -0.12578124999999996         -4.8209290807365632E-006
 -0.12187499999999996         -4.8279666477273176E-006
 -0.11796874999999996         -4.8350212555652005E-006
 -0.11406249999999996         -4.8420919882080346E-006
 -0.11015624999999996         -4.8491769040490493E-006
 -0.10624999999999996         -4.8562735896310838E-006
 -0.10234374999999996         -4.8633782216209289E-006
  -9.8437499999999956E-002    -4.8704873885586172E-006
  -9.4531249999999956E-002    -4.8775976905453490E-006
  -9.0624999999999956E-002    -4.8847071325811256E-006
  -8.6718749999999956E-002    -4.8918132902170480E-006
  -8.2812499999999956E-002    -4.8989161329617325E-006
  -7.8906249999999956E-002    -4.9060165497681809E-006
  -7.4999999999999956E-002    -4.9131155533820834E-006
  -7.1093749999999956E-002    -4.9202164727333505E-006
  -6.7187499999999956E-002    -4.9273227027483271E-006
  -6.3281249999999956E-002    -4.9344371991340274E-006
  -5.9374999999999956E-002    -4.9415638075560796E-006
  -5.5468749999999956E-002    -4.9487049853513555E-006
  -5.1562499999999956E-002    -4.9558622412755195E-006
  -4.7656249999999956E-002    -4.9630370033497080E-006
  -4.3749999999999956E-002    -4.9702288168265803E-006
  -3.9843749999999956E-002    -4.9774362100257759E-006
  -3.5937499999999956E-002    -4.9846572070979985E-006
  -3.2031249999999956E-002    -4.9918884270746609E-006
  -2.8124999999999956E-002    -4.9991264660853303E-006
  -2.4218749999999956E-002    -5.0063683450485374E-006
  -2.0312499999999956E-002    -5.0136107005713559E-006
  -1.6406249999999956E-002    -5.0208515416254211E-006
  -1.2499999999999956E-002    -5.0280903672235130E-006
  -8.5937499999999556E-003    -5.0353266803500466E-006
  -4.6874999999999556E-003    -5.0425614821895427E-006
  -7.8124999999995559E-004    -5.0497972101430488E-006
   3.1250000000000444E-003    -5.0570367994123223E-006
   7.0312500000000444E-003    -5.0642832057043773E-006
   1.0937500000000044E-002    -5.0715398305294798E-006
   1.4843750000000044E-002    -5.0788096429829737E-006
   1.8750000000000044E-002    -5.0860946107551934E-006
   2.2656250000000044E-002    -5.0933957318489431E-006
   2.6562500000000044E-002    -5.1007134809473910E-006
   3.0468750000000044E-002    -5.1080469162737360E-006
   3.4375000000000044E-002    -5.1153945190861893E-006
   3.8281250000000044E-002    -5.1227533865015371E-006
   4.2187500000000044E-002    -5.1301205394383111E-006
   4.6093750000000044E-002    -5.1374925674421548E-006
   5.0000000000000044E-002    -5.1448669842598563E-006
   5.3906250000000044E-002    -5.1522418006537887E-006
   5.7812500000000044E-002    -5.1596150445258013E-006
   6.1718750000000044E-002    -5.1669867158758939E-006
   6.5625000000000044E-002    -5.1743577564808678E-006
   6.9531250000000044E-002    -5.1817296438198804E-006
   7.3437500000000044E-002    -5.1891048144676349E-006
   7.7343750000000044E-002    -5.1964862109997283E-006
   8.1250000000000044E-002    -5.2038767967491324E-006
   8.5156250000000044E-002    -5.2112795226661021E-006
   8.9062500000000044E-002    -5.2186963921617191E-006
   9.2968750000000044E-002    -5.2261293508143872E-006
   9.6875000000000044E-002    -5.2335784456855332E-006
  0.10078125000000004         -5.2410432130837286E-006
  0.10468750000000004         -5.2485226302771576E-006
  0.10859375000000004         -5.2560142548923191E-006
  0.11250000000000004         -5.2635151764564657E-006
  0.11640625000000004         -5.2710224200754584E-006
  0.12031250000000004         -5.2785330876228409E-006
  0.12421875000000004         -5.2860451194615277E-006
  0.12812500000000004         -5.2935566005044976E-006
  0.13203125000000004         -5.3010669785157730E-006
  0.13593750000000004         -5.3085767734127877E-006
  0.13984375000000004         -5.3160869524864789E-006
  0.14375000000000004         -5.3235994902315871E-006
  0.14765625000000004         -5.3311173118637452E-006
  0.15156250000000004         -5.3386433593891196E-006
  0.15546875000000004         -5.3461800975136296E-006
  0.15937500000000004         -5.3537304459110232E-006
  0.16328125000000004         -5.3612959301274980E-006
  0.16718750000000004         -5.3688774871830969E-006
  0.17109375000000004         -5.3764755999199491E-006
  0.17500000000000004         -5.3840888182049885E-006
  0.17890625000000004         -5.3917151452110541E-006
  0.18281250000000004         -5.3993526056582787E-006
  0.18671875000000004         -5.4069982643449047E-006
  0.19062500000000004         -5.4146491826669712E-006
  0.19453125000000004         -5.4223029072592372E-006
  0.19843750000000004         -5.4299579225616313E-006
  0.20234375000000004         -5.4376127805807660E-006
  0.20625000000000004         -5.4452675136351853E-006
  0.21015625000000004         -5.4529230782445748E-006
  0.21406250000000004         -5.4605809891790901E-006
  0.21796875000000004         -5.4682432432658903E-006
  0.22187500000000004         -5.4759127946369476E-006
  0.22578125000000004         -5.4835925811110989E-006
  0.22968750000000004         -5.4912850526513792E-006
  0.23359375000000004         -5.4989917395607451E-006
  0.23750000000000004         -5.5067140906177100E-006
  0.24140625000000004         -5.5144521197800317E-006
  0.24531250000000004         -5.5222053128926491E-006
  0.24921875000000004         -5.5299726398547002E-006
  0.25312500000000004         -5.5377511849640714E-006
  0.25703125000000004         -5.5455388995754143E-006
  0.26093750000000004         -5.5533332940333118E-006
  0.26484375000000004         -5.5611323425942646E-006
  0.26875000000000004         -5.5689335913236019E-006
  0.27265625000000004         -5.5767365069155609E-006
  0.27656250000000004         -5.5845401360321724E-006
  0.28046875000000004         -5.5923454280397714E-006
  0.28437500000000004         -5.6001534164414242E-006
  0.28828125000000004         -5.6079665470128370E-006
  0.29218750000000004         -5.6157868488997127E-006
  0.29609375000000004         -5.6236172854350240E-006
  0.30000000000000004         -5.6314598805351092E-006
  0.30390625000000004         -5.6393161778912549E-006
  0.30781250000000004         -5.6471876962452501E-006
  0.31171875000000004         -5.6550749176541015E-006
  0.31562500000000004         -5.6629773540463103E-006
  0.31953125000000004         -5.6708939819049364E-006
  0.32343750000000004         -5.6788228530392900E-006
  0.32734375000000004         -5.6867619112144890E-006
  0.33125000000000004         -5.6947086990936600E-006
  0.33515625000000004         -5.7026607204374657E-006
  0.33906250000000004         -5.7106159702597801E-006
  0.34296875000000004         -5.7185729230144062E-006
  0.34687500000000004         -5.7265310911024541E-006
  0.35078125000000004         -5.7344913734266258E-006
  0.35468750000000004         -5.7424543206478565E-006
  0.35859375000000004         -5.7504218709707116E-006
  0.36250000000000004         -5.7583960716859828E-006
  0.36640625000000004         -5.7663794206080518E-006
  0.37031250000000004         -5.7743739269103722E-006
  0.37421875000000004         -5.7823820321813200E-006
  0.37812500000000004         -5.7904048211775119E-006
  0.38203125000000004         -5.7984432580081682E-006
  0.38593750000000004         -5.8064973143263775E-006
  0.38984375000000004         -5.8145655994067948E-006
  0.39375000000000004         -5.8226470035480984E-006
  0.39765625000000004         -5.8307391033070012E-006
  0.40156250000000004         -5.8388398390464167E-006
  0.40546875000000004         -5.8469467287004623E-006
  0.40937500000000004         -5.8550582343766459E-006
  0.41328125000000004         -5.8631728580905551E-006
  0.41718750000000004         -5.8712900812793107E-006
  0.42109375000000004         -5.8794094568215300E-006
  0.42500000000000004         -5.8875323862138101E-006
  0.42890625000000004         -5.8956599607966868E-006
  0.43281250000000004         -5.9037946405193211E-006
  0.43671875000000004         -5.9119384550968476E-006
  0.44062500000000004         -5.9200934242582749E-006
  0.44453125000000004         -5.9282615671631823E-006
  0.44843750000000004         -5.9364444141145265E-006
  0.45234375000000004         -5.9446429150480731E-006
  0.45625000000000004         -5.9528566076269459E-006
  0.46015625000000004         -5.9610849601204244E-006
  0.46406250000000004         -5.9693264603706409E-006
  0.46796875000000004         -5.9775790834192201E-006
  0.47187500000000004         -5.9858407772186102E-006
  0.47578125000000004         -5.9941090696890517E-006
  0.47968750000000004         -6.0023815027085468E-006
  0.48359375000000004         -6.0106570083110134E-006
  0.48750000000000004         -6.0189345819097245E-006
  0.49140625000000004         -6.0272142476642604E-006
  0.49531250000000004         -6.0354969970299308E-006
  0.49921875000000004         -6.0437838990148533E-006
  0.50312500000000004         -6.0520769827647333E-006
  0.50703125000000004         -6.0603782772095800E-006
  0.51093750000000004         -6.0686903106551561E-006
  0.51484375000000004         -6.0770155538266648E-006
  0.51875000000000004         -6.0853555081107243E-006
  0.52265625000000004         -6.0937111567672543E-006
  0.52656250000000004         -6.1020829726522612E-006
  0.53046875000000004         -6.1104703879653334E-006
  0.53437500000000004         -6.1188723329132269E-006
  0.53828125000000004         -6.1272868050904725E-006
  0.54218750000000004         -6.1357117353100423E-006
  0.54609375000000004         -6.1441445755144088E-006
  0.55000000000000004         -6.1525833498542757E-006
  0.55390625000000004         -6.1610260583207657E-006
  0.55781250000000004         -6.1694721381223458E-006
  0.56171875000000004         -6.1779211329414261E-006
  0.56562500000000004         -6.1863736042149830E-006
  0.56953125000000004         -6.1948305746748334E-006
  0.57343750000000004         -6.2032940855972794E-006
  0.57734375000000004         -6.2117666529417906E-006
  0.58125000000000004         -6.2202512505604702E-006
  0.58515625000000004         -6.2287494334488616E-006
  0.58906250000000004         -6.2372636637005958E-006
  0.59296875000000004         -6.2457953938089081E-006
  0.59687500000000004         -6.2543446666114735E-006
  0.60078125000000004         -6.2629114011168532E-006
  0.60468750000000004         -6.2714941435328647E-006
  0.60859375000000004         -6.2800913601179208E-006
  0.61250000000000004         -6.2887001212121491E-006
  0.61640625000000004         -6.2973179612832886E-006
  0.62031250000000004         -6.3059424411395548E-006
  0.62421875000000004         -6.3145711738435339E-006
  0.62812500000000004         -6.3232022656350112E-006
  0.63203125000000004         -6.3318352922944505E-006
  0.63593750000000004         -6.3404698708649501E-006
  0.63984375000000004         -6.3491066211855969E-006
  0.64375000000000004         -6.3577471090596081E-006
  0.64765625000000004         -6.3663924702718710E-006
  0.65156250000000004         -6.3750451934721886E-006
  0.65546875000000004         -6.3837068643996055E-006
  0.65937500000000004         -6.3923789802486173E-006
  0.66328125000000004         -6.4010629716526474E-006
  0.66718750000000004         -6.4097583730883122E-006
  0.67109375000000004         -6.4184647001020148E-006
  0.67500000000000004         -6.4271799676434561E-006
  0.67890625000000004         -6.4359021777466166E-006
  0.68281250000000004         -6.4446283778497748E-006
  0.68671875000000004         -6.4533556387656646E-006
  0.69062500000000004         -6.4620801347644858E-006
  0.69453125000000004         -6.4707998965808609E-006
  0.69843750000000004         -6.4795121078648998E-006
  0.70234375000000004         -6.4882158144935085E-006
  0.70625000000000004         -6.4969106451073766E-006
  0.71015625000000004         -6.5055971461801102E-006
  0.71406250000000004         -6.5142768131154676E-006
  0.71796875000000004         -6.5229511851969169E-006
  0.72187500000000004         -6.5316231637326298E-006
  0.72578125000000004         -6.5402946840943964E-006
  0.72968750000000004         -6.5489685789816659E-006
  0.73359375000000004         -6.5576471884861200E-006
  0.73750000000000004         -6.5663309118777939E-006
  0.74140625000000004         -6.5750205671043760E-006
  0.74531250000000004         -6.5837159569712715E-006
  0.74921875000000004         -6.5924155535356913E-006
  0.75312500000000004         -6.6011172947639573E-006
  0.75703125000000004         -6.6098196066938894E-006
  0.76093750000000004         -6.6185195796378635E-006
  0.76484375000000004         -6.6272152159835946E-006
  0.76875000000000004         -6.6359050669525705E-006
  0.77265625000000004         -6.6445877870901359E-006
  0.77656250000000004         -6.6532633893484384E-006
  0.78046875000000004         -6.6619324746363491E-006
  0.78437500000000004         -6.6705966051391866E-006
  0.78828125000000004         -6.6792586995250858E-006
  0.79218750000000004         -6.6879212388543176E-006
  0.79609375000000004         -6.6965875841596405E-006
  0.80000000000000004         -6.7052606293801808E-006
  0.80390625000000004         -6.7139427550851247E-006
  0.80781250000000004         -6.7226357888225584E-006
  0.81171875000000004         -6.7313410852481376E-006
  0.81562500000000004         -6.7400585530717801E-006
  0.81953125000000004         -6.7487871474497403E-006
  0.82343750000000004         -6.7575257625190823E-006
  0.82734375000000004         -6.7662719627107145E-006
  0.83125000000000004         -6.7750232974921724E-006
  0.83515625000000004         -6.7837769160189175E-006
  0.83906250000000004         -6.7925313424232600E-006
  0.84296875000000004         -6.8012847394279018E-006
  0.84687500000000004         -6.8100357376343010E-006
  0.85078125000000004         -6.8187848759265305E-006
  0.85468750000000004         -6.8275331860169188E-006
  0.85859375000000004         -6.8362821966333802E-006
  0.86250000000000004         -6.8450343120685009E-006
  0.86640625000000004         -6.8537924270465293E-006
  0.87031250000000004         -6.8625594039731726E-006
  0.87421875000000004         -6.8713375671916143E-006
  0.87812500000000004         -6.8801287996860268E-006
  0.88203125000000004         -6.8889339638532390E-006
  0.88593750000000004         -6.8977534434352793E-006
  0.88984375000000004         -6.9065862015268751E-006
  0.89375000000000004         -6.9154307398914951E-006
  0.89765625000000004         -6.9242850864309884E-006
  0.90156250000000004         -6.9331464163843814E-006
  0.90546875000000004         -6.9420123100595343E-006
  0.90937500000000004         -6.9508799863546957E-006
  0.91328125000000004         -6.9597476340761324E-006
  0.91718750000000004         -6.9686143746059110E-006
  0.92109375000000004         -6.9774798487105262E-006
  0.92500000000000004         -6.9863446662429404E-006