  -1.2000000000000000         -7.8875441115327737E-007
  -1.1960937500000000         -7.9367528976352361E-007
  -1.1921875000000000         -7.9858871154097420E-007
  -1.1882812500000000         -8.0349581384476181E-007
  -1.1843750000000000         -8.0839861444475722E-007
  -1.1804687500000000         -8.1329959906398597E-007
  -1.1765625000000000         -8.1820164530272385E-007
  -1.1726562500000000         -8.2310747800093970E-007
  -1.1687500000000000         -8.2801958179077147E-007
  -1.1648437500000000         -8.3293975081559287E-007
  -1.1609375000000000         -8.3786900656592385E-007
  -1.1570312500000000         -8.4280734638890594E-007
  -1.1531250000000000         -8.4775391432821835E-007
  -1.1492187500000000         -8.5270691811384314E-007
  -1.1453125000000000         -8.5766406384992232E-007
  -1.1414062500000000         -8.6262266945343915E-007
  -1.1375000000000000         -8.6757994408813997E-007
  -1.1335937500000000         -8.7253335836761918E-007
  -1.1296875000000000         -8.7748096210549037E-007
  -1.1257812500000000         -8.8242164514542991E-007
  -1.1218750000000000         -8.8735506580097745E-007
  -1.1179687500000000         -8.9228198651797420E-007
  -1.1140625000000000         -8.9720392312859782E-007
  -1.1101562500000000         -9.0212305887027575E-007
  -1.1062500000000000         -9.0704209222336605E-007
  -1.1023437500000000         -9.1196375633626524E-007
  -1.0984375000000000         -9.1689073470087203E-007
  -1.0945312500000000         -9.2182510973768950E-007
  -1.0906250000000000         -9.2676837695334873E-007
  -1.0867187500000000         -9.3172100724001968E-007
  -1.0828125000000000         -9.3668263908814943E-007
  -1.0789062500000000         -9.4165207364330577E-007
  -1.0750000000000000         -9.4662719734782884E-007
  -1.0710937500000000         -9.5160564394186375E-007
  -1.0671875000000000         -9.5658459779446249E-007
  -1.0632812500000000         -9.6156151317943236E-007
  -1.0593750000000000         -9.6653403270486649E-007
  -1.0554687500000000         -9.7150067526415945E-007
  -1.0515625000000000         -9.7646050528418218E-007
  -1.0476562500000000         -9.8141373564302950E-007
  -1.0437500000000000         -9.8636119630586386E-007
  -1.0398437500000000         -9.9130479244660570E-007
  -1.0359375000000000         -9.9624664817975956E-007
  -1.0320312500000000         -1.0011894988991939E-006
  -1.0281250000000000         -1.0061358333938549E-006
  -1.0242187500000000         -1.0110879811340672E-006
  -1.0203125000000000         -1.0160477639114016E-006
  -1.0164062500000000         -1.0210161390652747E-006
  -1.0125000000000000         -1.0259933312275794E-006
  -1.0085937500000000         -1.0309786083110831E-006
  -1.0046875000000000         -1.0359704706685319E-006
  -1.0007812500000000         -1.0409669557504673E-006
 -0.99687499999999996         -1.0459656858974583E-006
 -0.99296874999999996         -1.0509640839979776E-006
 -0.98906249999999996         -1.0559600152532828E-006
 -0.98515624999999996         -1.0609515387204844E-006
 -0.98124999999999996         -1.0659376409342797E-006
 -0.97734374999999996         -1.0709179720232728E-006
 -0.97343749999999996         -1.0758930957597792E-006
 -0.96953124999999996         -1.0808641807251339E-006
 -0.96562499999999996         -1.0858331226643459E-006
 -0.96171874999999996         -1.0908022385205831E-006
 -0.95781249999999996         -1.0957739979017868E-006
 -0.95390624999999996         -1.1007506111897051E-006
 -0.94999999999999996         -1.1057338737521350E-006
 -0.94609374999999996         -1.1107251789654349E-006
 -0.94218749999999996         -1.1157249203006846E-006
 -0.93828124999999996         -1.1207327264744211E-006
 -0.93437499999999996         -1.1257476371873721E-006
 -0.93046874999999996         -1.1307678425268939E-006
 -0.92656249999999996         -1.1357912240954851E-006
 -0.92265624999999996         -1.1408153869941078E-006
 -0.91874999999999996         -1.1458380048450070E-006
 -0.91484374999999996         -1.1508571677831421E-006
 -0.91093749999999996         -1.1558714045399808E-006
 -0.90703124999999996         -1.1608800193114670E-006
 -0.90312499999999996         -1.1658830526649766E-006
 -0.89921874999999996         -1.1708813814123231E-006
 -0.89531249999999996         -1.1758764448622877E-006
 -0.89140624999999996         -1.1808703567906236E-006
 -0.88749999999999996         -1.1858653710479571E-006
 -0.88359374999999996         -1.1908637364339643E-006
 -0.87968749999999996         -1.1958675831256390E-006
 -0.87578124999999996         -1.2008784119985588E-006
 -0.87187499999999996         -1.2058972629418007E-006
 -0.86796874999999996         -1.2109242948077573E-006
 -0.86406249999999996         -1.2159589813713497E-006
 -0.86015624999999996         -1.2210000521629840E-006
 -0.85624999999999996         -1.2260457556771129E-006
 -0.85234374999999996         -1.2310941238081428E-006
 -0.84843749999999996         -1.2361427932905253E-006
 -0.84453124999999996         -1.2411897991382415E-006
 -0.84062499999999996         -1.2462335274125811E-006
 -0.83671874999999996         -1.2512729461289204E-006
 -0.83281249999999996         -1.2563076368588426E-006
 -0.82890624999999996         -1.2613378883675211E-006
 -0.82499999999999996         -1.2663647249174599E-006
 -0.82109374999999996         -1.2713896099600042E-006
 -0.81718749999999996         -1.2764145116007473E-006
 -0.81328124999999996         -1.2814414011642914E-006
 -0.80937499999999996         -1.2864721892633412E-006
 -0.80546874999999996         -1.2915085519556112E-006
 -0.80156249999999996         -1.2965516732030964E-006
 -0.79765624999999996         -1.3016020321504783E-006
 -0.79374999999999996         -1.3066595376047121E-006
 -0.78984374999999996         -1.3117234147293935E-006
 -0.78593749999999996         -1.3167924361303422E-006
 -0.78203124999999996         -1.3218648749374739E-006
 -0.77812499999999996         -1.3269388160157696E-006
 -0.77421874999999996         -1.3320125607308212E-006
 -0.77031249999999996         -1.3370843956084834E-006
 -0.76640624999999996         -1.3421532707371460E-006
 -0.76249999999999996         -1.3472184895930472E-006
 -0.75859374999999996         -1.3522800469577376E-006
 -0.75468749999999996         -1.3573386086662285E-006
 -0.75078124999999996         -1.3623952922685761E-006
 -0.74687499999999996         -1.3674517257833972E-006
 -0.74296874999999996         -1.3725095539960557E-006
 -0.73906249999999996         -1.3775706298946087E-006
 -0.73515624999999996         -1.3826364744320241E-006
 -0.73124999999999996         -1.3877082288167575E-006
 -0.72734374999999996         -1.3927865510875354E-006
 -0.72343749999999996         -1.3978716170545663E-006
 -0.71953124999999996         -1.4029628457416673E-006
 -0.71562499999999996         -1.4080591637584743E-006
 -0.71171874999999996         -1.4131592407662275E-006
 -0.70781249999999996         -1.4182613236018747E-006
 -0.70390624999999996         -1.4233638014227093E-006
 -0.69999999999999996         -1.4284652242056488E-006
 -0.69609374999999996         -1.4335643473998274E-006
 -0.69218749999999996         -1.4386604420689582E-006
 -0.68828124999999996         -1.4437532675297607E-006
 -0.68437499999999996         -1.4488433597559941E-006
 -0.68046874999999996         -1.4539316715202681E-006
 -0.67656249999999996         -1.4590195057683981E-006
 -0.67265624999999996         -1.4641084570055459E-006
 -0.66874999999999996         -1.4692001795790344E-006
 -0.66484374999999996         -1.4742963525073887E-006
 -0.66093749999999996         -1.4793980584645757E-006
 -0.65703124999999996         -1.4845061905406236E-006
 -0.65312499999999996         -1.4896210492566077E-006
 -0.64921874999999996         -1.4947424274234776E-006
 -0.64531249999999996         -1.4998694525370748E-006
 -0.64140624999999996         -1.5050009858690218E-006
 -0.63749999999999996         -1.5101355327034235E-006
 -0.63359374999999996         -1.5152715555988036E-006
 -0.62968749999999996         -1.5204075444395202E-006
 -0.62578124999999996         -1.5255421890226006E-006
 -0.62187499999999996         -1.5306746741859276E-006
 -0.61796874999999996         -1.5358045607999887E-006
 -0.61406249999999996         -1.5409320825413045E-006
 -0.61015624999999996         -1.5460578137099066E-006
 -0.60624999999999996         -1.5511829545931677E-006
 -0.60234374999999996         -1.5563087481403451E-006
 -0.59843749999999996         -1.5614366097087238E-006
 -0.59453124999999996         -1.5665680400430552E-006
 -0.59062499999999996         -1.5717041161583238E-006
 -0.58671874999999996         -1.5768458418314143E-006
 -0.58281249999999996         -1.5819934957176801E-006
 -0.57890624999999996         -1.5871470737597477E-006
 -0.57499999999999996         -1.5923060766805831E-006
 -0.57109374999999996         -1.5974696023969408E-006
 -0.56718749999999996         -1.6026362916774217E-006
 -0.56328124999999996         -1.6078049039456333E-006
 -0.55937499999999996         -1.6129740030471728E-006
 -0.55546874999999996         -1.6181425959797398E-006
 -0.55156249999999996         -1.6233097671079829E-006
 -0.54765624999999996         -1.6284751163160628E-006
 -0.54374999999999996         -1.6336388203118821E-006
 -0.53984374999999996         -1.6388013531770032E-006
 -0.53593749999999996         -1.6439636546849749E-006
 -0.53203124999999996         -1.6491268442981234E-006
 -0.52812499999999996         -1.6542922515771068E-006
 -0.52421874999999996         -1.6594612222256258E-006
 -0.52031249999999996         -1.6646348489401798E-006
 -0.51640624999999996         -1.6698139888853282E-006
 -0.51249999999999996         -1.6749989869922353E-006
 -0.50859374999999996         -1.6801898391040937E-006
 -0.50468749999999996         -1.6853858660125905E-006
 -0.50078124999999996         -1.6905862463958300E-006
 -0.49687499999999996         -1.6957898417155703E-006
 -0.49296874999999996         -1.7009952965160167E-006
 -0.48906249999999996         -1.7062013165025383E-006
 -0.48515624999999996         -1.7114069142681208E-006
 -0.48124999999999996         -1.7166111390108199E-006
 -0.47734374999999996         -1.7218136449567391E-006
 -0.47343749999999996         -1.7270144213959450E-006
 -0.46953124999999996         -1.7322139563712674E-006
 -0.46562499999999996         -1.7374132243980121E-006
 -0.46171874999999996         -1.7426134158046948E-006
 -0.45781249999999996         -1.7478158147997173E-006
 -0.45390624999999996         -1.7530217624964032E-006
 -0.44999999999999996         -1.7582323765094385E-006
 -0.44609374999999996         -1.7634484736854494E-006
 -0.44218749999999996         -1.7686706090818913E-006
 -0.43828124999999996         -1.7738988267276501E-006
 -0.43437499999999996         -1.7791326506411575E-006
 -0.43046874999999996         -1.7843712908915065E-006
 -0.42656249999999996         -1.7896136048116052E-006
 -0.42265624999999996         -1.7948583412929776E-006
 -0.41874999999999996         -1.8001040961331720E-006
 -0.41484374999999996         -1.8053497543451314E-006
 -0.41093749999999996         -1.8105944092552331E-006
 -0.40703124999999996         -1.8158375044390196E-006
 -0.40312499999999996         -1.8210790459533054E-006
 -0.39921874999999996         -1.8263193062187794E-006
 -0.39531249999999996         -1.8315591155190650E-006
 -0.39140624999999996         -1.8367995525546101E-006
 -0.38749999999999996         -1.8420418085960966E-006
 -0.38359374999999996         -1.8472872517372178E-006
 -0.37968749999999996         -1.8525369755451631E-006
 -0.37578124999999996         -1.8577919773221072E-006
 -0.37187499999999996         -1.8630528286777102E-006
 -0.36796874999999996         -1.8683196432307468E-006
 -0.36406249999999996         -1.8735921759221009E-006
 -0.36015624999999996         -1.8788697684949738E-006
 -0.35624999999999996         -1.8841513895918804E-006
 -0.35234374999999996         -1.8894356428153882E-006
 -0.34843749999999996         -1.8947215639632482E-006
 -0.34453124999999996         -1.9000079941973669E-006
 -0.34062499999999996         -1.9052939139686445E-006
 -0.33671874999999996         -1.9105786532965915E-006
 -0.33281249999999996         -1.9158621593423938E-006
 -0.32890624999999996         -1.9211447954737532E-006
 -0.32499999999999996         -1.9264271707848251E-006
 -0.32109374999999996         -1.9317103153288350E-006
 -0.31718749999999996         -1.9369954705895579E-006
 -0.31328124999999996         -1.9422838001576410E-006
 -0.30937499999999996         -1.9475765909318571E-006
 -0.30546874999999996         -1.9528747646950730E-006
 -0.30156249999999996         -1.9581791101175673E-006
 -0.29765624999999996         -1.9634898428214823E-006
 -0.29374999999999996         -1.9688066837056101E-006
 -0.28984374999999996         -1.9741287566882160E-006
 -0.28593749999999996         -1.9794553201235224E-006
 -0.28203124999999996         -1.9847849080869504E-006
 -0.27812499999999996         -1.9901162993318334E-006
 -0.27421874999999996         -1.9954482847878760E-006
 -0.27031249999999996         -2.0007795904323394E-006
 -0.26640624999999996         -2.0061099018910490E-006
 -0.26249999999999996         -2.0114386803490280E-006
 -0.25859374999999996         -2.0167661315699494E-006
 -0.25468749999999996         -2.0220928369243018E-006
 -0.25078124999999996         -2.0274198015402973E-006
 -0.24687499999999996         -2.0327482733397298E-006
 -0.24296874999999996         -2.0380798334318225E-006
 -0.23906249999999996         -2.0434155658218060E-006
 -0.23515624999999996         -2.0487567278651048E-006
 -0.23124999999999996         -2.0541041774406839E-006
 -0.22734374999999996         -2.0594584469255023E-006
 -0.22343749999999996         -2.0648192868890945E-006
 -0.21953124999999996         -2.0701861985420031E-006
 -0.21562499999999996         -2.0755583251165471E-006
 -0.21171874999999996         -2.0809343359825091E-006
 -0.20781249999999996         -2.0863128197483221E-006
 -0.20390624999999996         -2.0916925802197246E-006
 -0.19999999999999996         -2.0970720798915444E-006
 -0.19609374999999996         -2.1024505184134428E-006
 -0.19218749999999996         -2.1078273244942221E-006
 -0.18828124999999996         -2.1132024517330850E-006
 -0.18437499999999996         -2.1185764313957102E-006
 -0.18046874999999996         -2.1239502705573838E-006
 -0.17656249999999996         -2.1293252358816802E-006
 -0.17265624999999996         -2.1347029567629516E-006
 -0.16874999999999996         -2.1400847685124929E-006
 -0.16484374999999996         -2.1454722366207546E-006
 -0.16093749999999996         -2.1508664767107834E-006
 -0.15703124999999996         -2.1562683466615431E-006
 -0.15312499999999996         -2.1616778661359610E-006
 -0.14921874999999996         -2.1670949962825414E-006
 -0.14531249999999996         -2.1725187689402348E-006
 -0.14140624999999996         -2.1779484098596496E-006
 -0.13749999999999996         -2.1833821440913810E-006
 -0.13359374999999996         -2.1888184247593668E-006
 -0.12968749999999996         -2.1942555704888455E-006
 -0.12578124999999996         -2.1996923023143895E-006
 -0.12187499999999996         -2.2051276009930767E-006
 -0.11796874999999996         -2.2105609257001126E-006
 -0.11406249999999996         -2.2159919350618445E-006
 -0.11015624999999996         -2.2214210322832695E-006
 -0.10624999999999996         -2.2268488071444896E-006
 -0.10234374999999996         -2.2322762563886268E-006
  -9.8437499999999956E-002    -2.2377042500082727E-006
  -9.4531249999999956E-002    -2.2431339602653006E-006
  -9.0624999999999956E-002    -2.2485659565038344E-006
  -8.6718749999999956E-002    -2.2540005570235443E-006
  -8.2812499999999956E-002    -2.2594376951463973E-006
  -7.8906249999999956E-002    -2.2648766847435156E-006
  -7.4999999999999956E-002    -2.2703164064231879E-006
  -7.1093749999999956E-002    -2.2757550428147187E-006
  -6.7187499999999956E-002    -2.2811907427610387E-006
  -6.3281249999999956E-002    -2.2866210849251625E-006
  -5.9374999999999956E-002    -2.2920440892309363E-006
  -5.5468749999999956E-002    -2.2974576569751570E-006
  -5.1562499999999956E-002    -2.3028603552189969E-006
  -4.7656249999999956E-002    -2.3082510672821357E-006
  -4.3749999999999956E-002    -2.3136291002419785E-006
  -3.9843749999999956E-002    -2.3189945355595397E-006
  -3.5937499999999956E-002    -2.3243480575421062E-006
  -3.2031249999999956E-002    -2.3296907696363536E-006
  -2.8124999999999956E-002    -2.3350241194053502E-006
  -2.4218749999999956E-002    -2.3403494905082609E-006
  -2.0312499999999956E-002    -2.3456683146992463E-006
  -1.6406249999999956E-002    -2.3509818199158665E-006
  -1.2499999999999956E-002    -2.3562906961391094E-006
  -8.5937499999999556E-003    -2.3615954765083427E-006
  -4.6874999999999556E-003    -2.3668960395263868E-006
  -7.8124999999995559E-004    -2.3721918648565244E-006
   3.1250000000000444E-003    -2.3774817689816608E-006
   7.0312500000000444E-003    -2.3827647102444732E-006
   1.0937500000000044E-002    -2.3880394381656076E-006
   1.4843750000000044E-002    -2.3933046791603799E-006
   1.8750000000000044E-002    -2.3985593885758518E-006
   2.2656250000000044E-002    -2.4038034083249022E-006
   2.6562500000000044E-002    -2.4090368298136165E-006
   3.0468750000000044E-002    -2.4142604093139233E-006
   3.4375000000000044E-002    -2.4194751369094431E-006
   3.8281250000000044E-002    -2.4246828047910751E-006
   4.2187500000000044E-002    -2.4298853434396936E-006
   4.6093750000000044E-002    -2.4350847241974856E-006
   5.0000000000000044E-002    -2.4402829833590814E-006
   5.3906250000000044E-002    -2.4454818531369735E-006
   5.7812500000000044E-002    -2.4506826892137838E-006
   6.1718750000000044E-002    -2.4558860524612809E-006
   6.5625000000000044E-002    -2.4610921068587686E-006
   6.9531250000000044E-002    -2.4663004461428925E-006
   7.3437500000000044E-002    -2.4715100304760115E-006
   7.7343750000000044E-002    -2.4767193758286888E-006
   8.1250000000000044E-002    -2.4819271169259303E-006
   8.5156250000000044E-002    -2.4871315990348442E-006
   8.9062500000000044E-002    -2.4923314057898270E-006
   9.2968750000000044E-002    -2.4975257968816878E-006
   9.6875000000000044E-002    -2.5027143623831880E-006
  0.10078125000000004         -2.5078970101836644E-006
  0.10468750000000004         -2.5130745731498051E-006
  0.10859375000000004         -2.5182482708114646E-006
  0.11250000000000004         -2.5234196381299464E-006
  0.11640625000000004         -2.5285902955804593E-006
  0.12031250000000004         -2.5337623060103233E-006
  0.12421875000000004         -2.5389371805111951E-006
  0.12812500000000004         -2.5441163783844592E-006
  0.13203125000000004         -2.5493004927929262E-006
  0.13593750000000004         -2.5544898923958634E-006
  0.13984375000000004         -2.5596841047036283E-006
  0.14375000000000004         -2.5648823159156664E-006
  0.14765625000000004         -2.5700829256087024E-006
  0.15156250000000004         -2.5752847822410658E-006
  0.15546875000000004         -2.5804859022314568E-006
  0.15937500000000004         -2.5856849873003968E-006
  0.16328125000000004         -2.5908808781580465E-006
  0.16718750000000004         -2.5960728207293806E-006
  0.17109375000000004         -2.6012604838073002E-006
  0.17500000000000004         -2.6064444747377542E-006
  0.17890625000000004         -2.6116256104843869E-006
  0.18281250000000004         -2.6168049918558689E-006
  0.18671875000000004         -2.6219843437368756E-006
  0.19062500000000004         -2.6271651593375993E-006
  0.19453125000000004         -2.6323491230057554E-006
  0.19843750000000004         -2.6375373069278134E-006
  0.20234375000000004         -2.6427305561781793E-006
  0.20625000000000004         -2.6479290462756036E-006
  0.21015625000000004         -2.6531326735121469E-006
  0.21406250000000004         -2.6583405003587773E-006
  0.21796875000000004         -2.6635514344879139E-006
  0.22187500000000004         -2.6687638890519811E-006
  0.22578125000000004         -2.6739762021804049E-006
  0.22968750000000004         -2.6791869150235469E-006
  0.23359375000000004         -2.6843947373921521E-006
  0.23750000000000004         -2.6895988289643691E-006
  0.24140625000000004         -2.6947989837550412E-006
  0.24531250000000004         -2.6999953242138898E-006
  0.24921875000000004         -2.7051889029585920E-006
  0.25312500000000004         -2.7103809016533055E-006
  0.25703125000000004         -2.7155728302696705E-006
  0.26093750000000004         -2.7207667674639150E-006
  0.26484375000000004         -2.7259643161454004E-006
  0.26875000000000004         -2.7311672619445717E-006
  0.27265625000000004         -2.7363766903042031E-006
  0.27656250000000004         -2.7415935494971104E-006
  0.28046875000000004         -2.7468180087314195E-006
  0.28437500000000004         -2.7520496110020440E-006
  0.28828125000000004         -2.7572877046053106E-006
  0.29218750000000004         -2.7625310180623496E-006
  0.29609375000000004         -2.7677783495365468E-006
  0.30000000000000004         -2.7730280703664713E-006
  0.30390625000000004         -2.7782790081961142E-006
  0.30781250000000004         -2.7835301936904037E-006
  0.31171875000000004         -2.7887812724095160E-006
  0.31562500000000004         -2.7940319102134783E-006
  0.31953125000000004         -2.7992825066747514E-006
  0.32343750000000004         -2.8045339845707330E-006
  0.32734375000000004         -2.8097873555636532E-006
  0.33125000000000004         -2.8150441156691829E-006
  0.33515625000000004         -2.8203055039859689E-006
  0.33906250000000004         -2.8255724183644891E-006
  0.34296875000000004         -2.8308460033429486E-006
  0.34687500000000004         -2.8361266541283473E-006
  0.35078125000000004         -2.8414141695194316E-006
  0.35468750000000004         -2.8467081164503272E-006
  0.35859375000000004         -2.8520076277339225E-006
  0.36250000000000004         -2.8573114003117513E-006
  0.36640625000000004         -2.8626177822564018E-006
  0.37031250000000004         -2.8679254258568178E-006
  0.37421875000000004         -2.8732328879448757E-006
  0.37812500000000004         -2.8785390285115318E-006
  0.38203125000000004         -2.8838431900187626E-006
  0.38593750000000004         -2.8891454567644563E-006
  0.38984375000000004         -2.8944462053726191E-006
  0.39375000000000004         -2.8997464571606421E-006
  0.39765625000000004         -2.9050474393350722E-006
  0.40156250000000004         -2.9103509532637872E-006
  0.40546875000000004         -2.9156587411005742E-006
  0.40937500000000004         -2.9209725977752923E-006
  0.41328125000000004         -2.9262941429920094E-006
  0.41718750000000004         -2.9316243565071371E-006
  0.42109375000000004         -2.9369640399184235E-006
  0.42500000000000004         -2.9423134931031952E-006
  0.42890625000000004         -2.9476725251541443E-006
  0.43281250000000004         -2.9530405212720211E-006
  0.43671875000000004         -2.9584163898621664E-006
  0.44062500000000004         -2.9637991032338244E-006
  0.44453125000000004         -2.9691874529222276E-006
  0.44843750000000004         -2.9745804315364697E-006
  0.45234375000000004         -2.9799771921598056E-006
  0.45625000000000004         -2.9853772895205063E-006
  0.46015625000000004         -2.9907804860488568E-006
  0.46406250000000004         -2.9961870004805655E-006
  0.46796875000000004         -3.0015972584262949E-006
  0.47187500000000004         -3.0070119589850482E-006
  0.47578125000000004         -3.0124318552165666E-006
  0.47968750000000004         -3.0178577584716244E-006
  0.48359375000000004         -3.0232901574044727E-006
  0.48750000000000004         -3.0287294757169191E-006
  0.49140625000000004         -3.0341756843104952E-006
  0.49531250000000004         -3.0396282664251042E-006
  0.49921875000000004         -3.0450865856250610E-006
  0.50312500000000004         -3.0505495288694085E-006
  0.50703125000000004         -3.0560158623843253E-006
  0.51093750000000004         -3.0614845111846859E-006
  0.51484375000000004         -3.0669543474378179E-006
  0.51875000000000004         -3.0724244149043028E-006
  0.52265625000000004         -3.0778942381302773E-006
  0.52656250000000004         -3.0833638951657482E-006
  0.53046875000000004         -3.0888337593197115E-006
  0.53437500000000004         -3.0943046388494612E-006
  0.53828125000000004         -3.0997779068027294E-006
  0.54218750000000004         -3.1052551664064051E-006
  0.54609375000000004         -3.1107380383817474E-006
  0.55000000000000004         -3.1162282714793017E-006
  0.55390625000000004         -3.1217270838208598E-006
  0.55781250000000004         -3.1272357797750383E-006
  0.56171875000000004         -3.1327550765456963E-006
  0.56562500000000004         -3.1382852069832524E-006
  0.56953125000000004         -3.1438259032103267E-006
  0.57343750000000004         -3.1493766624893073E-006
  0.57734375000000004         -3.1549365768050258E-006
  0.58125000000000004         -3.1605045840434297E-006
  0.58515625000000004         -3.1660794116457161E-006
  0.58906250000000004         -3.1716599493400964E-006
  0.59296875000000004         -3.1772455756364268E-006
  0.59687500000000004         -3.1828356791778593E-006
  0.60078125000000004         -3.1884305111135804E-006
  0.60468750000000004         -3.1940301687467705E-006
  0.60859375000000004         -3.1996353057614330E-006
  0.61250000000000004         -3.2052468513729847E-006
  0.61640625000000004         -3.2108660842312339E-006
  0.62031250000000004         -3.2164936951843086E-006
  0.62421875000000004         -3.2221305398866999E-006
  0.62812500000000004         -3.2277773285005877E-006
  0.63203125000000004         -3.2334340086947800E-006
  0.63593750000000004         -3.2391001118669159E-006
  0.63984375000000004         -3.2447751628178765E-006
  0.64375000000000004         -3.2504581141588118E-006
  0.64765625000000004         -3.2561475449038720E-006
  0.65156250000000004         -3.2618419413196235E-006
  0.65546875000000004         -3.2675400467170488E-006
  0.65937500000000004         -3.2732405025747885E-006
  0.66328125000000004         -3.2789426069551044E-006
  0.66718750000000004         -3.2846459253213629E-006
  0.67109375000000004         -3.2903508252442078E-006
  0.67500000000000004         -3.2960575772144961E-006
  0.67890625000000004         -3.3017674207425377E-006
  0.68281250000000004         -3.3074818410650968E-006
  0.68671875000000004         -3.3132024830660378E-006
  0.69062500000000004         -3.3189307439556983E-006
  0.69453125000000004         -3.3246681590442587E-006
  0.69843750000000004         -3.3304159036538562E-006
  0.70234375000000004         -3.3361749722052265E-006
  0.70625000000000004         -3.3419453102613566E-006
  0.71015625000000004         -3.3477269503944661E-006
  0.71406250000000004         -3.3535190561699820E-006
  0.71796875000000004         -3.3593206630926496E-006
  0.72187500000000004         -3.3651306713101125E-006
  0.72578125000000004         -3.3709478583615513E-006
  0.72968750000000004         -3.3767710871658345E-006
  0.73359375000000004         -3.3825993707592995E-006
  0.73750000000000004         -3.3884321191981419E-006
  0.74140625000000004         -3.3942693878756879E-006
  0.74531250000000004         -3.4001113518608519E-006
  0.74921875000000004         -3.4059589625532341E-006
  0.75312500000000004         -3.4118130310507318E-006
  0.75703125000000004         -3.4176746512477308E-006
  0.76093750000000004         -3.4235453419231824E-006
  0.76484375000000004         -3.4294258196145426E-006
  0.76875000000000004         -3.4353169416685910E-006
  0.77265625000000004         -3.4412191214372710E-006
  0.77656250000000004         -3.4471321200770275E-006
  0.78046875000000004         -3.4530554283857978E-006
  0.78437500000000004         -3.4589880138605815E-006
  0.78828125000000004         -3.4649284926100878E-006
  0.79218750000000004         -3.4708752991733499E-006
  0.79609375000000004         -3.4768271649711150E-006
  0.80000000000000004         -3.4827825607785683E-006
  0.80390625000000004         -3.4887404721839171E-006
  0.80781250000000004         -3.4947006424916668E-006
  0.81171875000000004         -3.5006629201204112E-006
  0.81562500000000004         -3.5066278357862167E-006
  0.81953125000000004         -3.5125965632198931E-006
  0.82343750000000004         -3.5185703206078833E-006
  0.82734375000000004         -3.5245510355031457E-006
  0.83125000000000004         -3.5305403275470060E-006
  0.83515625000000004         -3.5365401162649411E-006
  0.83906250000000004         -3.5425517997971702E-006
  0.84296875000000004         -3.5485764190298764E-006
  0.84687500000000004         -3.5546145038921489E-006
  0.85078125000000004         -3.5606659993100527E-006
  0.85468750000000004         -3.5667305532024555E-006
  0.85859375000000004         -3.5728071734063530E-006
  0.86250000000000004         -3.5788947026662463E-006
  0.86640625000000004         -3.5849917156905149E-006
  0.87031250000000004         -3.5910969493471633E-006
  0.87421875000000004         -3.5972091290274892E-006
  0.87812500000000004         -3.6033276498126622E-006
  0.88203125000000004         -3.6094518566790424E-006
  0.88593750000000004         -3.6155820864416415E-006
  0.88984375000000004         -3.6217184474040755E-006
  0.89375000000000004         -3.6278620898134219E-006
  0.89765625000000004         -3.6340139664999586E-006
  0.90156250000000004         -3.6401753602623861E-006
  0.90546875000000004         -3.6463473125119770E-006
  0.90937500000000004         -3.6525309317741812E-006
  0.91328125000000004         -3.6587266556841159E-006
  0.91718750000000004         -3.6649349586206725E-006
  0.92109375000000004         -3.6711556144644085E-006
  0.92500000000000004         -3.6773877548435448E-006