  -1.2000000000000000         -3.5881352933065432E-011
  -1.1960937500000000         -3.7758223406178686E-011
  -1.1921875000000000         -3.8427122561167647E-011
  -1.1882812500000000         -3.7814389928292789E-011
  -1.1843750000000000         -3.5866389433710884E-011
  -1.1804687500000000         -3.2567114654354974E-011
  -1.1765625000000000         -2.7946493654849845E-011
  -1.1726562500000000         -2.2096131185396982E-011
  -1.1687500000000000         -1.5179671922269018E-011
  -1.1648437500000000         -7.4354148346967096E-012
  -1.1609375000000000          8.2749383595701729E-013
  -1.1570312500000000          9.2366900055582925E-012
  -1.1531250000000000          1.7375400263983073E-011
  -1.1492187500000000          2.4805609280976337E-011
  -1.1453125000000000          3.1100514788737575E-011
  -1.1414062500000000          3.5878062334813601E-011
  -1.1375000000000000          3.8829217163611223E-011
  -1.1335937500000000          3.9756254125429722E-011
  -1.1296875000000000          3.8588211703466065E-011
  -1.1257812500000000          3.5394310021002071E-011
  -1.1218750000000000          3.0388552520823353E-011
  -1.1179687500000000          2.3917495654564538E-011
  -1.1140625000000000          1.6436753813958722E-011
  -1.1101562500000000          8.4765708735218167E-012
  -1.1062500000000000          6.0184317978357640E-013
  -1.1023437500000000         -6.6377873463135046E-012
  -1.0984375000000000         -1.2751201053727419E-011
  -1.0945312500000000         -1.7351842752949599E-011
  -1.0906250000000000         -2.0192080206798871E-011
  -1.0867187500000000         -2.1179023845107309E-011
  -1.0828125000000000         -2.0390207977575234E-011
  -1.0789062500000000         -1.8057006054677469E-011
  -1.0750000000000000         -1.4548998263969298E-011
  -1.0710937500000000         -1.0333536409051085E-011
  -1.0671875000000000         -5.9279011254559414E-012
  -1.0632812500000000         -1.8526549832831038E-012
  -1.0593750000000000          1.4163804744382365E-012
  -1.0554687500000000          3.4980679121652147E-012
  -1.0515625000000000          4.1424950097321569E-012
  -1.0476562500000000          3.2554290919254295E-012
  -1.0437500000000000          8.9745017073582505E-013
  -1.0398437500000000         -2.7178901519086174E-012
  -1.0359375000000000         -7.2506101296969868E-012
  -1.0320312500000000         -1.2268199303925312E-011
  -1.0281250000000000         -1.7289766604292854E-011
  -1.0242187500000000         -2.1839023220411778E-011
  -1.0203125000000000         -2.5486775813919418E-011
  -1.0164062500000000         -2.7893789777892694E-011
  -1.0125000000000000         -2.8841508292145871E-011
  -1.0085937500000000         -2.8246088714751959E-011
  -1.0046875000000000         -2.6159639986954883E-011
  -1.0007812500000000         -2.2766623325840707E-011
 -0.99687499999999996         -1.8348564418867171E-011
 -0.99296874999999996         -1.3253677323314649E-011
 -0.98906249999999996         -7.8566759267146603E-012
 -0.98515624999999996         -2.5231275435554809E-012
 -0.98124999999999996          2.4323893304451267E-012
 -0.97734374999999996          6.7671269911769963E-012
 -0.97343749999999996          1.0327198850826956E-011
 -0.96953124999999996          1.3054698999666042E-011
 -0.96562499999999996          1.4978534901595671E-011
 -0.96171874999999996          1.6188911548549172E-011
 -0.95781249999999996          1.6814628724582946E-011
 -0.95390624999999996          1.6992543165734339E-011
 -0.94999999999999996          1.6842325121997710E-011
 -0.94609374999999996          1.6436548353038234E-011
 -0.94218749999999996          1.5793217231852764E-011
 -0.93828124999999996          1.4864484739477167E-011
 -0.93437499999999996          1.3552338176801465E-011
 -0.93046874999999996          1.1722839116488518E-011
 -0.92656249999999996          9.2386618894429136E-012
 -0.92265624999999996          5.9832489306263005E-012
 -0.91874999999999996          1.8947746235247220E-012
 -0.91484374999999996         -3.0088829699764975E-012
 -0.91093749999999996         -8.6082613186853988E-012
 -0.90703124999999996         -1.4678585891306483E-011
 -0.90312499999999996         -2.0900872070013416E-011
 -0.89921874999999996         -2.6875993451742324E-011
 -0.89531249999999996         -3.2159411117752221E-011
 -0.89140624999999996         -3.6310848868240643E-011
 -0.88749999999999996         -3.8932315553846806E-011
 -0.88359374999999996         -3.9716038796664795E-011
 -0.87968749999999996         -3.8485758265610992E-011
 -0.87578124999999996         -3.5218856784695099E-011
 -0.87187499999999996         -3.0061019462500343E-011
 -0.86796874999999996         -2.3323586997784858E-011
 -0.86406249999999996         -1.5459387971305479E-011
 -0.86015624999999996         -7.0174688567102213E-012
 -0.85624999999999996          1.3968929828997479E-012
 -0.85234374999999996          9.1806136083364519E-012
 -0.84843749999999996          1.5788973613966205E-011
 -0.84453124999999996          2.0791511258912365E-011
 -0.84062499999999996          2.3905174575287021E-011
 -0.83671874999999996          2.5018489126753142E-011
 -0.83281249999999996          2.4203730860475914E-011
 -0.82890624999999996          2.1706809837799836E-011
 -0.82499999999999996          1.7908757896970241E-011
 -0.82109374999999996          1.3294364395663254E-011
 -0.81718749999999996          8.3868859700600638E-012
 -0.81328124999999996          3.6987955992865214E-012
 -0.80937499999999996         -3.2212170166574588E-013
 -0.80546874999999996         -3.3338416348483219E-012
 -0.80156249999999996         -5.1337369799712252E-012
 -0.79765624999999996         -5.6699283488523440E-012
 -0.79374999999999996         -5.0428227250746422E-012
 -0.78984374999999996         -3.4843056888673902E-012
 -0.78593749999999996         -1.3187101831407835E-012
 -0.78203124999999996          1.0724836518744219E-012
 -0.77812499999999996          3.3067216932641912E-012
 -0.77421874999999996          5.0411564247874766E-012
 -0.77031249999999996          6.0136512015927442E-012
 -0.76640624999999996          6.0653453078328215E-012
 -0.76249999999999996          5.1591146682214715E-012
 -0.75859374999999996          3.3819418321210713E-012
 -0.75468749999999996          9.2054574098586725E-013
 -0.75078124999999996         -1.9626551933740746E-012
 -0.74687499999999996         -4.9659414304128928E-012
 -0.74296874999999996         -7.7836666115309573E-012
 -0.73906249999999996         -1.0150655384332330E-011
 -0.73515624999999996         -1.1871455303685673E-011
 -0.73124999999999996         -1.2839675738674349E-011
 -0.72734374999999996         -1.3052441399425307E-011
 -0.72343749999999996         -1.2599757843329917E-011
 -0.71953124999999996         -1.1649048211349800E-011
 -0.71562499999999996         -1.0421188561443311E-011
 -0.71171874999999996         -9.1537236740598482E-012
 -0.70781249999999996         -8.0625007428982797E-012
 -0.70390624999999996         -7.3155923706382812E-012
 -0.69999999999999996         -7.0086072660640971E-012
 -0.69609374999999996         -7.1445785855093691E-012
 -0.69218749999999996         -7.6368961194330548E-012
 -0.68828124999999996         -8.3205912195259397E-012
 -0.68437499999999996         -8.9701858320231259E-012
 -0.68046874999999996         -9.3318726072939108E-012
 -0.67656249999999996         -9.1605301601707943E-012
 -0.67265624999999996         -8.2516741328687915E-012
 -0.66874999999999996         -6.4774840255734986E-012
 -0.66484374999999996         -3.8092770119190639E-012
 -0.66093749999999996         -3.2527474362258591E-013
 -0.65703124999999996          3.7874003364298961E-012
 -0.65312499999999996          8.2403164342285792E-012
 -0.64921874999999996          1.2676401526498505E-011
 -0.64531249999999996          1.6695419615979398E-011
 -0.64140624999999996          1.9907526481177524E-011
 -0.63749999999999996          2.1962818935484846E-011
 -0.63359374999999996          2.2589167622925609E-011
 -0.62968749999999996          2.1624729157992203E-011
 -0.62578124999999996          1.9041456973129530E-011
 -0.62187499999999996          1.4942631776714791E-011
 -0.61796874999999996          9.5621442204458181E-012
 -0.61406249999999996          3.2390776172569115E-012
 -0.61015624999999996         -3.6115435666994649E-012
 -0.60624999999999996         -1.0525985047157545E-011
 -0.60234374999999996         -1.7042149471671203E-011
 -0.59843749999999996         -2.2739650372010256E-011
 -0.59453124999999996         -2.7271930563056049E-011
 -0.59062499999999996         -3.0397510909713137E-011
 -0.58671874999999996         -3.1998863612843668E-011
 -0.58281249999999996         -3.2074001231977576E-011
 -0.57890624999999996         -3.0741890738934911E-011
 -0.57499999999999996         -2.8217683665422976E-011
 -0.57109374999999996         -2.4784902551858392E-011
 -0.56718749999999996         -2.0773628744491080E-011
 -0.56328124999999996         -1.6515816375562694E-011
 -0.55937499999999996         -1.2320959897711386E-011
 -0.55546874999999996         -8.4462883865905947E-012
 -0.55156249999999996         -5.0803568143965334E-012
 -0.54765624999999996         -2.3295588076485923E-012
 -0.54374999999999996         -2.2462793401649692E-013
 -0.53984374999999996          1.2744208449806061E-012
 -0.53593749999999996          2.2647797760111946E-012
 -0.53203124999999996          2.8840377869875445E-012
 -0.52812499999999996          3.2841184822949731E-012
 -0.52421874999999996          3.6064158616731897E-012
 -0.52031249999999996          3.9670477465112911E-012
 -0.51640624999999996          4.4411617849790833E-012
 -0.51249999999999996          5.0500305961885040E-012
 -0.50859374999999996          5.7665322514418297E-012
 -0.50468749999999996          6.5135411488587484E-012
 -0.50078124999999996          7.1809825563679141E-012
 -0.49687499999999996          7.6372370200616277E-012
 -0.49296874999999996          7.7492433214871668E-012
 -0.48906249999999996          7.4004189952546372E-012
 -0.48515624999999996          6.5126144692795418E-012
 -0.48124999999999996          5.0553143468737002E-012
 -0.47734374999999996          3.0502893961783270E-012
 -0.47343749999999996          5.8183220250441493E-013
 -0.46953124999999996         -2.2155668995403209E-012
 -0.46562499999999996         -5.1632468312661185E-012
 -0.46171874999999996         -8.0538615102001324E-012
 -0.45781249999999996         -1.0678335135015912E-011
 -0.45390624999999996         -1.2842055455199585E-011
 -0.44999999999999996         -1.4380722243434213E-011
 -0.44609374999999996         -1.5187164013541301E-011
 -0.44218749999999996         -1.5205959018666318E-011
 -0.43828124999999996         -1.4459158388381552E-011
 -0.43437499999999996         -1.3036035666111984E-011
 -0.43046874999999996         -1.1083684896912204E-011
 -0.42656249999999996         -8.7890662397391025E-012
 -0.42265624999999996         -6.3748107245752238E-012
 -0.41874999999999996         -4.0572088989386752E-012
 -0.41484374999999996         -2.0391990829350563E-012
 -0.41093749999999996         -4.8343225788217677E-013
 -0.40703124999999996          5.0550165904063654E-013
 -0.40312499999999996          8.9143938727383349E-013
 -0.39921874999999996          7.1493399717279678E-013
 -0.39531249999999996          8.5066017213535927E-014
 -0.39140624999999996         -8.3596818137742831E-013
 -0.38749999999999996         -1.8476570836503335E-012
 -0.38359374999999996         -2.7399977044796531E-012
 -0.37968749999999996         -3.3063389280049654E-012
 -0.37578124999999996         -3.3789198237621705E-012
 -0.37187499999999996         -2.8464765129841590E-012
 -0.36796874999999996         -1.6764499673792151E-012
 -0.36406249999999996          8.3443450039790162E-014
 -0.36015624999999996          2.3026171357291958E-012
 -0.35624999999999996          4.7906244003085995E-012
 -0.35234374999999996          7.3020395927621450E-012
 -0.34843749999999996          9.5648873984559617E-012
 -0.34453124999999996          1.1317111048678066E-011
 -0.34062499999999996          1.2327885070848310E-011
 -0.33671874999999996          1.2434026912665645E-011
 -0.33281249999999996          1.1549013610640248E-011
 -0.32890624999999996          9.6898973402300323E-012
 -0.32499999999999996          6.9658252192275323E-012
 -0.32109374999999996          3.5780114302174203E-012
 -0.31718749999999996         -1.9558223060652632E-013
 -0.31328124999999996         -4.0351280102289785E-012
 -0.30937499999999996         -7.6081272828049425E-012
 -0.30546874999999996         -1.0605293509526526E-011
 -0.30156249999999996         -1.2769629318010977E-011
 -0.29765624999999996         -1.3928736873052254E-011
 -0.29374999999999996         -1.4011369072881204E-011
 -0.28984374999999996         -1.3055400089808452E-011
 -0.28593749999999996         -1.1199925462804360E-011
 -0.28203124999999996         -8.6777013050759910E-012
 -0.27812499999999996         -5.7898792196859776E-012
 -0.27421874999999996         -2.8605716781922628E-012
 -0.27031249999999996         -2.1344635147055141E-013
 -0.26640624999999996          1.8650020314311069E-012
 -0.26249999999999996          3.1713406926414204E-012
 -0.25859374999999996          3.5829099872615447E-012
 -0.25468749999999996          3.0925483040994506E-012
 -0.25078124999999996          1.7940320699728686E-012
 -0.24687499999999996         -1.2619012171380687E-013
 -0.24296874999999996         -2.4158199941239191E-012
 -0.23906249999999996         -4.7859856706336260E-012
 -0.23515624999999996         -6.9438418338040365E-012
 -0.23124999999999996         -8.6322398370516320E-012
 -0.22734374999999996         -9.6705801064393856E-012
 -0.22343749999999996         -9.9636998617248477E-012
 -0.21953124999999996         -9.5194908498932823E-012
 -0.21562499999999996         -8.4508131675218468E-012
 -0.21171874999999996         -6.9500140927879481E-012
 -0.20781249999999996         -5.2863445178673178E-012
 -0.20390624999999996         -3.7603174973675486E-012
 -0.19999999999999996         -2.6687041705673270E-012
 -0.19609374999999996         -2.2670997375467169E-012
 -0.19218749999999996         -2.7356215780496397E-012
 -0.18828124999999996         -4.1580567740667378E-012
 -0.18437499999999996         -6.5010109710288656E-012
 -0.18046874999999996         -9.6197522331843800E-012
 -0.17656249999999996         -1.3250714835083685E-011
 -0.17265624999999996         -1.7048265251891052E-011
 -0.16874999999999996         -2.0616889689926989E-011
 -0.16484374999999996         -2.3548835790469379E-011
 -0.16093749999999996         -2.5458753728133559E-011
 -0.15703124999999996         -2.6017545008893002E-011
 -0.15312499999999996         -2.4991920218210981E-011
 -0.14921874999999996         -2.2260037756498751E-011
 -0.14531249999999996         -1.7818487992183482E-011
 -0.14140624999999996         -1.1784332502792772E-011
 -0.13749999999999996         -4.3810488634027541E-012
 -0.13359374999999996          4.0726705381117188E-012
 -0.12968749999999996          1.3197179966246783E-011
 -0.12578124999999996          2.2569941419488134E-011
 -0.12187499999999996          3.1745042701990440E-011
 -0.11796874999999996          4.0261042424154061E-011
 -0.11406249999999996          4.7655643841196967E-011
 -0.11015624999999996          5.3449447758944582E-011
 -0.10624999999999996          5.7138934164356911E-011
 -0.10234374999999996          5.8165109098797482E-011
  -9.8437499999999956E-002     5.5889150041435223E-011
  -9.4531249999999956E-002     4.9566300405362651E-011
  -9.0624999999999956E-002     3.8314235457873669E-011
  -8.6718749999999956E-002     2.1094837479216873E-011
  -8.2812499999999956E-002    -3.3021723121798027E-012
  -7.8906249999999956E-002    -3.6234849966191418E-011
  -7.4999999999999956E-002    -7.9191756141161453E-011
  -7.1093749999999956E-002    -1.3376697825505845E-010
  -6.7187499999999956E-002    -2.0159716003668067E-010
  -6.3281249999999956E-002    -2.8432087424326398E-010
  -5.9374999999999956E-002    -3.8351086932775032E-010
  -5.5468749999999956E-002    -5.0061123288370370E-010
  -5.1562499999999956E-002    -6.3690512034733883E-010
  -4.7656249999999956E-002    -7.9345294511816955E-010
  -4.3749999999999956E-002    -9.7108332583357756E-010
  -3.9843749999999956E-002    -1.1703583994512715E-009
  -3.5937499999999956E-002    -1.3916059637293191E-009
  -3.2031249999999956E-002    -1.6349295854038196E-009
  -2.8124999999999956E-002    -1.9002183401397959E-009
  -2.4218749999999956E-002    -2.1872114471752084E-009
  -2.0312499999999956E-002    -2.4955290927213360E-009
  -1.6406249999999956E-002    -2.8247054813783463E-009
  -1.2499999999999956E-002    -3.1742210741150472E-009
  -8.5937499999999556E-003    -3.5435480547552099E-009
  -4.6874999999999556E-003    -3.9321407452943890E-009
  -7.8124999999995559E-004    -4.3394553993224378E-009
   3.1250000000000444E-003    -4.7649342590204390E-009
   7.0312500000000444E-003    -5.2080115094969232E-009
   1.0937500000000044E-002    -5.6680758838203051E-009
   1.4843750000000044E-002    -6.1444514434160388E-009
   1.8750000000000044E-002    -6.6363818022422566E-009
   2.2656250000000044E-002    -7.1430288096835974E-009
   2.6562500000000044E-002    -7.6634588724814972E-009
   3.0468750000000044E-002    -8.1966416652674194E-009
   3.4375000000000044E-002    -8.7414812460625250E-009
   3.8281250000000044E-002    -9.2968262778320374E-009
   4.2187500000000044E-002    -9.8615118937813893E-009
   4.6093750000000044E-002    -1.0434408697572601E-008
   5.0000000000000044E-002    -1.1014454746653739E-008
   5.3906250000000044E-002    -1.1600691097090956E-008
   5.7812500000000044E-002    -1.2192297696747560E-008
   6.1718750000000044E-002    -1.2788612709738025E-008
   6.5625000000000044E-002    -1.3389152164093357E-008
   6.9531250000000044E-002    -1.3993611127074825E-008
   7.3437500000000044E-002    -1.4601847928990548E-008
   7.7343750000000044E-002    -1.5213884769448841E-008
   8.1250000000000044E-002    -1.5829871702619354E-008
   8.5156250000000044E-002    -1.6450064208354632E-008
   8.9062500000000044E-002    -1.7074789229721947E-008
   9.2968750000000044E-002    -1.7704417654038596E-008
   9.6875000000000044E-002    -1.8339342774319020E-008
  0.10078125000000004         -1.8979935550633948E-008
  0.10468750000000004         -1.9626545518838549E-008
  0.10859375000000004         -2.0279485858575381E-008
  0.11250000000000004         -2.0939045957640651E-008
  0.11640625000000004         -2.1605456135886498E-008
  0.12031250000000004         -2.2278928607856390E-008
  0.12421875000000004         -2.2959638518718330E-008
  0.12812500000000004         -2.3647723338205034E-008
  0.13203125000000004         -2.4343291943608294E-008
  0.13593750000000004         -2.5046417871997174E-008
  0.13984375000000004         -2.5757124745267272E-008
  0.14375000000000004         -2.6475373234820340E-008
  0.14765625000000004         -2.7201042468155027E-008
  0.15156250000000004         -2.7933921987350528E-008
  0.15546875000000004         -2.8673682795022256E-008
  0.15937500000000004         -2.9419862207416542E-008
  0.16328125000000004         -3.0171857305047347E-008
  0.16718750000000004         -3.0928920996194271E-008
  0.17109375000000004         -3.1690181998873909E-008
  0.17500000000000004         -3.2454652363009870E-008
  0.17890625000000004         -3.3221269362241025E-008
  0.18281250000000004         -3.3988925788178881E-008
  0.18671875000000004         -3.4756523345368567E-008
  0.19062500000000004         -3.5523019907046571E-008
  0.19453125000000004         -3.6287481321284908E-008
  0.19843750000000004         -3.7049128042125705E-008
  0.20234375000000004         -3.7807373113169040E-008
  0.20625000000000004         -3.8561851881047475E-008
  0.21015625000000004         -3.9312432800602883E-008
  0.21406250000000004         -4.0059209738422133E-008
  0.21796875000000004         -4.0802506346634138E-008
  0.22187500000000004         -4.1542826825304522E-008
  0.22578125000000004         -4.2280842025665445E-008
  0.22968750000000004         -4.3017311873897627E-008
  0.23359375000000004         -4.3753052204037622E-008
  0.23750000000000004         -4.4488880408456410E-008
  0.24140625000000004         -4.5225557079522145E-008
  0.24531250000000004         -4.5963739182734699E-008
  0.24921875000000004         -4.6703961720764664E-008
  0.25312500000000004         -4.7446609361241638E-008
  0.25703125000000004         -4.8191907724717339E-008
  0.26093750000000004         -4.8939932878903288E-008
  0.26484375000000004         -4.9690617361512833E-008
  0.26875000000000004         -5.0443769967948119E-008
  0.27265625000000004         -5.1199106241007920E-008
  0.27656250000000004         -5.1956262713471379E-008
  0.28046875000000004         -5.2714838861833770E-008
  0.28437500000000004         -5.3474413473105973E-008
  0.28828125000000004         -5.4234543852188922E-008
  0.29218750000000004         -5.4994792932310183E-008
  0.29609375000000004         -5.5754718831036321E-008
  0.30000000000000004         -5.6513885408599924E-008
  0.30390625000000004         -5.7271838465378628E-008
  0.30781250000000004         -5.8028103550568198E-008
  0.31171875000000004         -5.8782182929307893E-008
  0.31562500000000004         -5.9533559984057921E-008
  0.31953125000000004         -6.0281689800743808E-008
  0.32343750000000004         -6.1026024112917275E-008
  0.32734375000000004         -6.1766020339630544E-008
  0.33125000000000004         -6.2501191345389188E-008
  0.33515625000000004         -6.3231105967224622E-008
  0.33906250000000004         -6.3955428722196924E-008
  0.34296875000000004         -6.4673941876559151E-008
  0.34687500000000004         -6.5386577140218816E-008
  0.35078125000000004         -6.6093428593512412E-008
  0.35468750000000004         -6.6794749316892786E-008
  0.35859375000000004         -6.7490942413716799E-008
  0.36250000000000004         -6.8182539482299360E-008
  0.36640625000000004         -6.8870161856565028E-008
  0.37031250000000004         -6.9554487628728742E-008
  0.37421875000000004         -7.0236202436591459E-008
  0.37812500000000004         -7.0915958321692622E-008
  0.38203125000000004         -7.1594329894084755E-008
  0.38593750000000004         -7.2271776830521888E-008
  0.38984375000000004         -7.2948623786768150E-008
  0.39375000000000004         -7.3625065249907380E-008
  0.39765625000000004         -7.4301141242795397E-008
  0.40156250000000004         -7.4976766362839237E-008
  0.40546875000000004         -7.5651765273374434E-008
  0.40937500000000004         -7.6325892383161399E-008
  0.41328125000000004         -7.6998876601685368E-008
  0.41718750000000004         -7.7670415397128290E-008
  0.42109375000000004         -7.8340249225340571E-008
  0.42500000000000004         -7.9008136712089182E-008
  0.42890625000000004         -7.9673883609736444E-008
  0.43281250000000004         -8.0337313930803325E-008
  0.43671875000000004         -8.0998266708687275E-008
  0.44062500000000004         -8.1656561111536819E-008
  0.44453125000000004         -8.2311963152862634E-008
  0.44843750000000004         -8.2964164128745819E-008
  0.45234375000000004         -8.3612766542577470E-008
  0.45625000000000004         -8.4257262172504330E-008
  0.46015625000000004         -8.4897042966388667E-008
  0.46406250000000004         -8.5531400210843886E-008
  0.46796875000000004         -8.6159569132230191E-008
  0.47187500000000004         -8.6780751445115812E-008
  0.47578125000000004         -8.7394194826806843E-008
  0.47968750000000004         -8.7999202911613423E-008
  0.48359375000000004         -8.8595238009424072E-008
  0.48750000000000004         -8.9181917231133494E-008
  0.49140625000000004         -8.9759086966451594E-008
  0.49531250000000004         -9.0326827157446808E-008
  0.49921875000000004         -9.0885437835083648E-008
  0.50312500000000004         -9.1435455151517353E-008
  0.50703125000000004         -9.1977601672783076E-008
  0.51093750000000004         -9.2512730861623688E-008
  0.51484375000000004         -9.3041801624357779E-008
  0.51875000000000004         -9.3565788468126619E-008
  0.52265625000000004         -9.4085647504133658E-008
  0.52656250000000004         -9.4602255046018639E-008
  0.53046875000000004         -9.5116354877745095E-008
  0.53437500000000004         -9.5628560815063337E-008
  0.53828125000000004         -9.6139306816855846E-008
  0.54218750000000004         -9.6648866879753934E-008
  0.54609375000000004         -9.7157354969757620E-008
  0.55000000000000004         -9.7664753953468592E-008
  0.55390625000000004         -9.8170938414399275E-008
  0.55781250000000004         -9.8675701303523500E-008
  0.56171875000000004         -9.9178749954615429E-008
  0.56562500000000004         -9.9679751354674665E-008
  0.56953125000000004         -1.0017834617971005E-007
  0.57343750000000004         -1.0067411171894445E-007
  0.57734375000000004         -1.0116658813214545E-007
  0.58125000000000004         -1.0165522250401963E-007
  0.58515625000000004         -1.0213939990372428E-007
  0.58906250000000004         -1.0261839859646922E-007
  0.59296875000000004         -1.0309140580471883E-007
  0.59687500000000004         -1.0355751340522166E-007
  0.60078125000000004         -1.0401573459975311E-007
  0.60468750000000004         -1.0446505707364213E-007
  0.60859375000000004         -1.0490445352712381E-007
  0.61250000000000004         -1.0533296737000791E-007
  0.61640625000000004         -1.0574975765832136E-007
  0.62031250000000004         -1.0615415381180727E-007
  0.62421875000000004         -1.0654570909658293E-007
  0.62812500000000004         -1.0692424770316229E-007
  0.63203125000000004         -1.0728988203805452E-007
  0.63593750000000004         -1.0764301713486243E-007
  0.63984375000000004         -1.0798435614328271E-007
  0.64375000000000004         -1.0831485675962274E-007
  0.64765625000000004         -1.0863568724027250E-007
  0.65156250000000004         -1.0894816354585797E-007
  0.65546875000000004         -1.0925367528984789E-007
  0.65937500000000004         -1.0955361479341878E-007
  0.66328125000000004         -1.0984929546743258E-007
  0.66718750000000004         -1.1014192689994424E-007
  0.67109375000000004         -1.1043252926234218E-007
  0.67500000000000004         -1.1072190236308007E-007
  0.67890625000000004         -1.1101063558189349E-007
  0.68281250000000004         -1.1129906493397911E-007
  0.68671875000000004         -1.1158730425949246E-007
  0.69062500000000004         -1.1187526684647623E-007
  0.69453125000000004         -1.1216269219918171E-007
  0.69843750000000004         -1.1244917830782709E-007
  0.70234375000000004         -1.1273421098465323E-007
  0.70625000000000004         -1.1301720915201891E-007
  0.71015625000000004         -1.1329751209476647E-007
  0.71406250000000004         -1.1357443413571619E-007
  0.71796875000000004         -1.1384723066726521E-007
  0.72187500000000004         -1.1411512977983097E-007
  0.72578125000000004         -1.1437733036233033E-007
  0.72968750000000004         -1.1463297098660565E-007
  0.73359375000000004         -1.1488116490333481E-007
  0.73750000000000004         -1.1512098439024810E-007
  0.74140625000000004         -1.1535148891964654E-007
  0.74531250000000004         -1.1557173164755558E-007
  0.74921875000000004         -1.1578079109621039E-007
  0.75312500000000004         -1.1597783267508053E-007
  0.75703125000000004         -1.1616210796215982E-007
  0.76093750000000004         -1.1633302087325924E-007
  0.76484375000000004         -1.1649015457134115E-007
  0.76875000000000004         -1.1663329650566470E-007
  0.77265625000000004         -1.1676247286441891E-007
  0.77656250000000004         -1.1687795352057841E-007
  0.78046875000000004         -1.1698023579811217E-007
  0.78437500000000004         -1.1707003041592750E-007
  0.78828125000000004         -1.1714821097538207E-007
  0.79218750000000004         -1.1721578768779784E-007
  0.79609375000000004         -1.1727384802354226E-007
  0.80000000000000004         -1.1732351588137086E-007
  0.80390625000000004         -1.1736586932436446E-007
  0.80781250000000004         -1.1740191608873577E-007
  0.81171875000000004         -1.1743253276842881E-007
  0.81562500000000004         -1.1745845969899930E-007
  0.81953125000000004         -1.1748026034084520E-007
  0.82343750000000004         -1.1749833055222475E-007
  0.82734375000000004         -1.1751290021795658E-007
  0.83125000000000004         -1.1752406058357621E-007
  0.83515625000000004         -1.1753177500297184E-007
  0.83906250000000004         -1.1753592696569493E-007
  0.84296875000000004         -1.1753632045870383E-007
  0.84687500000000004         -1.1753271305750492E-007
  0.85078125000000004         -1.1752482441295298E-007
  0.85468750000000004         -1.1751235715637758E-007
  0.85859375000000004         -1.1749499822038296E-007
  0.86250000000000004         -1.1747239233348211E-007
  0.86640625000000004         -1.1744415364913709E-007
  0.87031250000000004         -1.1740983826880354E-007
  0.87421875000000004         -1.1736891965826032E-007
  0.87812500000000004         -1.1732079184475237E-007
  0.88203125000000004         -1.1726474601199235E-007
  0.88593750000000004         -1.1719998985331048E-007
  0.88984375000000004         -1.1712561663962026E-007
  0.89375000000000004         -1.1704067364195533E-007
  0.89765625000000004         -1.1694416073953249E-007
  0.90156250000000004         -1.1683508924289568E-007
  0.90546875000000004         -1.1671250931525874E-007
  0.90937500000000004         -1.1657558572398732E-007
  0.91328125000000004         -1.1642362252201955E-007
  0.91718750000000004         -1.1625613006825042E-007
  0.92109375000000004         -1.1607281765349003E-007
  0.92500000000000004         -1.1587365728193535E-007