  -1.2000000000000000         -4.7504116746869306E-011
  -1.1960937500000000         -5.0356322068172230E-011
  -1.1921875000000000         -5.1892454174757779E-011
  -1.1882812500000000         -5.1940420955988629E-011
  -1.1843750000000000         -5.0314382289264932E-011
  -1.1804687500000000         -4.6847301560852868E-011
  -1.1765625000000000         -4.1409017420035766E-011
  -1.1726562500000000         -3.3958166811752808E-011
  -1.1687500000000000         -2.4561622501709918E-011
  -1.1648437500000000         -1.3430369166789164E-011
  -1.1609375000000000         -9.2577579323387273E-013
  -1.1570312500000000          1.2443149357163846E-011
  -1.1531250000000000          2.6030801237082071E-011
  -1.1492187500000000          3.9098160872608335E-011
  -1.1453125000000000          5.0841856803565286E-011
  -1.1414062500000000          6.0484026323044847E-011
  -1.1375000000000000          6.7320202096957969E-011
  -1.1335937500000000          7.0793968651322840E-011
  -1.1296875000000000          7.0555372381511587E-011
  -1.1257812500000000          6.6503827971208469E-011
  -1.1218750000000000          5.8827107019011721E-011
  -1.1179687500000000          4.7996105904164648E-011
  -1.1140625000000000          3.4747484204855897E-011
  -1.1101562500000000          2.0030323193963966E-011
  -1.1062500000000000          4.9250714893105099E-012
  -1.1023437500000000         -9.4279283723039426E-012
  -1.0984375000000000         -2.1955133986909841E-011
  -1.0945312500000000         -3.1734614937095149E-011
  -1.0906250000000000         -3.8092876949034218E-011
  -1.0867187500000000         -4.0677180094708460E-011
  -1.0828125000000000         -3.9499413157988346E-011
  -1.0789062500000000         -3.4934431646788891E-011
  -1.0750000000000000         -2.7686364703228879E-011
  -1.0710937500000000         -1.8725994249493768E-011
  -1.0671875000000000         -9.2060364026160631E-012
  -1.0632812500000000         -3.2750373742021757E-013
  -1.0593750000000000          6.7738407297331462E-012
  -1.0554687500000000          1.1150624466081813E-011
  -1.0515625000000000          1.2143631578035709E-011
  -1.0476562500000000          9.4668572150752850E-012
  -1.0437500000000000          3.2258457996459603E-012
  -1.0398437500000000         -6.0686662208510265E-012
  -1.0359375000000000         -1.7571667249821751E-011
  -1.0320312500000000         -3.0185695838172645E-011
  -1.0281250000000000         -4.2650012637281803E-011
  -1.0242187500000000         -5.3706112308756491E-011
  -1.0203125000000000         -6.2209129871674056E-011
  -1.0164062500000000         -6.7269348750534331E-011
  -1.0125000000000000         -6.8325604235194648E-011
  -1.0085937500000000         -6.5211344026958721E-011
  -1.0046875000000000         -5.8180659895508961E-011
  -1.0007812500000000         -4.7860179390078948E-011
 -0.99687499999999996         -3.5181729346724125E-011
 -0.99296874999999996         -2.1258965619133599E-011
 -0.98906249999999996         -7.2947868689090035E-012
 -0.98515624999999996          5.5778103123099009E-012
 -0.98124999999999996          1.6404855445039976E-011
 -0.97734374999999996          2.4511197652832389E-011
 -0.97343749999999996          2.9549856413730227E-011
 -0.96953124999999996          3.1540168369756876E-011
 -0.96562499999999996          3.0817257126022333E-011
 -0.96171874999999996          2.7999679644884112E-011
 -0.95781249999999996          2.3865543969105706E-011
 -0.95390624999999996          1.9239409985949243E-011
 -0.94999999999999996          1.4892030371760292E-011
 -0.94609374999999996          1.1407218514273132E-011
 -0.94218749999999996          9.1288334771234110E-012
 -0.93828124999999996          8.1159835444611226E-012
 -0.93437499999999996          8.1335256670448901E-012
 -0.93046874999999996          8.6969120625875231E-012
 -0.92656249999999996          9.1537646315848761E-012
 -0.92265624999999996          8.7892054413873030E-012
 -0.91874999999999996          6.9503124660866736E-012
 -0.91484374999999996          3.1498572729584331E-012
 -0.91093749999999996         -2.8320385353070732E-012
 -0.90703124999999996         -1.0896261508235324E-011
 -0.90312499999999996         -2.0596423035141313E-011
 -0.89921874999999996         -3.1181600899422698E-011
 -0.89531249999999996         -4.1657591303119263E-011
 -0.89140624999999996         -5.0904335343368432E-011
 -0.88749999999999996         -5.7799801662286647E-011
 -0.88359374999999996         -6.1366517941646373E-011
 -0.87968749999999996         -6.0900078368203653E-011
 -0.87578124999999996         -5.6071847827570738E-011
 -0.87187499999999996         -4.6976707980336923E-011
 -0.86796874999999996         -3.4168811599646738E-011
 -0.86406249999999996         -1.8601806449860620E-011
 -0.86015624999999996         -1.5323357420099079E-012
 -0.85624999999999996          1.5587935673773992E-011
 -0.85234374999999996          3.1285194152945709E-011
 -0.84843749999999996          4.4213391970694285E-011
 -0.84453124999999996          5.3297189188848422E-011
 -0.84062499999999996          5.7857011516731270E-011
 -0.83671874999999996          5.7691687321067190E-011
 -0.83281249999999996          5.3081305963299570E-011
 -0.82890624999999996          4.4758834298606367E-011
 -0.82499999999999996          3.3824485418010918E-011
 -0.82109374999999996          2.1613655477490532E-011
 -0.81718749999999996          9.5504002262942480E-012
 -0.81328124999999996         -1.0296695818133122E-012
 -0.80937499999999996         -9.0073277341475812E-012
 -0.80546874999999996         -1.3626718551468477E-011
 -0.80156249999999996         -1.4554360417955649E-011
 -0.79765624999999996         -1.1918598446380681E-011
 -0.79374999999999996         -6.2901529586156470E-012
 -0.78984374999999996          1.4203508434682695E-012
 -0.78593749999999996          1.0060059868522570E-011
 -0.78203124999999996          1.8380497333489756E-011
 -0.77812499999999996          2.5190190905077673E-011
 -0.77421874999999996          2.9505966212099411E-011
 -0.77031249999999996          3.0657322618285066E-011
 -0.76640624999999996          2.8358128174312593E-011
 -0.76249999999999996          2.2735823622539376E-011
 -0.75859374999999996          1.4306360030093373E-011
 -0.75468749999999996          3.8960560389938114E-012
 -0.75078124999999996         -7.4558768403306744E-012
 -0.74687499999999996         -1.8621318466611156E-011
 -0.74296874999999996         -2.8525880802293000E-011
 -0.73906249999999996         -3.6282572893509080E-011
 -0.73515624999999996         -4.1270664643222551E-011
 -0.73124999999999996         -4.3199770025999437E-011
 -0.72734374999999996         -4.2131478012142554E-011
 -0.72343749999999996         -3.8454047698223676E-011
 -0.71953124999999996         -3.2815302853910300E-011
 -0.71562499999999996         -2.6014876603053909E-011
 -0.71171874999999996         -1.8908937780719716E-011
 -0.70781249999999996         -1.2291604861580142E-011
 -0.70390624999999996         -6.7851307577895487E-012
 -0.69999999999999996         -2.7884479431496899E-012
 -0.69609374999999996         -4.1957200178117557E-013
 -0.69218749999999996          4.7215728410725342E-013
 -0.68828124999999996          2.7280272679502935E-013
 -0.68437499999999996         -4.6309617389490369E-013
 -0.68046874999999996         -1.1030751296104783E-012
 -0.67656249999999996         -1.0420198212804785E-012
 -0.67265624999999996          2.0923954120402710E-013
 -0.66874999999999996          2.9437185242014987E-012
 -0.66484374999999996          7.1971062052599204E-012
 -0.66093749999999996          1.2742276270541022E-011
 -0.65703124999999996          1.9099602593172284E-011
 -0.65312499999999996          2.5586863734679736E-011
 -0.64921874999999996          3.1399165827941178E-011
 -0.64531249999999996          3.5710574104437220E-011
 -0.64140624999999996          3.7773099107458518E-011
 -0.63749999999999996          3.7008804384640081E-011
 -0.63359374999999996          3.3099662759185545E-011
 -0.62968749999999996          2.6030012642678213E-011
 -0.62578124999999996          1.6099614289064312E-011
 -0.62187499999999996          3.9096157677556407E-012
 -0.61796874999999996         -9.6997733254181401E-012
 -0.61406249999999996         -2.3734491651722324E-011
 -0.61015624999999996         -3.7124007284354001E-011
 -0.60624999999999996         -4.8833743168430785E-011
 -0.60234374999999996         -5.7951131088191507E-011
 -0.59843749999999996         -6.3804642722556514E-011
 -0.59453124999999996         -6.5987107653223729E-011
 -0.59062499999999996         -6.4408150133428968E-011
 -0.58671874999999996         -5.9289142035535826E-011
 -0.58281249999999996         -5.1128919394427011E-011
 -0.57890624999999996         -4.0649083456886494E-011
 -0.57499999999999996         -2.8715557567593636E-011
 -0.57109374999999996         -1.6253435390523575E-011
 -0.56718749999999996         -4.1711431595612371E-012
 -0.56328124999999996          6.7308526165368664E-012
 -0.55937499999999996          1.5823162184024913E-011
 -0.55546874999999996          2.2687737259957318E-011
 -0.55156249999999996          2.7141616623913810E-011
 -0.54765624999999996          2.9236510452574562E-011
 -0.54374999999999996          2.9225922252590544E-011
 -0.53984374999999996          2.7524887250758400E-011
 -0.53593749999999996          2.4650398783897715E-011
 -0.53203124999999996          2.1152263500664769E-011
 -0.52812499999999996          1.7566013115329330E-011
 -0.52421874999999996          1.4355035444056789E-011
 -0.52031249999999996          1.1876566417299801E-011
 -0.51640624999999996          1.0343289144413197E-011
 -0.51249999999999996          9.8378142374393998E-012
 -0.50859374999999996          1.0309550752467624E-011
 -0.50468749999999996          1.1571369027451036E-011
 -0.50078124999999996          1.3361891632789295E-011
 -0.49687499999999996          1.5363161134994617E-011
 -0.49296874999999996          1.7256232439962831E-011
 -0.48906249999999996          1.8748385276023138E-011
 -0.48515624999999996          1.9596058842855027E-011
 -0.48124999999999996          1.9635432649388359E-011
 -0.47734374999999996          1.8788666823721802E-011
 -0.47343749999999996          1.7095225973613302E-011
 -0.46953124999999996          1.4675739800986188E-011
 -0.46562499999999996          1.1720084972170361E-011
 -0.46171874999999996          8.4654124131377403E-012
 -0.45781249999999996          5.1676193166040156E-012
 -0.45390624999999996          2.0651793742856741E-012
 -0.44999999999999996         -6.5165140087594262E-013
 -0.44609374999999996         -2.8519840129064712E-012
 -0.44218749999999996         -4.4713094507518490E-012
 -0.43828124999999996         -5.5268091793521461E-012
 -0.43437499999999996         -6.1113629288586962E-012
 -0.43046874999999996         -6.3839681485599679E-012
 -0.42656249999999996         -6.5511107694925224E-012
 -0.42265624999999996         -6.8030186004974500E-012
 -0.41874999999999996         -7.3189750768302639E-012
 -0.41484374999999996         -8.2263830796361006E-012
 -0.41093749999999996         -9.5610895890178067E-012
 -0.40703124999999996         -1.1248186851403075E-011
 -0.40312499999999996         -1.3121493020705130E-011
 -0.39921874999999996         -1.4902621770499576E-011
 -0.39531249999999996         -1.6236333786770339E-011
 -0.39140624999999996         -1.6723424681647965E-011
 -0.38749999999999996         -1.5967079222562241E-011
 -0.38359374999999996         -1.3624259283599717E-011
 -0.37968749999999996         -9.4537717429486648E-012
 -0.37578124999999996         -3.3786768889810771E-012
 -0.37187499999999996          4.4880995952367956E-012
 -0.36796874999999996          1.3841281750573373E-011
 -0.36406249999999996          2.4170656407798623E-011
 -0.36015624999999996          3.4783566579881189E-011
 -0.35624999999999996          4.4864453443493130E-011
 -0.35234374999999996          5.3526292033010788E-011
 -0.34843749999999996          5.9913412110428426E-011
 -0.34453124999999996          6.3282526962562663E-011
 -0.34062499999999996          6.3082730292661544E-011
 -0.33671874999999996          5.9019907978259954E-011
 -0.33281249999999996          5.1102236406124382E-011
 -0.32890624999999996          3.9662830929061457E-011
 -0.32499999999999996          2.5342394296880355E-011
 -0.32109374999999996          9.0630491474850007E-012
 -0.31718749999999996         -8.0633254153804859E-012
 -0.31328124999999996         -2.4826252627100051E-011
 -0.30937499999999996         -4.0042360875041021E-011
 -0.30546874999999996         -5.2627698950456747E-011
 -0.30156249999999996         -6.1728897601935680E-011
 -0.29765624999999996         -6.6795417506373917E-011
 -0.29374999999999996         -6.7624884880245073E-011
 -0.28984374999999996         -6.4386403399003617E-011
 -0.28593749999999996         -5.7578801447776372E-011
 -0.28203124999999996         -4.8012612576209381E-011
 -0.27812499999999996         -3.6664542280144881E-011
 -0.27421874999999996         -2.4604366790904443E-011
 -0.27031249999999996         -1.2875310698171783E-011
 -0.26640624999999996         -2.3976645535524591E-012
 -0.26249999999999996          6.1365746036240489E-012
 -0.25859374999999996          1.2313358511643632E-011
 -0.25468749999999996          1.6024929048904044E-011
 -0.25078124999999996          1.7457888351616115E-011
 -0.24687499999999996          1.7067382782158147E-011
 -0.24296874999999996          1.5466923865862331E-011
 -0.23906249999999996          1.3353078101800405E-011
 -0.23515624999999996          1.1405088051234660E-011
 -0.23124999999999996          1.0177809311515313E-011
 -0.22734374999999996          1.0041614844889521E-011
 -0.22343749999999996          1.1137415075012057E-011
 -0.21953124999999996          1.3343600254710698E-011
 -0.21562499999999996          1.6300232397691148E-011
 -0.21171874999999996          1.9492288735089288E-011
 -0.20781249999999996          2.2314217379208482E-011
 -0.20390624999999996          2.4143406383442447E-011
 -0.19999999999999996          2.4469355983805255E-011
 -0.19609374999999996          2.2972769336213878E-011
 -0.19218749999999996          1.9571038160759351E-011
 -0.18828124999999996          1.4436151215249416E-011
 -0.18437499999999996          8.0191683432426355E-012
 -0.18046874999999996          9.9003151710185620E-013
 -0.17656249999999996         -5.8396549067012346E-012
 -0.17265624999999996         -1.1619005507947969E-011
 -0.16874999999999996         -1.5566302942024351E-011
 -0.16484374999999996         -1.7090462420229711E-011
 -0.16093749999999996         -1.5857759045929575E-011
 -0.15703124999999996         -1.1871350635709597E-011
 -0.15312499999999996         -5.4912562003626646E-012
 -0.14921874999999996          2.6216261168550173E-012
 -0.14531249999999996          1.1538776344739546E-011
 -0.14140624999999996          2.0192861670698036E-011
 -0.13749999999999996          2.7496371962701549E-011
 -0.13359374999999996          3.2457486259918204E-011
 -0.12968749999999996          3.4307060469102706E-011
 -0.12578124999999996          3.2628069582401531E-011
 -0.12187499999999996          2.7382131224221079E-011
 -0.11796874999999996          1.8938887350005267E-011
 -0.11406249999999996          8.0614950385194483E-012
 -0.11015624999999996         -4.1700937869712973E-012
 -0.10624999999999996         -1.6474810526339945E-011
 -0.10234374999999996         -2.7513246803433062E-011
  -9.8437499999999956E-002    -3.6047402904974345E-011
  -9.4531249999999956E-002    -4.1040034460690159E-011
  -9.0624999999999956E-002    -4.1801699989400895E-011
  -8.6718749999999956E-002    -3.8075302822835570E-011
  -8.2812499999999956E-002    -3.0038187364198474E-011
  -7.8906249999999956E-002    -1.8302333514952670E-011
  -7.4999999999999956E-002    -3.8555757271803806E-012
  -7.1093749999999956E-002     1.2048452683410109E-011
  -6.7187499999999956E-002     2.8023496798558605E-011
  -6.3281249999999956E-002     4.2694884475648593E-011
  -5.9374999999999956E-002     5.4851693522589057E-011
  -5.5468749999999956E-002     6.3546906374000447E-011
  -5.1562499999999956E-002     6.8200700125187528E-011
  -4.7656249999999956E-002     6.8638877153818603E-011
  -4.3749999999999956E-002     6.5096852563451282E-011
  -3.9843749999999956E-002     5.8160214346381316E-011
  -3.5937499999999956E-002     4.8683894422356682E-011
  -3.2031249999999956E-002     3.7685298829831760E-011
  -2.8124999999999956E-002     2.6219729211068471E-011
  -2.4218749999999956E-002     1.5268839753152605E-011
  -2.0312499999999956E-002     5.6206534486029112E-012
  -1.6406249999999956E-002    -2.1950684347899477E-012
  -1.2499999999999956E-002    -7.9443142498646281E-012
  -8.5937499999999556E-003    -1.1680857545920404E-011
  -4.6874999999999556E-003    -1.3705776122838814E-011
  -7.8124999999995559E-004    -1.4514983093911234E-011
   3.1250000000000444E-003    -1.4673729230229652E-011
   7.0312500000000444E-003    -1.4736412828760556E-011
   1.0937500000000044E-002    -1.5161818523710217E-011
   1.4843750000000044E-002    -1.6255574262327828E-011
   1.8750000000000044E-002    -1.8094734498627984E-011
   2.2656250000000044E-002    -2.0532940037160207E-011
   2.6562500000000044E-002    -2.3226435356979743E-011
   3.0468750000000044E-002    -2.5683013012059915E-011
   3.4375000000000044E-002    -2.7325097085204761E-011
   3.8281250000000044E-002    -2.7582198191745244E-011
   4.2187500000000044E-002    -2.6007307463471060E-011
   4.6093750000000044E-002    -2.2295729273850821E-011
   5.0000000000000044E-002    -1.6398778825736063E-011
   5.3906250000000044E-002    -8.5153208469707339E-012
   5.7812500000000044E-002     8.9183385298003736E-013
   6.1718750000000044E-002     1.1160670876177145E-011
   6.5625000000000044E-002     2.1466797159630339E-011
   6.9531250000000044E-002     3.0930401677743800E-011
   7.3437500000000044E-002     3.8699729233043731E-011
   7.7343750000000044E-002     4.4041031218771473E-011
   8.1250000000000044E-002     4.6433803654809995E-011
   8.5156250000000044E-002     4.5614568017928324E-011
   8.9062500000000044E-002     4.1621855407752077E-011
   9.2968750000000044E-002     3.4798586921319851E-011
   9.6875000000000044E-002     2.5755295296577109E-011
  0.10078125000000004          1.5321829886520121E-011
  0.10468750000000004          4.4316658682180672E-012
  0.10859375000000004         -5.9442573505448289E-012
  0.11250000000000004         -1.4898568328405074E-011
  0.11640625000000004         -2.1689807939856574E-011
  0.12031250000000004         -2.5807591093924046E-011
  0.12421875000000004         -2.7004596307410486E-011
  0.12812500000000004         -2.5328524011624859E-011
  0.13203125000000004         -2.1118040167506917E-011
  0.13593750000000004         -1.4946064286327538E-011
  0.13984375000000004         -7.5547322014020781E-012
  0.14375000000000004          2.2038596715034915E-013
  0.14765625000000004          7.5446340219744119E-012
  0.15156250000000004          1.3646885949612926E-011
  0.15546875000000004          1.7923313459065786E-011
  0.15937500000000004          1.9959118685619439E-011
  0.16328125000000004          1.9567205265529922E-011
  0.16718750000000004          1.6826197048268826E-011
  0.17109375000000004          1.2043850887263228E-011
  0.17500000000000004          5.7140614661711718E-012
  0.17890625000000004         -1.5175692660098367E-012
  0.18281250000000004         -8.9471830730487928E-012
  0.18671875000000004         -1.5873564791809651E-011
  0.19062500000000004         -2.1632122352635898E-011
  0.19453125000000004         -2.5671334157483335E-011
  0.19843750000000004         -2.7624213788150447E-011
  0.20234375000000004         -2.7295749929678023E-011
  0.20625000000000004         -2.4699046753092951E-011
  0.21015625000000004         -2.0036428572478020E-011
  0.21406250000000004         -1.3667355365770106E-011
  0.21796875000000004         -6.0687553339390479E-012
  0.22187500000000004          2.1881287288580277E-012
  0.22578125000000004          1.0535041280648399E-011
  0.22968750000000004          1.8430317928890382E-011
  0.23359375000000004          2.5388849106555426E-011
  0.23750000000000004          3.1038048968692004E-011
  0.24140625000000004          3.5162880952161477E-011
  0.24531250000000004          3.7671175093636145E-011
  0.24921875000000004          3.8612107885851155E-011
  0.25312500000000004          3.8172045974875417E-011
  0.25703125000000004          3.6620090454318339E-011
  0.26093750000000004          3.4286337466068768E-011
  0.26484375000000004          3.1507316338801932E-011
  0.26875000000000004          2.8588544481868868E-011
  0.27265625000000004          2.5768674924462742E-011
  0.27656250000000004          2.3204663598861255E-011
  0.28046875000000004          2.0953772670757268E-011
  0.28437500000000004          1.8962536290689451E-011
  0.28828125000000004          1.7087957313307009E-011
  0.29218750000000004          1.5112670145560963E-011
  0.29609375000000004          1.2815853698770940E-011
  0.30000000000000004          9.9738844467730493E-012
  0.30390625000000004          6.4272427030483281E-012
  0.30781250000000004          2.1220885530208574E-012
  0.31171875000000004         -2.8634074389239453E-012
  0.31562500000000004         -8.3099811915988875E-012
  0.31953125000000004         -1.3883905761483714E-011
  0.32343750000000004         -1.9130758017553992E-011
  0.32734375000000004         -2.3551414678765099E-011
  0.33125000000000004         -2.6632211404428360E-011
  0.33515625000000004         -2.7897745028428856E-011
  0.33906250000000004         -2.6982869953454827E-011
  0.34296875000000004         -2.3691200668764764E-011
  0.34687500000000004         -1.8045733060767244E-011
  0.35078125000000004         -1.0298861178944558E-011
  0.35468750000000004         -9.2070542084049160E-013
  0.35859375000000004          9.4193321191048223E-012
  0.36250000000000004          1.9891644700018235E-011
  0.36640625000000004          2.9606629530783970E-011
  0.37031250000000004          3.7702275659781265E-011
  0.37421875000000004          4.3424872116215269E-011
  0.37812500000000004          4.6207947632815921E-011
  0.38203125000000004          4.5740128270460361E-011
  0.38593750000000004          4.2037783513766102E-011
  0.38984375000000004          3.5410525462842950E-011
  0.39375000000000004          2.6478985168386383E-011
  0.39765625000000004          1.6096939070200290E-011
  0.40156250000000004          5.2661207631339663E-012
  0.40546875000000004         -4.9750088500616035E-012
  0.40937500000000004         -1.3648931727859992E-011
  0.41328125000000004         -1.9937071704509402E-011
  0.41718750000000004         -2.3301380773623952E-011
  0.42109375000000004         -2.3507232426095813E-011
  0.42500000000000004         -2.0697797094835215E-011
  0.42890625000000004         -1.5353841370246651E-011
  0.43281250000000004         -8.2520150837375910E-012
  0.43671875000000004         -3.6318293852056574E-013
  0.44062500000000004          7.2391347864083470E-012
  0.44453125000000004          1.3502593124959683E-011
  0.44843750000000004          1.7549966577566914E-011
  0.45234375000000004          1.8762466086817006E-011
  0.45625000000000004          1.6861449580469546E-011
  0.46015625000000004          1.1948581863201071E-011
  0.46406250000000004          4.4689042994464733E-012
  0.46796875000000004         -4.8134496818115634E-012
  0.47187500000000004         -1.4899343722951607E-011
  0.47578125000000004         -2.4696063608222539E-011
  0.47968750000000004         -3.3133620923763321E-011
  0.48359375000000004         -3.9281424536481971E-011
  0.48750000000000004         -4.2476980111056842E-011
  0.49140625000000004         -4.2377259587908353E-011
  0.49531250000000004         -3.9021316768079755E-011
  0.49921875000000004         -3.2807910390061092E-011
  0.50312500000000004         -2.4452687313817510E-011
  0.50703125000000004         -1.4884584902377435E-011
  0.51093750000000004         -5.1486868450348978E-012
  0.51484375000000004          3.7312819931047789E-012
  0.51875000000000004          1.0871570453357142E-011
  0.52265625000000004          1.5642633873338071E-011
  0.52656250000000004          1.7721504185527467E-011
  0.53046875000000004          1.7142639152274293E-011
  0.53437500000000004          1.4248584157429627E-011
  0.53828125000000004          9.6640615405168097E-012
  0.54218750000000004          4.2080339087841920E-012
  0.54609375000000004         -1.2621340424827610E-012
  0.55000000000000004         -5.9190541277649141E-012
  0.55390625000000004         -9.1128991325529494E-012
  0.55781250000000004         -1.0423962443036213E-011
  0.56171875000000004         -9.7470579294689231E-012
  0.56562500000000004         -7.2735420890053695E-012
  0.56953125000000004         -3.4710628087459421E-012
  0.57343750000000004          9.8936180892948698E-013
  0.57734375000000004          5.3561911513013480E-012
  0.58125000000000004          8.9172179105897890E-012
  0.58515625000000004          1.1109132782229753E-011
  0.58906250000000004          1.1623609367617039E-011
  0.59296875000000004          1.0445449289183195E-011
  0.59687500000000004          7.9238780593032176E-012
  0.60078125000000004          4.7220758070309258E-012
  0.60468750000000004          1.7444176178606512E-012
  0.60859375000000004          4.4278718265200022E-014
  0.61250000000000004          6.7801418007303997E-013
  0.61640625000000004          4.5430708769594302E-012
  0.62031250000000004          1.2255323702481468E-011
  0.62421875000000004          2.4014414228946066E-011
  0.62812500000000004          3.9547489234266946E-011
  0.63203125000000004          5.8055818344374412E-011
  0.63593750000000004          7.8236850814176232E-011
  0.63984375000000004          9.8356873847235847E-011
  0.64375000000000004          1.1634400750666128E-010
  0.64765625000000004          1.2994766223367008E-010
  0.65156250000000004          1.3691863140973435E-010
  0.65546875000000004          1.3513862779278799E-010
  0.65937500000000004          1.2274569741168979E-010
  0.66328125000000004          9.8229778386225253E-011
  0.66718750000000004          6.0491387011023004E-011
  0.67109375000000004          8.8423238032409930E-012
  0.67500000000000004         -5.7051155778467843E-011
  0.67890625000000004         -1.3725575536654478E-010
  0.68281250000000004         -2.3170283450476692E-010
  0.68671875000000004         -3.4029026165240235E-010
  0.69062500000000004         -4.6302709399804635E-010
  0.69453125000000004         -6.0011148817521137E-010
  0.69843750000000004         -7.5204421405283413E-010
  0.70234375000000004         -9.1960576404997019E-010
  0.70625000000000004         -1.1038932408136491E-009
  0.71015625000000004         -1.3062067960617480E-009
  0.71406250000000004         -1.5280280124732462E-009
  0.71796875000000004         -1.7708408286198101E-009
  0.72187500000000004         -2.0360588147190418E-009
  0.72578125000000004         -2.3248877967302323E-009
  0.72968750000000004         -2.6382263049840671E-009
  0.73359375000000004         -2.9765929092856633E-009
  0.73750000000000004         -3.3401322225568422E-009
  0.74140625000000004         -3.7285588392383048E-009
  0.74531250000000004         -4.1412510307493212E-009
  0.74921875000000004         -4.5773164503124834E-009
  0.75312500000000004         -5.0356843674220539E-009
  0.75703125000000004         -5.5151586084421906E-009
  0.76093750000000004         -6.0145626621085088E-009
  0.76484375000000004         -6.5327938117712418E-009
  0.76875000000000004         -7.0688721399453567E-009
  0.77265625000000004         -7.6219757941339917E-009
  0.77656250000000004         -8.1914107961341571E-009
  0.78046875000000004         -8.7765881985998008E-009
  0.78437500000000004         -9.3769666005907702E-009
  0.78828125000000004         -9.9920119311593096E-009
  0.79218750000000004         -1.0621102214487570E-008
  0.79609375000000004         -1.1263533103472778E-008
  0.80000000000000004         -1.1918424820924812E-008
  0.80390625000000004         -1.2584780567619343E-008
  0.80781250000000004         -1.3261461930724564E-008
  0.81171875000000004         -1.3947253374432983E-008
  0.81562500000000004         -1.4640948980253249E-008
  0.81953125000000004         -1.5341409039496484E-008
  0.82343750000000004         -1.6047666105524435E-008
  0.82734375000000004         -1.6758969407569452E-008
  0.83125000000000004         -1.7474851658464413E-008
  0.83515625000000004         -1.8195174081243272E-008
  0.83906250000000004         -1.8920117671685988E-008
  0.84296875000000004         -1.9650180300251794E-008
  0.84687500000000004         -2.0386098430273116E-008
  0.85078125000000004         -2.1128788481144124E-008
  0.85468750000000004         -2.1879234028480032E-008
  0.85859375000000004         -2.2638419542418553E-008
  0.86250000000000004         -2.3407190926160161E-008
  0.86640625000000004         -2.4186219058143964E-008
  0.87031250000000004         -2.4975909515256090E-008
  0.87421875000000004         -2.5776385487124749E-008
  0.87812500000000004         -2.6587454554209327E-008
  0.88203125000000004         -2.7408621438655916E-008
  0.88593750000000004         -2.8239128605178594E-008
  0.88984375000000004         -2.9078060035739103E-008
  0.89375000000000004         -2.9924373672762185E-008
  0.89765625000000004         -3.0776975937173909E-008
  0.90156250000000004         -3.1634828933680828E-008
  0.90546875000000004         -3.2496969056605852E-008
  0.90937500000000004         -3.3362624531200326E-008
  0.91328125000000004         -3.4231189526433400E-008
  0.91718750000000004         -3.5102300692620378E-008
  0.92109375000000004         -3.5975799124428130E-008
  0.92500000000000004         -3.6851742902778424E-008