   0.0000000000000000          0.0000000000000000     
   2.5000000000000001E-004     0.0000000000000000     
   5.0000000000000001E-004     0.0000000000000000     
   7.5000000000000002E-004     0.0000000000000000     
   1.0000000000000000E-003     0.0000000000000000     
   1.2500000000000000E-003     0.0000000000000000     
   1.5000000000000000E-003     0.0000000000000000     
   1.7500000000000000E-003     0.0000000000000000     
   2.0000000000000000E-003     0.0000000000000000     
   2.2500000000000003E-003     0.0000000000000000     
   2.5000000000000001E-003     0.0000000000000000     
   2.7499999999999998E-003     0.0000000000000000     
   3.0000000000000001E-003     0.0000000000000000     
   3.2500000000000003E-003     0.0000000000000000     
   3.5000000000000001E-003     0.0000000000000000     
   3.7499999999999999E-003     0.0000000000000000     
   4.0000000000000001E-003     0.0000000000000000     
   4.2500000000000003E-003     0.0000000000000000     
   4.5000000000000005E-003     0.0000000000000000     
   4.7499999999999999E-003     0.0000000000000000     
   5.0000000000000001E-003     0.0000000000000000     
   5.2500000000000003E-003     0.0000000000000000     
   5.4999999999999997E-003     0.0000000000000000     
   5.7499999999999999E-003     0.0000000000000000     
   6.0000000000000001E-003     0.0000000000000000     
   6.2500000000000003E-003     0.0000000000000000     
   6.5000000000000006E-003     0.0000000000000000     
   6.7499999999999999E-003     0.0000000000000000     
   7.0000000000000001E-003     0.0000000000000000     
   7.2500000000000004E-003     0.0000000000000000     
   7.4999999999999997E-003     0.0000000000000000     
   7.7499999999999999E-003     0.0000000000000000     
   8.0000000000000002E-003     0.0000000000000000     
   8.2500000000000004E-003     0.0000000000000000     
   8.5000000000000006E-003     0.0000000000000000     
   8.7500000000000008E-003     0.0000000000000000     
   9.0000000000000011E-003     0.0000000000000000     
   9.2499999999999995E-003     0.0000000000000000     
   9.4999999999999998E-003     0.0000000000000000     
   9.7500000000000000E-003     0.0000000000000000     
   1.0000000000000000E-002     0.0000000000000000     
   1.0250000000000000E-002     0.0000000000000000     
   1.0500000000000001E-002     0.0000000000000000     
   1.0750000000000001E-002     0.0000000000000000     
   1.0999999999999999E-002     0.0000000000000000     
   1.1250000000000000E-002     0.0000000000000000     
   1.1500000000000000E-002     0.0000000000000000     
   1.1750000000000000E-002     0.0000000000000000     
   1.2000000000000000E-002     0.0000000000000000     
   1.2250000000000000E-002     0.0000000000000000     
   1.2500000000000001E-002     0.0000000000000000     
   1.2750000000000001E-002     0.0000000000000000     
   1.3000000000000001E-002     0.0000000000000000     
   1.3250000000000000E-002     0.0000000000000000     
   1.3500000000000000E-002     0.0000000000000000     
   1.3750000000000000E-002     0.0000000000000000     
   1.4000000000000000E-002     0.0000000000000000     
   1.4250000000000001E-002     0.0000000000000000     
   1.4500000000000001E-002     0.0000000000000000     
   1.4750000000000001E-002     0.0000000000000000     
   1.4999999999999999E-002     0.0000000000000000     
   1.5250000000000000E-002     0.0000000000000000     
   1.5500000000000000E-002     0.0000000000000000     
   1.5750000000000000E-002     0.0000000000000000     
   1.6000000000000000E-002     0.0000000000000000     
   1.6250000000000001E-002     0.0000000000000000     
   1.6500000000000001E-002     0.0000000000000000     
   1.6750000000000001E-002     0.0000000000000000     
   1.7000000000000001E-002     0.0000000000000000     
   1.7250000000000001E-002     0.0000000000000000     
   1.7500000000000002E-002     0.0000000000000000     
   1.7750000000000002E-002     0.0000000000000000     
   1.8000000000000002E-002     0.0000000000000000     
   1.8249999999999999E-002     0.0000000000000000     
   1.8499999999999999E-002     0.0000000000000000     
   1.8749999999999999E-002     0.0000000000000000     
   1.9000000000000000E-002     0.0000000000000000     
   1.9250000000000000E-002     0.0000000000000000     
   1.9500000000000000E-002     0.0000000000000000     
   1.9750000000000000E-002     0.0000000000000000     
   2.0000000000000000E-002     0.0000000000000000     
   2.0250000000000001E-002     0.0000000000000000     
   2.0500000000000001E-002     0.0000000000000000     
   2.0750000000000001E-002     0.0000000000000000     
   2.1000000000000001E-002     0.0000000000000000     
   2.1250000000000002E-002     0.0000000000000000     
   2.1500000000000002E-002     0.0000000000000000     
   2.1750000000000002E-002     0.0000000000000000     
   2.1999999999999999E-002     0.0000000000000000     
   2.2249999999999999E-002     0.0000000000000000     
   2.2499999999999999E-002     0.0000000000000000     
   2.2749999999999999E-002     0.0000000000000000     
   2.3000000000000000E-002     0.0000000000000000     
   2.3250000000000000E-002     0.0000000000000000     
   2.3500000000000000E-002     0.0000000000000000     
   2.3750000000000000E-002     0.0000000000000000     
   2.4000000000000000E-002     0.0000000000000000     
   2.4250000000000001E-002     0.0000000000000000     
   2.4500000000000001E-002     0.0000000000000000     
   2.4750000000000001E-002     0.0000000000000000     
   2.5000000000000001E-002     0.0000000000000000     
   2.5250000000000002E-002     0.0000000000000000     
   2.5500000000000002E-002     0.0000000000000000     
   2.5750000000000002E-002     0.0000000000000000     
   2.6000000000000002E-002     0.0000000000000000     
   2.6249999999999999E-002     0.0000000000000000     
   2.6499999999999999E-002     0.0000000000000000     
   2.6749999999999999E-002     0.0000000000000000     
   2.7000000000000000E-002     0.0000000000000000     
   2.7250000000000000E-002     0.0000000000000000     
   2.7500000000000000E-002     0.0000000000000000     
   2.7750000000000000E-002     0.0000000000000000     
   2.8000000000000001E-002     0.0000000000000000     
   2.8250000000000001E-002     0.0000000000000000     
   2.8500000000000001E-002     0.0000000000000000     
   2.8750000000000001E-002     0.0000000000000000     
   2.9000000000000001E-002     0.0000000000000000     
   2.9250000000000002E-002     0.0000000000000000     
   2.9500000000000002E-002     0.0000000000000000     
   2.9750000000000002E-002     0.0000000000000000     
   2.9999999999999999E-002     0.0000000000000000     
   3.0249999999999999E-002     0.0000000000000000     
   3.0499999999999999E-002     0.0000000000000000     
   3.0750000000000000E-002     0.0000000000000000     
   3.1000000000000000E-002     0.0000000000000000     
   3.1250000000000000E-002     0.0000000000000000     
   3.1500000000000000E-002     0.0000000000000000     
   3.1750000000000000E-002     0.0000000000000000     
   3.2000000000000001E-002     0.0000000000000000     
   3.2250000000000001E-002     0.0000000000000000     
   3.2500000000000001E-002     0.0000000000000000     
   3.2750000000000001E-002     0.0000000000000000     
   3.3000000000000002E-002     0.0000000000000000     
   3.3250000000000002E-002     0.0000000000000000     
   3.3500000000000002E-002     0.0000000000000000     
   3.3750000000000002E-002     0.0000000000000000     
   3.4000000000000002E-002     0.0000000000000000     
   3.4250000000000003E-002     0.0000000000000000     
   3.4500000000000003E-002     0.0000000000000000     
   3.4750000000000003E-002     0.0000000000000000     
   3.5000000000000003E-002     0.0000000000000000     
   3.5250000000000004E-002     0.0000000000000000     
   3.5500000000000004E-002     0.0000000000000000     
   3.5750000000000004E-002     0.0000000000000000     
   3.6000000000000004E-002     0.0000000000000000     
   3.6249999999999998E-002     0.0000000000000000     
   3.6499999999999998E-002     0.0000000000000000     
   3.6749999999999998E-002     0.0000000000000000     
   3.6999999999999998E-002     0.0000000000000000     
   3.7249999999999998E-002     0.0000000000000000     
   3.7499999999999999E-002     0.0000000000000000     
   3.7749999999999999E-002     0.0000000000000000     
   3.7999999999999999E-002     0.0000000000000000     
   3.8249999999999999E-002     0.0000000000000000     
   3.8500000000000000E-002     0.0000000000000000     
   3.8750000000000000E-002     0.0000000000000000     
   3.9000000000000000E-002     0.0000000000000000     
   3.9250000000000000E-002     0.0000000000000000     
   3.9500000000000000E-002     0.0000000000000000     
   3.9750000000000001E-002     0.0000000000000000     
   4.0000000000000001E-002     0.0000000000000000     
   4.0250000000000001E-002     0.0000000000000000     
   4.0500000000000001E-002     0.0000000000000000     
   4.0750000000000001E-002     0.0000000000000000     
   4.1000000000000002E-002     0.0000000000000000     
   4.1250000000000002E-002     0.0000000000000000     
   4.1500000000000002E-002     0.0000000000000000     
   4.1750000000000002E-002     0.0000000000000000     
   4.2000000000000003E-002     0.0000000000000000     
   4.2250000000000003E-002     0.0000000000000000     
   4.2500000000000003E-002     0.0000000000000000     
   4.2750000000000003E-002     0.0000000000000000     
   4.3000000000000003E-002     0.0000000000000000     
   4.3250000000000004E-002     0.0000000000000000     
   4.3500000000000004E-002     0.0000000000000000     
   4.3750000000000004E-002     0.0000000000000000     
   4.3999999999999997E-002     0.0000000000000000     
   4.4249999999999998E-002     0.0000000000000000     
   4.4499999999999998E-002     0.0000000000000000     
   4.4749999999999998E-002     0.0000000000000000     
   4.4999999999999998E-002     0.0000000000000000     
   4.5249999999999999E-002     0.0000000000000000     
   4.5499999999999999E-002     0.0000000000000000     
   4.5749999999999999E-002     0.0000000000000000     
   4.5999999999999999E-002     0.0000000000000000     
   4.6249999999999999E-002     0.0000000000000000     
   4.6500000000000000E-002     0.0000000000000000     
   4.6750000000000000E-002     0.0000000000000000     
   4.7000000000000000E-002     0.0000000000000000     
   4.7250000000000000E-002     0.0000000000000000     
   4.7500000000000001E-002     0.0000000000000000     
   4.7750000000000001E-002     0.0000000000000000     
   4.8000000000000001E-002     0.0000000000000000     
   4.8250000000000001E-002     0.0000000000000000     
   4.8500000000000001E-002     0.0000000000000000     
   4.8750000000000002E-002     0.0000000000000000     
   4.9000000000000002E-002     0.0000000000000000     
   4.9250000000000002E-002     0.0000000000000000     
   4.9500000000000002E-002     0.0000000000000000     
   4.9750000000000003E-002     0.0000000000000000     
   5.0000000000000003E-002     0.0000000000000000     
   5.0250000000000003E-002     0.0000000000000000     
   5.0500000000000003E-002     0.0000000000000000     
   5.0750000000000003E-002     0.0000000000000000     
   5.1000000000000004E-002     0.0000000000000000     
   5.1250000000000004E-002     0.0000000000000000     
   5.1500000000000004E-002     0.0000000000000000     
   5.1750000000000004E-002     0.0000000000000000     
   5.2000000000000005E-002     0.0000000000000000     
   5.2249999999999998E-002     0.0000000000000000     
   5.2499999999999998E-002     0.0000000000000000     
   5.2749999999999998E-002     0.0000000000000000     
   5.2999999999999999E-002     0.0000000000000000     
   5.3249999999999999E-002     0.0000000000000000     
   5.3499999999999999E-002     0.0000000000000000     
   5.3749999999999999E-002     0.0000000000000000     
   5.3999999999999999E-002     0.0000000000000000     
   5.4250000000000000E-002     0.0000000000000000     
   5.4500000000000000E-002     0.0000000000000000     
   5.4750000000000000E-002     0.0000000000000000     
   5.5000000000000000E-002     0.0000000000000000     
   5.5250000000000000E-002     0.0000000000000000     
   5.5500000000000001E-002     0.0000000000000000     
   5.5750000000000001E-002     0.0000000000000000     
   5.6000000000000001E-002     0.0000000000000000     
   5.6250000000000001E-002     0.0000000000000000     
   5.6500000000000002E-002     0.0000000000000000     
   5.6750000000000002E-002     0.0000000000000000     
   5.7000000000000002E-002     0.0000000000000000     
   5.7250000000000002E-002     0.0000000000000000     
   5.7500000000000002E-002     0.0000000000000000     
   5.7750000000000003E-002     0.0000000000000000     
   5.8000000000000003E-002     0.0000000000000000     
   5.8250000000000003E-002     0.0000000000000000     
   5.8500000000000003E-002     0.0000000000000000     
   5.8750000000000004E-002     0.0000000000000000     
   5.9000000000000004E-002     0.0000000000000000     
   5.9250000000000004E-002     0.0000000000000000     
   5.9500000000000004E-002     0.0000000000000000     
   5.9750000000000004E-002     0.0000000000000000     
   5.9999999999999998E-002     0.0000000000000000     
   6.0249999999999998E-002     0.0000000000000000     
   6.0499999999999998E-002     0.0000000000000000     
   6.0749999999999998E-002     0.0000000000000000     
   6.0999999999999999E-002     0.0000000000000000     
   6.1249999999999999E-002     0.0000000000000000     
   6.1499999999999999E-002     0.0000000000000000     
   6.1749999999999999E-002     0.0000000000000000     
   6.2000000000000000E-002     0.0000000000000000     
   6.2250000000000000E-002     0.0000000000000000     
   6.2500000000000000E-002     0.0000000000000000     
   6.2750000000000000E-002     0.0000000000000000     
   6.3000000000000000E-002     0.0000000000000000     
   6.3250000000000001E-002     0.0000000000000000     
   6.3500000000000001E-002     0.0000000000000000     
   6.3750000000000001E-002     0.0000000000000000     
   6.4000000000000001E-002     0.0000000000000000     
   6.4250000000000002E-002     0.0000000000000000     
   6.4500000000000002E-002     0.0000000000000000     
   6.4750000000000002E-002     0.0000000000000000     
   6.5000000000000002E-002     0.0000000000000000     
   6.5250000000000002E-002     0.0000000000000000     
   6.5500000000000003E-002     0.0000000000000000     
   6.5750000000000003E-002     0.0000000000000000     
   6.6000000000000003E-002     0.0000000000000000     
   6.6250000000000003E-002     0.0000000000000000     
   6.6500000000000004E-002     0.0000000000000000     
   6.6750000000000004E-002     0.0000000000000000     
   6.7000000000000004E-002     0.0000000000000000     
   6.7250000000000004E-002     0.0000000000000000     
   6.7500000000000004E-002     0.0000000000000000     
   6.7750000000000005E-002     0.0000000000000000     
   6.8000000000000005E-002     0.0000000000000000     
   6.8250000000000005E-002     0.0000000000000000     
   6.8500000000000005E-002     0.0000000000000000     
   6.8750000000000006E-002     0.0000000000000000     
   6.9000000000000006E-002     0.0000000000000000     
   6.9250000000000006E-002     0.0000000000000000     
   6.9500000000000006E-002     0.0000000000000000     
   6.9750000000000006E-002     0.0000000000000000     
   7.0000000000000007E-002     0.0000000000000000     
   7.0250000000000007E-002     0.0000000000000000     
   7.0500000000000007E-002     0.0000000000000000     
   7.0750000000000007E-002     0.0000000000000000     
   7.1000000000000008E-002     0.0000000000000000     
   7.1250000000000008E-002     0.0000000000000000     
   7.1500000000000008E-002     0.0000000000000000     
   7.1750000000000008E-002     0.0000000000000000     
   7.2000000000000008E-002     0.0000000000000000     
   7.2249999999999995E-002     0.0000000000000000     
   7.2499999999999995E-002     0.0000000000000000     
   7.2749999999999995E-002     0.0000000000000000     
   7.2999999999999995E-002     0.0000000000000000     
   7.3249999999999996E-002     0.0000000000000000     
   7.3499999999999996E-002     0.0000000000000000     
   7.3749999999999996E-002     0.0000000000000000     
   7.3999999999999996E-002     0.0000000000000000     
   7.4249999999999997E-002     0.0000000000000000     
   7.4499999999999997E-002     0.0000000000000000     
   7.4749999999999997E-002     0.0000000000000000     
   7.4999999999999997E-002     0.0000000000000000     
   7.5249999999999997E-002     0.0000000000000000     
   7.5499999999999998E-002     0.0000000000000000     
   7.5749999999999998E-002     0.0000000000000000     
   7.5999999999999998E-002     0.0000000000000000     
   7.6249999999999998E-002     0.0000000000000000     
   7.6499999999999999E-002     0.0000000000000000     
   7.6749999999999999E-002     0.0000000000000000     
   7.6999999999999999E-002     0.0000000000000000     
   7.7249999999999999E-002     0.0000000000000000     
   7.7499999999999999E-002     0.0000000000000000     
   7.7750000000000000E-002     0.0000000000000000     
   7.8000000000000000E-002     0.0000000000000000     
   7.8250000000000000E-002     0.0000000000000000     
   7.8500000000000000E-002     0.0000000000000000     
   7.8750000000000001E-002     0.0000000000000000     
   7.9000000000000001E-002     0.0000000000000000     
   7.9250000000000001E-002     0.0000000000000000     
   7.9500000000000001E-002     0.0000000000000000     
   7.9750000000000001E-002     0.0000000000000000     
   8.0000000000000002E-002     0.0000000000000000     
   8.0250000000000002E-002     0.0000000000000000     
   8.0500000000000002E-002     0.0000000000000000     
   8.0750000000000002E-002     0.0000000000000000     
   8.1000000000000003E-002     0.0000000000000000     
   8.1250000000000003E-002     0.0000000000000000     
   8.1500000000000003E-002     0.0000000000000000     
   8.1750000000000003E-002     0.0000000000000000     
   8.2000000000000003E-002     0.0000000000000000     
   8.2250000000000004E-002     0.0000000000000000     
   8.2500000000000004E-002     0.0000000000000000     
   8.2750000000000004E-002     0.0000000000000000     
   8.3000000000000004E-002     0.0000000000000000     
   8.3250000000000005E-002     0.0000000000000000     
   8.3500000000000005E-002     0.0000000000000000     
   8.3750000000000005E-002     0.0000000000000000     
   8.4000000000000005E-002     0.0000000000000000     
   8.4250000000000005E-002     0.0000000000000000     
   8.4500000000000006E-002     0.0000000000000000     
   8.4750000000000006E-002     0.0000000000000000     
   8.5000000000000006E-002     0.0000000000000000     
   8.5250000000000006E-002     0.0000000000000000     
   8.5500000000000007E-002     0.0000000000000000     
   8.5750000000000007E-002     0.0000000000000000     
   8.6000000000000007E-002     0.0000000000000000     
   8.6250000000000007E-002     0.0000000000000000     
   8.6500000000000007E-002     0.0000000000000000     
   8.6750000000000008E-002     0.0000000000000000     
   8.7000000000000008E-002     0.0000000000000000     
   8.7250000000000008E-002     0.0000000000000000     
   8.7500000000000008E-002     0.0000000000000000     
   8.7750000000000009E-002     0.0000000000000000     
   8.7999999999999995E-002     0.0000000000000000     
   8.8249999999999995E-002     0.0000000000000000     
   8.8499999999999995E-002     0.0000000000000000     
   8.8749999999999996E-002     0.0000000000000000     
   8.8999999999999996E-002     0.0000000000000000     
   8.9249999999999996E-002     0.0000000000000000     
   8.9499999999999996E-002     0.0000000000000000     
   8.9749999999999996E-002     0.0000000000000000     
   8.9999999999999997E-002     0.0000000000000000     
   9.0249999999999997E-002     0.0000000000000000     
   9.0499999999999997E-002     0.0000000000000000     
   9.0749999999999997E-002     0.0000000000000000     
   9.0999999999999998E-002     0.0000000000000000     
   9.1249999999999998E-002     0.0000000000000000     
   9.1499999999999998E-002     0.0000000000000000     
   9.1749999999999998E-002     0.0000000000000000     
   9.1999999999999998E-002     0.0000000000000000     
   9.2249999999999999E-002     0.0000000000000000     
   9.2499999999999999E-002     0.0000000000000000     
   9.2749999999999999E-002     0.0000000000000000     
   9.2999999999999999E-002     0.0000000000000000     
   9.3250000000000000E-002     0.0000000000000000     
   9.3500000000000000E-002     0.0000000000000000     
   9.3750000000000000E-002     0.0000000000000000     
   9.4000000000000000E-002     0.0000000000000000     
   9.4250000000000000E-002     0.0000000000000000     
   9.4500000000000001E-002     0.0000000000000000     
   9.4750000000000001E-002     0.0000000000000000     
   9.5000000000000001E-002     0.0000000000000000     
   9.5250000000000001E-002     0.0000000000000000     
   9.5500000000000002E-002     0.0000000000000000     
   9.5750000000000002E-002     0.0000000000000000     
   9.6000000000000002E-002     0.0000000000000000     
   9.6250000000000002E-002     0.0000000000000000     
   9.6500000000000002E-002     0.0000000000000000     
   9.6750000000000003E-002     0.0000000000000000     
   9.7000000000000003E-002     0.0000000000000000     
   9.7250000000000003E-002     0.0000000000000000     
   9.7500000000000003E-002     0.0000000000000000     
   9.7750000000000004E-002     0.0000000000000000     
   9.8000000000000004E-002     0.0000000000000000     
   9.8250000000000004E-002     0.0000000000000000     
   9.8500000000000004E-002     0.0000000000000000     
   9.8750000000000004E-002     0.0000000000000000     
   9.9000000000000005E-002     0.0000000000000000     
   9.9250000000000005E-002     0.0000000000000000     
   9.9500000000000005E-002     0.0000000000000000     
   9.9750000000000005E-002     0.0000000000000000     
  0.10000000000000001          0.0000000000000000     
  0.10025000000000001          0.0000000000000000     
  0.10050000000000001          0.0000000000000000     
  0.10075000000000001          0.0000000000000000     
  0.10100000000000001          0.0000000000000000     
  0.10125000000000001          0.0000000000000000     
  0.10150000000000001          0.0000000000000000     
  0.10175000000000001          0.0000000000000000     
  0.10200000000000001          0.0000000000000000     
  0.10225000000000001          0.0000000000000000     
  0.10250000000000001          0.0000000000000000     
  0.10275000000000001          0.0000000000000000     
  0.10300000000000001          0.0000000000000000     
  0.10325000000000001          0.0000000000000000     
  0.10350000000000001          0.0000000000000000     
  0.10375000000000001          0.0000000000000000     
  0.10400000000000001          0.0000000000000000     
  0.10425000000000000          0.0000000000000000     
  0.10450000000000000          0.0000000000000000     
  0.10475000000000000          0.0000000000000000     
  0.10500000000000000          0.0000000000000000     
  0.10525000000000000          0.0000000000000000     
  0.10550000000000000          0.0000000000000000     
  0.10575000000000000          0.0000000000000000     
  0.10600000000000000          0.0000000000000000     
  0.10625000000000000          0.0000000000000000     
  0.10650000000000000          0.0000000000000000     
  0.10675000000000000          0.0000000000000000     
  0.10700000000000000          0.0000000000000000     
  0.10725000000000000          0.0000000000000000     
  0.10750000000000000          0.0000000000000000     
  0.10775000000000000          0.0000000000000000     
  0.10800000000000000          0.0000000000000000     
  0.10825000000000000          0.0000000000000000     
  0.10850000000000000          0.0000000000000000     
  0.10875000000000000          0.0000000000000000     
  0.10900000000000000          0.0000000000000000     
  0.10925000000000000          0.0000000000000000     
  0.10950000000000000          0.0000000000000000     
  0.10975000000000000          0.0000000000000000     
  0.11000000000000000          0.0000000000000000     
  0.11025000000000000          0.0000000000000000     
  0.11050000000000000          0.0000000000000000     
  0.11075000000000000          0.0000000000000000     
  0.11100000000000000          0.0000000000000000     
  0.11125000000000000          0.0000000000000000     
  0.11150000000000000          0.0000000000000000     
  0.11175000000000000          0.0000000000000000     
  0.11200000000000000          0.0000000000000000     
  0.11225000000000000          0.0000000000000000     
  0.11250000000000000          0.0000000000000000     
  0.11275000000000000          0.0000000000000000     
  0.11300000000000000          0.0000000000000000     
  0.11325000000000000          0.0000000000000000     
  0.11350000000000000          0.0000000000000000     
  0.11375000000000000          0.0000000000000000     
  0.11400000000000000          0.0000000000000000     
  0.11425000000000000          0.0000000000000000     
  0.11450000000000000          0.0000000000000000     
  0.11475000000000000          0.0000000000000000     
  0.11500000000000000          0.0000000000000000     
  0.11525000000000001          0.0000000000000000     
  0.11550000000000001          0.0000000000000000     
  0.11575000000000001          0.0000000000000000     
  0.11600000000000001          0.0000000000000000     
  0.11625000000000001          0.0000000000000000     
  0.11650000000000001          0.0000000000000000     
  0.11675000000000001          0.0000000000000000     
  0.11700000000000001          0.0000000000000000     
  0.11725000000000001          0.0000000000000000     
  0.11750000000000001          0.0000000000000000     
  0.11775000000000001          0.0000000000000000     
  0.11800000000000001          0.0000000000000000     
  0.11825000000000001          0.0000000000000000     
  0.11850000000000001          0.0000000000000000     
  0.11875000000000001          0.0000000000000000     
  0.11900000000000001          0.0000000000000000     
  0.11925000000000001          0.0000000000000000     
  0.11950000000000001          0.0000000000000000     
  0.11975000000000001          0.0000000000000000     
  0.12000000000000000          0.0000000000000000     
  0.12025000000000000          0.0000000000000000     
  0.12050000000000000          0.0000000000000000     
  0.12075000000000000          0.0000000000000000     
  0.12100000000000000          0.0000000000000000     
  0.12125000000000000          0.0000000000000000     
  0.12150000000000000          0.0000000000000000     
  0.12175000000000000          0.0000000000000000     
  0.12200000000000000          0.0000000000000000     
  0.12225000000000000          0.0000000000000000     
  0.12250000000000000          0.0000000000000000     
  0.12275000000000000          0.0000000000000000     
  0.12300000000000000          0.0000000000000000     
  0.12325000000000000          0.0000000000000000     
  0.12350000000000000          0.0000000000000000     
  0.12375000000000000          0.0000000000000000     
  0.12400000000000000          0.0000000000000000     
  0.12425000000000000          0.0000000000000000     
  0.12450000000000000          0.0000000000000000     
  0.12475000000000000          0.0000000000000000     
  0.12500000000000000          0.0000000000000000     
  0.12525000000000000          0.0000000000000000     
  0.12550000000000000          0.0000000000000000     
  0.12575000000000000          0.0000000000000000     
  0.12600000000000000          0.0000000000000000     
  0.12625000000000000          0.0000000000000000     
  0.12650000000000000          0.0000000000000000     
  0.12675000000000000          0.0000000000000000     
  0.12700000000000000          0.0000000000000000     
  0.12725000000000000          0.0000000000000000     
  0.12750000000000000          0.0000000000000000     
  0.12775000000000000          0.0000000000000000     
  0.12800000000000000          0.0000000000000000     
  0.12825000000000000          0.0000000000000000     
  0.12850000000000000          0.0000000000000000     
  0.12875000000000000          0.0000000000000000     
  0.12900000000000000          0.0000000000000000     
  0.12925000000000000          0.0000000000000000     
  0.12950000000000000          0.0000000000000000     
  0.12975000000000000          0.0000000000000000     
  0.13000000000000000          0.0000000000000000     
  0.13025000000000000          0.0000000000000000     
  0.13050000000000000          0.0000000000000000     
  0.13075000000000001          0.0000000000000000     
  0.13100000000000001          0.0000000000000000     
  0.13125000000000001          0.0000000000000000     
  0.13150000000000001          0.0000000000000000     
  0.13175000000000001          0.0000000000000000     
  0.13200000000000001          0.0000000000000000     
  0.13225000000000001          0.0000000000000000     
  0.13250000000000001          0.0000000000000000     
  0.13275000000000001          0.0000000000000000     
  0.13300000000000001          0.0000000000000000     
  0.13325000000000001          0.0000000000000000     
  0.13350000000000001          0.0000000000000000     
  0.13375000000000001          0.0000000000000000     
  0.13400000000000001          0.0000000000000000     
  0.13425000000000001          0.0000000000000000     
  0.13450000000000001          0.0000000000000000     
  0.13475000000000001          0.0000000000000000     
  0.13500000000000001          0.0000000000000000     
  0.13525000000000001          0.0000000000000000     
  0.13550000000000001          0.0000000000000000     
  0.13575000000000001          0.0000000000000000     
  0.13600000000000001          0.0000000000000000     