  -6.6666666666666666E-002     0.0000000000000000     
  -6.6266666666666668E-002     0.0000000000000000     
  -6.5866666666666671E-002     0.0000000000000000     
  -6.5466666666666659E-002     0.0000000000000000     
  -6.5066666666666662E-002     0.0000000000000000     
  -6.4666666666666664E-002     0.0000000000000000     
  -6.4266666666666666E-002     0.0000000000000000     
  -6.3866666666666669E-002     0.0000000000000000     
  -6.3466666666666671E-002     0.0000000000000000     
  -6.3066666666666660E-002     0.0000000000000000     
  -6.2666666666666662E-002     0.0000000000000000     
  -6.2266666666666665E-002     0.0000000000000000     
  -6.1866666666666667E-002     0.0000000000000000     
  -6.1466666666666663E-002     0.0000000000000000     
  -6.1066666666666665E-002     0.0000000000000000     
  -6.0666666666666667E-002     0.0000000000000000     
  -6.0266666666666663E-002     0.0000000000000000     
  -5.9866666666666665E-002     0.0000000000000000     
  -5.9466666666666668E-002     0.0000000000000000     
  -5.9066666666666663E-002     0.0000000000000000     
  -5.8666666666666666E-002     0.0000000000000000     
  -5.8266666666666661E-002     0.0000000000000000     
  -5.7866666666666663E-002     0.0000000000000000     
  -5.7466666666666666E-002     0.0000000000000000     
  -5.7066666666666668E-002     0.0000000000000000     
  -5.6666666666666664E-002     0.0000000000000000     
  -5.6266666666666666E-002     0.0000000000000000     
  -5.5866666666666662E-002     0.0000000000000000     
  -5.5466666666666664E-002     0.0000000000000000     
  -5.5066666666666667E-002     0.0000000000000000     
  -5.4666666666666669E-002     0.0000000000000000     
  -5.4266666666666664E-002     0.0000000000000000     
  -5.3866666666666667E-002     0.0000000000000000     
  -5.3466666666666662E-002     0.0000000000000000     
  -5.3066666666666665E-002     0.0000000000000000     
  -5.2666666666666667E-002     0.0000000000000000     
  -5.2266666666666663E-002     0.0000000000000000     
  -5.1866666666666665E-002     0.0000000000000000     
  -5.1466666666666668E-002     0.0000000000000000     
  -5.1066666666666663E-002     0.0000000000000000     
  -5.0666666666666665E-002     0.0000000000000000     
  -5.0266666666666668E-002     0.0000000000000000     
  -4.9866666666666663E-002     0.0000000000000000     
  -4.9466666666666666E-002     0.0000000000000000     
  -4.9066666666666661E-002     0.0000000000000000     
  -4.8666666666666664E-002     0.0000000000000000     
  -4.8266666666666666E-002     0.0000000000000000     
  -4.7866666666666668E-002     0.0000000000000000     
  -4.7466666666666664E-002     0.0000000000000000     
  -4.7066666666666666E-002     0.0000000000000000     
  -4.6666666666666662E-002     0.0000000000000000     
  -4.6266666666666664E-002     0.0000000000000000     
  -4.5866666666666667E-002     0.0000000000000000     
  -4.5466666666666669E-002     0.0000000000000000     
  -4.5066666666666665E-002     0.0000000000000000     
  -4.4666666666666660E-002     0.0000000000000000     
  -4.4266666666666662E-002     0.0000000000000000     
  -4.3866666666666665E-002     0.0000000000000000     
  -4.3466666666666667E-002     0.0000000000000000     
  -4.3066666666666670E-002     0.0000000000000000     
  -4.2666666666666665E-002     0.0000000000000000     
  -4.2266666666666661E-002     0.0000000000000000     
  -4.1866666666666663E-002     0.0000000000000000     
  -4.1466666666666666E-002     0.0000000000000000     
  -4.1066666666666668E-002     0.0000000000000000     
  -4.0666666666666663E-002     0.0000000000000000     
  -4.0266666666666666E-002     0.0000000000000000     
  -3.9866666666666661E-002     0.0000000000000000     
  -3.9466666666666664E-002     0.0000000000000000     
  -3.9066666666666666E-002     0.0000000000000000     
  -3.8666666666666669E-002     0.0000000000000000     
  -3.8266666666666664E-002     0.0000000000000000     
  -3.7866666666666660E-002     0.0000000000000000     
  -3.7466666666666662E-002     0.0000000000000000     
  -3.7066666666666664E-002     0.0000000000000000     
  -3.6666666666666667E-002     0.0000000000000000     
  -3.6266666666666669E-002     0.0000000000000000     
  -3.5866666666666665E-002     0.0000000000000000     
  -3.5466666666666660E-002     0.0000000000000000     
  -3.5066666666666663E-002     0.0000000000000000     
  -3.4666666666666665E-002     0.0000000000000000     
  -3.4266666666666667E-002     0.0000000000000000     
  -3.3866666666666663E-002     0.0000000000000000     
  -3.3466666666666665E-002     0.0000000000000000     
  -3.3066666666666661E-002     0.0000000000000000     
  -3.2666666666666663E-002     0.0000000000000000     
  -3.2266666666666666E-002     0.0000000000000000     
  -3.1866666666666661E-002     0.0000000000000000     
  -3.1466666666666664E-002     0.0000000000000000     
  -3.1066666666666666E-002     0.0000000000000000     
  -3.0666666666666662E-002     2.4013079282000149E-038
  -3.0266666666666664E-002     5.7789761666122033E-038
  -2.9866666666666666E-002     9.0696134007811847E-038
  -2.9466666666666662E-002     1.0898458676439832E-037
  -2.9066666666666664E-002     9.6237692099249196E-038
  -2.8666666666666667E-002     3.6281046565803125E-038
  -2.8266666666666662E-002    -7.8191378112104191E-038
  -2.7866666666666665E-002    -2.4478731322214671E-037
  -2.7466666666666667E-002    -4.3445328457626499E-037
  -2.7066666666666662E-002    -5.9607756968031107E-037
  -2.6666666666666665E-002    -6.5083233187007213E-037
  -2.6266666666666660E-002    -5.1333854084635198E-037
  -2.5866666666666663E-002    -1.0586936575355168E-037
  -2.5466666666666665E-002     6.0360525534756227E-037
  -2.5066666666666661E-002     1.5792114427781748E-036
  -2.4666666666666663E-002     2.6695018247158173E-036
  -2.4266666666666666E-002     3.6000289355931388E-036
  -2.3866666666666661E-002     3.9696424138253865E-036
  -2.3466666666666663E-002     3.3138810090018579E-036
  -2.3066666666666666E-002     1.2088847148379735E-036
  -2.2666666666666661E-002    -2.5827465175376753E-036
  -2.2266666666666664E-002    -7.9275844114683938E-036
  -2.1866666666666666E-002    -1.4142558788608586E-035
  -2.1466666666666662E-002    -1.9878800463995681E-035
  -2.1066666666666664E-002    -2.3147554371143278E-035
  -2.0666666666666667E-002    -2.1550427473233751E-035
  -2.0266666666666662E-002    -1.2761835062747228E-035
  -1.9866666666666664E-002     4.7517938551659779E-036
  -1.9466666666666667E-002     3.0849385609110918E-035
  -1.9066666666666662E-002     6.2834294169341357E-035
  -1.8666666666666665E-002     9.4852671028202875E-035
  -1.8266666666666660E-002     1.1788143188027691E-034
  -1.7866666666666663E-002     1.2061059915510009E-034
  -1.7466666666666665E-002     9.1426110735274416E-035
  -1.7066666666666661E-002     2.1511094617215209E-035
  -1.6666666666666663E-002    -9.1268940023318524E-035
  -1.6266666666666665E-002    -2.3838619062605492E-034
  -1.5866666666666661E-002    -3.9761068865915028E-034
  -1.5466666666666663E-002    -5.3222017427390866E-034
  -1.5066666666666666E-002    -5.9377640532265627E-034
  -1.4666666666666661E-002    -5.2940146739033143E-034
  -1.4266666666666664E-002    -2.9374382414950064E-034
  -1.3866666666666666E-002     1.3537425718845107E-034
  -1.3466666666666662E-002     7.4008192197485218E-034
  -1.3066666666666664E-002     1.4482477029569407E-033
  -1.2666666666666666E-002     2.1268946626557219E-033
  -1.2266666666666662E-002     2.5884113772038143E-033
  -1.1866666666666664E-002     2.6137094850014485E-033
  -1.1466666666666660E-002     1.9938797626785028E-033
  -1.1066666666666662E-002     5.8782532741837420E-034
  -1.0666666666666665E-002    -1.6118380375185129E-033
  -1.0266666666666660E-002    -4.4177535221778752E-033
  -9.8666666666666625E-003    -7.4091225261336466E-033
  -9.4666666666666649E-003    -9.9345560588081876E-033
  -9.0666666666666604E-003    -1.1173291271020745E-032
  -8.6666666666666628E-003    -1.0264026554192535E-032
  -8.2666666666666652E-003    -6.4976611042373379E-033
  -7.8666666666666607E-003     4.4699288491295802E-034
  -7.4666666666666631E-003     1.0264442385319139E-032
  -7.0666666666666655E-003     2.1837298145179795E-032
  -6.6666666666666610E-003     3.3170669706263458E-032
  -6.2666666666666634E-003     4.1509373899711338E-032
  -5.8666666666666659E-003     4.3681949007523984E-032
  -5.4666666666666613E-003     3.6678406562570582E-032
  -5.0666666666666638E-003     1.8415902818308507E-032
  -4.6666666666666662E-003    -1.1415217559311572E-032
  -4.2666666666666617E-003    -5.0591848633755005E-032
  -3.8666666666666571E-003    -9.3893898438244365E-032
  -3.4666666666666596E-003    -1.3315301762470484E-031
  -3.0666666666666620E-003    -1.5799303527382355E-031
  -2.6666666666666644E-003    -1.5734708937310320E-031
  -2.2666666666666668E-003    -1.2168910300785855E-031
  -1.8666666666666692E-003    -4.5732760533006702E-032
  -1.4666666666666578E-003     6.8842391722997464E-032
  -1.0666666666666602E-003     2.1123880338090179E-031
  -6.6666666666666263E-004     3.6064460556815486E-031
  -2.6666666666666505E-004     4.8723018327458962E-031
   1.3333333333333253E-004     5.5547237933700073E-031
   5.3333333333334398E-004     5.2987472031394653E-031
   9.3333333333334156E-004     3.8264755584662047E-031
   1.3333333333333391E-003     1.0233777411126032E-031
   1.7333333333333367E-003    -2.9814350040527279E-031
   2.1333333333333343E-003    -7.7602540028573905E-031
   2.5333333333333319E-003    -1.2577258230351905E-030
   2.9333333333333433E-003    -1.6441270849922918E-030
   3.3333333333333409E-003    -1.8229701809501249E-030
   3.7333333333333385E-003    -1.6880245579503031E-030
   4.1333333333333361E-003    -1.1631482747149231E-030
   4.5333333333333337E-003    -2.2773190600853213E-031
   4.9333333333333312E-003     1.0613518745269340E-030
   5.3333333333333427E-003     2.5569353119086398E-030
   5.7333333333333403E-003     4.0233331053503895E-030
   6.1333333333333379E-003     5.1567827503906577E-030
   6.5333333333333354E-003     5.6259855523010367E-030
   6.9333333333333330E-003     5.1304761272147355E-030
   7.3333333333333445E-003     3.4702474027235243E-030
   7.7333333333333421E-003     6.1584421754269033E-031
   8.1333333333333396E-003    -3.2350552453273855E-030
   8.5333333333333372E-003    -7.6298227483624666E-030
   8.9333333333333348E-003    -1.1875611294718965E-029
   9.3333333333333324E-003    -1.5105766703433931E-029
   9.7333333333333438E-003    -1.6399297990355620E-029
   1.0133333333333341E-002    -1.4944625047766713E-029
   1.0533333333333339E-002    -1.0227682566956566E-029
   1.0933333333333337E-002    -2.2142636623162525E-030
   1.1333333333333334E-002     8.5104534631171457E-030
   1.1733333333333332E-002     2.0683744314131001E-029
   1.2133333333333343E-002     3.2421444730820534E-029
   1.2533333333333341E-002     4.1407677369523395E-029
   1.2933333333333338E-002     4.5216802678391237E-029
   1.3333333333333336E-002     4.1740463017585819E-029
   1.3733333333333334E-002     2.9665619536334686E-029
   1.4133333333333345E-002     8.9261210549464435E-030
   1.4533333333333343E-002    -1.8963843734810128E-029
   1.4933333333333340E-002    -5.0786465688406523E-029
   1.5333333333333338E-002    -8.1782159527724877E-029
   1.5733333333333335E-002    -1.0613619367585770E-028
   1.6133333333333333E-002    -1.1777872907917020E-028
   1.6533333333333344E-002    -1.1142591674992523E-028
   1.6933333333333342E-002    -8.3728016828505444E-029
   1.7333333333333339E-002    -3.4339631834978226E-029
   1.7733333333333337E-002     3.3301191473823395E-029
   1.8133333333333335E-002     1.1169364508631936E-028
   1.8533333333333332E-002     1.8965946609568156E-028
   1.8933333333333344E-002     2.5347373442961863E-028
   1.9333333333333341E-002     2.8870530053302904E-028
   1.9733333333333339E-002     2.8259550445157928E-028
   2.0133333333333336E-002     2.2666965257685789E-028
   2.0533333333333334E-002     1.1916916623958272E-028
   2.0933333333333332E-002    -3.3163662020200918E-029
   2.1333333333333343E-002    -2.1439996216127999E-028
   2.1733333333333341E-002    -4.0018874240298069E-028
   2.2133333333333338E-002    -5.6013992058626277E-028
   2.2533333333333336E-002    -6.6174519554907937E-028
   2.2933333333333333E-002    -6.7547072048374388E-028
   2.3333333333333345E-002    -5.8037990355781711E-028
   2.3733333333333342E-002    -3.6942552636354310E-028
   2.4133333333333340E-002    -5.3441366135275404E-029
   2.4533333333333338E-002     3.3710033299095886E-028
   2.4933333333333335E-002     7.5329350508354887E-028
   2.5333333333333333E-002     1.1323241255622372E-027
   2.5733333333333344E-002     1.4051791911718294E-027
   2.6133333333333342E-002     1.5068364180948959E-027
   2.6533333333333339E-002     1.3876863546729491E-027
   2.6933333333333337E-002     1.0245097969034620E-027
   2.7333333333333334E-002     4.2910990274710910E-028
   2.7733333333333332E-002    -3.4723975229505004E-028
   2.8133333333333344E-002    -1.2149915869371483E-027
   2.8533333333333341E-002    -2.0539415003728000E-027
   2.8933333333333339E-002    -2.7271123716134539E-027
   2.9333333333333336E-002    -3.0996968082717809E-027
   2.9733333333333334E-002    -3.0608267271691855E-027
   3.0133333333333345E-002    -2.5451196955886376E-027
   3.0533333333333343E-002    -1.5505037980959654E-027
   3.0933333333333340E-002    -1.4887927174836721E-028
   3.1333333333333338E-002     1.5131996906311513E-027
   3.1733333333333336E-002     3.2254644632791395E-027
   3.2133333333333333E-002     4.7365215568471600E-027
   3.2533333333333345E-002     5.7862677767769002E-027
   3.2933333333333342E-002     6.1444880501310039E-027
   3.3333333333333340E-002     5.6504912564415556E-027
   3.3733333333333337E-002     4.2477625222344672E-027
   3.4133333333333335E-002     2.0075637591609943E-027
   3.4533333333333333E-002    -8.6367875762508661E-028
   3.4933333333333344E-002    -4.0365192074002865E-027
   3.5333333333333342E-002    -7.0908896396169027E-027
   3.5733333333333339E-002    -9.5664345381855681E-027
   3.6133333333333337E-002    -1.1025409671232497E-026
   3.6533333333333334E-002    -1.1120190076399637E-026
   3.6933333333333346E-002    -9.6557653319820702E-027
   3.7333333333333343E-002    -6.6372353004725338E-027
   3.7733333333333341E-002    -2.2934387852701248E-027
   3.8133333333333339E-002     2.9295389717552243E-027
   3.8533333333333336E-002     8.4073852457500415E-027
   3.8933333333333334E-002     1.3406885217969490E-026
   3.9333333333333345E-002     1.7178575576506921E-026
   3.9733333333333343E-002     1.9061538794206855E-026
   4.0133333333333340E-002     1.8586259343274929E-026
   4.0533333333333338E-002     1.5560363014914100E-026
   4.0933333333333335E-002     1.0123181596137053E-026
   4.1333333333333333E-002     2.7583671331229477E-027
   4.1733333333333344E-002    -5.7410022601079781E-027
   4.2133333333333342E-002    -1.4353932764358736E-026
   4.2533333333333340E-002    -2.1951877387874022E-026
   4.2933333333333337E-002    -2.7443931632254572E-026
   4.3333333333333335E-002    -2.9928177882311979E-026
   4.3733333333333346E-002    -2.8828243853961452E-026
   4.4133333333333344E-002    -2.3994794480059160E-026
   4.4533333333333341E-002    -1.5755376518106929E-026
   4.4933333333333339E-002    -4.9023649251023004E-027
   4.5333333333333337E-002     7.3829869601903595E-027
   4.5733333333333334E-002     1.9663385738852044E-026
   4.6133333333333346E-002     3.0419755322805288E-026
   4.6533333333333343E-002     3.8244771708995695E-026
   4.6933333333333341E-002     4.2029800287955974E-026
   4.7333333333333338E-002     4.1119220610249689E-026
   4.7733333333333336E-002     3.5409793586393951E-026
   4.8133333333333334E-002     2.5379783088362509E-026
   4.8533333333333345E-002     1.2042107318502541E-026
   4.8933333333333343E-002    -3.1735317623287377E-027
   4.9333333333333340E-002    -1.8594312811930378E-026
   4.9733333333333338E-002    -3.2510295269911279E-026
   5.0133333333333335E-002    -4.3384382314297337E-026
   5.0533333333333347E-002    -5.0037126743426033E-026
   5.0933333333333344E-002    -5.1780916100368723E-026
   5.1333333333333342E-002    -4.8485619150643053E-026
   5.1733333333333339E-002    -4.0568253653247300E-026
   5.2133333333333337E-002    -2.8910799996585578E-026
   5.2533333333333335E-002    -1.4721346271709378E-026
   5.2933333333333346E-002     6.3763717487721770E-028
   5.3333333333333344E-002     1.5825378678981561E-026
   5.3733333333333341E-002     2.9674784049900928E-026
   5.4133333333333339E-002     4.1296775943682637E-026
   5.4533333333333336E-002     5.0122539425343673E-026
   5.4933333333333334E-002     5.5881131588819729E-026
   5.5333333333333345E-002     5.8522410462822694E-026
   5.5733333333333343E-002     5.8106397268883407E-026
   5.6133333333333341E-002     5.4687714461712601E-026
   5.6533333333333338E-002     4.8226120890680272E-026
   5.6933333333333336E-002     3.8550492287623770E-026
   5.7333333333333333E-002     2.5394278407495945E-026
   5.7733333333333345E-002     8.5063711115437456E-027
   5.8133333333333342E-002    -1.2174996484665260E-026
   5.8533333333333340E-002    -3.6313908302462917E-026
   5.8933333333333351E-002    -6.2975357709472288E-026
   5.9333333333333335E-002    -9.0478974681075399E-026
   5.9733333333333347E-002    -1.1635501136783619E-025
   6.0133333333333330E-002    -1.3743966099068010E-025
   6.0533333333333342E-002    -1.5012880912590283E-025
   6.0933333333333353E-002    -1.5078452510146450E-025
   6.1333333333333337E-002    -1.3626141094707101E-025
   6.1733333333333348E-002    -1.0449331669243209E-025
   6.2133333333333332E-002    -5.5059847267798969E-026
   6.2533333333333344E-002     1.0359001702991559E-026
   6.2933333333333327E-002     8.7730928413931428E-026
   6.3333333333333339E-002     1.7069760534649042E-025
   6.3733333333333350E-002     2.5092580711335707E-025
   6.4133333333333334E-002     3.1879059866909905E-025
   6.4533333333333345E-002     3.6435116164252543E-025
   6.4933333333333329E-002     3.7853382068655784E-025
   6.5333333333333340E-002     3.5439551515150667E-025
   6.5733333333333352E-002     2.8831352458966089E-025
   6.6133333333333336E-002     1.8093676105127463E-025
   6.6533333333333347E-002     3.7744504472593311E-026
   6.6933333333333331E-002    -1.3090833642970931E-025
   6.7333333333333342E-002    -3.1032890682114916E-025
   6.7733333333333354E-002    -4.8260976833036979E-025
   6.8133333333333337E-002    -6.2826741245309307E-025
   6.8533333333333349E-002    -7.2825489124037083E-025
   6.8933333333333333E-002    -7.6614708526556348E-025
   6.9333333333333344E-002    -7.3025899237008481E-025
   6.9733333333333328E-002    -6.1544378818543346E-025
   7.0133333333333339E-002    -4.2433518345130293E-025
   7.0533333333333351E-002    -1.6784587317411646E-025
   7.0933333333333334E-002     1.3519370003780602E-025
   7.1333333333333346E-002     4.5928108060310826E-025
   7.1733333333333330E-002     7.7429759613830698E-025
   7.2133333333333341E-002     1.0482057317377270E-024
   7.2533333333333352E-002     1.2501385434714279E-024
   7.2933333333333336E-002     1.3535785213142120E-024
   7.3333333333333348E-002     1.3392998431068722E-024
   7.3733333333333331E-002     1.1977633069606366E-024
   7.4133333333333343E-002     9.3069829319497603E-025
   7.4533333333333354E-002     5.5168637349604769E-025
   7.4933333333333338E-002     8.5654880704470962E-026
   7.5333333333333349E-002    -4.3270134917401122E-025
   7.5733333333333333E-002    -9.6145203558501718E-025
   7.6133333333333345E-002    -1.4547068408818590E-024
   7.6533333333333328E-002    -1.8663593103446975E-024
   7.6933333333333340E-002    -2.1539864766430095E-024
   7.7333333333333351E-002    -2.2825844120446495E-024
   7.7733333333333335E-002    -2.2278410150963847E-024
   7.8133333333333346E-002    -1.9786952726156589E-024
   7.8533333333333330E-002    -1.5389891344261245E-024
   7.8933333333333341E-002    -9.2809012182708906E-025
   7.9333333333333353E-002    -1.8043068212867206E-025
   7.9733333333333337E-002     6.5602688536594814E-025
   8.0133333333333348E-002     1.5223357876788432E-024
   8.0533333333333332E-002     2.3520118630979244E-024
   8.0933333333333343E-002     3.0752334273325326E-024
   8.1333333333333355E-002     3.6236116633187294E-024
   8.1733333333333338E-002     3.9353083563419186E-024
   8.2133333333333350E-002     3.9602438551255022E-024
   8.2533333333333334E-002     3.6650872087020819E-024
   8.2933333333333345E-002     3.0376826621678809E-024
   8.3333333333333329E-002     2.0905297165661261E-024
   8.3733333333333340E-002     8.6291453244534222E-025
   8.4133333333333352E-002    -5.7869534386519811E-025
   8.4533333333333335E-002    -2.1423284929704271E-024
   8.4933333333333347E-002    -3.7144900173220004E-024
   8.5333333333333330E-002    -5.1665194642915393E-024
   8.5733333333333342E-002    -6.3631922696583210E-024
   8.6133333333333353E-002    -7.1731966192915190E-024
   8.6533333333333337E-002    -7.4808531611886188E-024
   8.6933333333333349E-002    -7.1982082431524564E-024
   8.7333333333333332E-002    -6.2764372916066402E-024
   8.7733333333333344E-002    -4.7153714903174531E-024
   8.8133333333333355E-002    -2.5699658481709852E-024
   8.8533333333333339E-002     4.7367827899848167E-026
   8.8933333333333350E-002     2.9693744075238883E-024
   8.9333333333333334E-002     5.9819492048003948E-024
   8.9733333333333345E-002     8.8374659373671503E-024
   9.0133333333333329E-002     1.1272846790296321E-023
   9.0533333333333341E-002     1.3031238258417492E-023
   9.0933333333333352E-002     1.3885649560557843E-023
   9.1333333333333336E-002     1.3662529719846943E-023
   9.1733333333333347E-002     1.2263055764105038E-023
   9.2133333333333331E-002     9.6798628879209860E-024
   9.2533333333333342E-002     6.0071970925024459E-024
   9.2933333333333354E-002     1.4428966070545690E-024
   9.3333333333333338E-002    -3.7187510495015517E-024
   9.3733333333333349E-002    -9.1034335470060353E-024
   9.4133333333333333E-002    -1.4281820240325267E-023
   9.4533333333333344E-002    -1.8801590908180002E-023
   9.4933333333333356E-002    -2.2224153875624557E-023
   9.5333333333333339E-002    -2.4163147159387026E-023
   9.5733333333333351E-002    -2.4321449454959537E-023
   9.6133333333333335E-002    -2.2523357772922213E-023
   9.6533333333333346E-002    -1.8738849644944154E-023
   9.6933333333333330E-002    -1.3097350324301349E-023
   9.7333333333333341E-002    -5.8892197886830227E-024
   9.7733333333333353E-002     2.4458604756245788E-024
   9.8133333333333336E-002     1.1343369377501269E-023
   9.8533333333333348E-002     2.0149970343090742E-023
   9.8933333333333331E-002     2.8168787198594829E-023
   9.9333333333333343E-002     3.4710798063818197E-023
   9.9733333333333354E-002     3.9148642371222109E-023
  0.10013333333333334          4.0968860023929071E-023
  0.10053333333333335          3.9818511497499583E-023
  0.10093333333333333          3.5542522515185297E-023
  0.10133333333333334          2.8208593119872282E-023
  0.10173333333333336          1.8117315604051381E-023
  0.10213333333333334          5.7960876590735352E-024
  0.10253333333333335         -8.0235105778901528E-024
  0.10293333333333334         -2.2444190847917854E-023
  0.10333333333333335         -3.6455502795233783E-023
  0.10373333333333333         -4.8997731700531106E-023
  0.10413333333333334         -5.9033566494211263E-023
  0.10453333333333335         -6.5623306599644123E-023
  0.10493333333333334         -6.7998907573175645E-023
  0.10533333333333335         -6.5631838919194993E-023
  0.10573333333333333         -5.8289853676317860E-023
  0.10613333333333334         -4.6077920832036575E-023
  0.10653333333333335         -2.9459250043566053E-023
  0.10693333333333334         -9.2531167483281014E-024
  0.10733333333333335          1.3392501054267980E-023
  0.10773333333333333          3.7054093605559108E-023
  0.10813333333333335          6.0110443671372087E-023
  0.10853333333333333          8.0842105846476509E-023
  0.10893333333333334          9.7547567111739447E-023
  0.10933333333333335          1.0866941409186289E-022
  0.10973333333333334          1.1292213167747315E-022
  0.11013333333333335          1.0941207930247416E-022
  0.11053333333333333          9.7739645275829901E-023
  0.11093333333333334          7.8073891955860110E-023
  0.11133333333333335          5.1190824970474316E-023
  0.11173333333333334          1.8468601676033540E-023
  0.11213333333333335         -1.8164450043138337E-023
  0.11253333333333333         -5.6329597435716064E-023
  0.11293333333333334         -9.3341991853825189E-023
  0.11333333333333336         -1.2639213989340091E-022
  0.11373333333333334         -1.5275337223453938E-022
  0.11413333333333335         -1.7000067365660605E-022
  0.11453333333333333         -1.7622406675765427E-022
  0.11493333333333335         -1.7021836140112359E-022
  0.11533333333333333         -1.5163147318779579E-022
  0.11573333333333334         -1.2105548955869352E-022
  0.11613333333333335         -8.0048088946378973E-023
  0.11653333333333334         -3.1076673645646040E-023
  0.11693333333333335          2.2616222478684831E-023
  0.11733333333333333          7.7221341576595175E-023
  0.11773333333333334          1.2863322430537414E-022
  0.11813333333333335          1.7276498110801979E-022
  0.11853333333333334          2.0588418918668218E-022
  0.11893333333333335          2.2494347255360530E-022
  0.11933333333333333          2.2787745451940122E-022
  0.11973333333333334          2.1383873438879429E-022
  0.12013333333333336          1.8334849047375869E-022
  0.12053333333333334          1.3834262530103023E-022
  0.12093333333333335          8.2101626411301344E-023
  0.12133333333333333          1.9061124568275904E-023
  0.12173333333333335         -4.5490506603016422E-023
  0.12213333333333333         -1.0581125743627681E-022
  0.12253333333333334         -1.5617609455188679E-022
  0.12293333333333335         -1.9138623841326627E-022
  0.12333333333333334         -2.0727837777435910E-022
  0.12373333333333335         -2.0119242317566211E-022
  0.12413333333333333         -1.7235583366636148E-022
  0.12453333333333334         -1.2214578368213034E-022
  0.12493333333333335         -5.4196511237111206E-023
  0.12533333333333335          2.5671987213306961E-023
  0.12573333333333336          1.0971636504172325E-022
  0.12613333333333332          1.8872284204884840E-022
  0.12653333333333333          2.5263594869307130E-022
  0.12693333333333334          2.9133403158055462E-022
  0.12733333333333335          2.9550946604100219E-022
  0.12773333333333337          2.5759895663774256E-022
  0.12813333333333332          1.7270084987186894E-022
  0.12853333333333333          3.9410092963317698E-023
  0.12893333333333334         -1.3950042067440500E-022
  0.12933333333333336         -3.5662069021117386E-022
  0.12973333333333337         -5.9972790598854642E-022
  0.13013333333333332         -8.5194382727035460E-022
  0.13053333333333333         -1.0922576676496778E-021
  0.13093333333333335         -1.2964281985147303E-021
  0.13133333333333336         -1.4382528179860826E-021
  0.13173333333333337         -1.4911690521502308E-021
  0.13213333333333332         -1.4301253039864481E-021
  0.13253333333333334         -1.2336345675365502E-021
  0.13293333333333335         -8.8590013667631407E-022
  0.13333333333333336         -3.7888527320819100E-022
  0.13373333333333337          2.8581437813761044E-022
  0.13413333333333333          1.0954436054777141E-021
  0.13453333333333334          2.0250506247840090E-021
  0.13493333333333335          3.0370737924999605E-021
  0.13533333333333336          4.0816661870932288E-021
  0.13573333333333332          5.0978418176400679E-021
  0.13613333333333333          6.0154896551361143E-021
  0.13653333333333334          6.7582574555303859E-021
  0.13693333333333335          7.2472597341459565E-021
  0.13733333333333336          7.4055073017043068E-021
  0.13773333333333332          7.1629091220918552E-021
  0.13813333333333333          6.4616441395801515E-021
  0.13853333333333334          5.2616599296360799E-021
  0.13893333333333335          3.5460158494704258E-021
  0.13933333333333336          1.3257708959372718E-021
  0.13973333333333332         -1.3558992735778644E-021
  0.14013333333333333         -4.4206668548818372E-021
  0.14053333333333334         -7.7533892558647064E-021
  0.14093333333333335         -1.1202085367563708E-020
  0.14133333333333337         -1.4579754614301820E-020
  0.14173333333333332         -1.7668211145853278E-020
  0.14213333333333333         -2.0224032833167342E-020
  0.14253333333333335         -2.1986652936528409E-020
  0.14293333333333336         -2.2688578694177875E-020
  0.14333333333333337         -2.2067637472789045E-020
  0.14373333333333332         -1.9881130926347166E-020
  0.14413333333333334         -1.5921737220308334E-020
  0.14453333333333335         -1.0034931099870685E-020
  0.14493333333333336         -2.1377925553871807E-021
  0.14533333333333337          7.7610132115495458E-021
  0.14573333333333333          1.9540183879959001E-020
  0.14613333333333334          3.2943782982851316E-020
  0.14653333333333335          4.7558212943807874E-020
  0.14693333333333336          6.2788217145694470E-020
  0.14733333333333337          7.7831659807707681E-020
  0.14773333333333333          9.1652826792400154E-020
  0.14813333333333334          1.0295383294458497E-019
  0.14853333333333335          1.1014379022647246E-019
  0.14893333333333336          1.1130495793604084E-019
  0.14933333333333332          1.0415529985962117E-019
  0.14973333333333333          8.6006537167552936E-020
  0.15013333333333334          5.3716905415214747E-020
  0.15053333333333335          3.6372795588704536E-021
  0.15093333333333336         -6.8450242589225803E-020