-0.8000000E+01  0.0000000E+00
-0.7980000E+01  0.0000000E+00
-0.7960000E+01  0.0000000E+00
-0.7940000E+01  0.0000000E+00
-0.7920000E+01  0.0000000E+00
-0.7900000E+01  0.0000000E+00
-0.7880000E+01  0.0000000E+00
-0.7860000E+01  0.0000000E+00
-0.7840000E+01  0.0000000E+00
-0.7820000E+01  0.0000000E+00
-0.7800000E+01  0.0000000E+00
-0.7780000E+01  0.0000000E+00
-0.7760000E+01  0.0000000E+00
-0.7740000E+01  0.0000000E+00
-0.7720000E+01  0.0000000E+00
-0.7700000E+01  0.0000000E+00
-0.7680000E+01  0.0000000E+00
-0.7660000E+01  0.0000000E+00
-0.7640000E+01  0.0000000E+00
-0.7620000E+01  0.0000000E+00
-0.7600000E+01  0.0000000E+00
-0.7580000E+01  0.0000000E+00
-0.7560000E+01  0.0000000E+00
-0.7540000E+01  0.0000000E+00
-0.7520000E+01  0.0000000E+00
-0.7500000E+01  0.0000000E+00
-0.7480000E+01  0.0000000E+00
-0.7460000E+01  0.0000000E+00
-0.7440000E+01  0.0000000E+00
-0.7420000E+01  0.0000000E+00
-0.7400000E+01  0.0000000E+00
-0.7380000E+01  0.0000000E+00
-0.7360000E+01  0.0000000E+00
-0.7340000E+01  0.0000000E+00
-0.7320000E+01  0.0000000E+00
-0.7300000E+01  0.0000000E+00
-0.7280000E+01  0.0000000E+00
-0.7260000E+01  0.0000000E+00
-0.7240000E+01  0.0000000E+00
-0.7220000E+01  0.0000000E+00
-0.7200000E+01  0.0000000E+00
-0.7180000E+01  0.0000000E+00
-0.7160000E+01  0.0000000E+00
-0.7140000E+01  0.0000000E+00
-0.7120000E+01  0.0000000E+00
-0.7100000E+01  0.0000000E+00
-0.7080000E+01  0.0000000E+00
-0.7060000E+01  0.0000000E+00
-0.7040000E+01  0.0000000E+00
-0.7020000E+01  0.0000000E+00
-0.7000000E+01  0.0000000E+00
-0.6980000E+01  0.0000000E+00
-0.6960000E+01  0.0000000E+00
-0.6940000E+01  0.0000000E+00
-0.6920000E+01  0.0000000E+00
-0.6900000E+01  0.0000000E+00
-0.6880000E+01  0.0000000E+00
-0.6860000E+01  0.0000000E+00
-0.6840000E+01  0.0000000E+00
-0.6820000E+01  0.0000000E+00
-0.6800000E+01  0.0000000E+00
-0.6780000E+01  0.0000000E+00
-0.6760000E+01  0.0000000E+00
-0.6740000E+01  0.0000000E+00
-0.6720000E+01  0.0000000E+00
-0.6700000E+01  0.0000000E+00
-0.6680000E+01  0.0000000E+00
-0.6660000E+01  0.0000000E+00
-0.6640000E+01  0.0000000E+00
-0.6620000E+01  0.0000000E+00
-0.6600000E+01  0.0000000E+00
-0.6580000E+01  0.0000000E+00
-0.6560000E+01  0.0000000E+00
-0.6540000E+01  0.0000000E+00
-0.6520000E+01  0.0000000E+00
-0.6500000E+01  0.0000000E+00
-0.6480000E+01  0.0000000E+00
-0.6460000E+01  0.0000000E+00
-0.6440000E+01  0.0000000E+00
-0.6420000E+01  0.0000000E+00
-0.6400000E+01  0.0000000E+00
-0.6380000E+01  0.0000000E+00
-0.6360000E+01  0.0000000E+00
-0.6340000E+01  0.0000000E+00
-0.6320000E+01  0.0000000E+00
-0.6300000E+01  0.0000000E+00
-0.6280000E+01  0.0000000E+00
-0.6260000E+01  0.0000000E+00
-0.6240000E+01  0.0000000E+00
-0.6220000E+01  0.0000000E+00
-0.6200000E+01  0.0000000E+00
-0.6180000E+01  0.0000000E+00
-0.6160000E+01  0.0000000E+00
-0.6140000E+01  0.0000000E+00
-0.6120000E+01  0.0000000E+00
-0.6100000E+01  0.0000000E+00
-0.6080000E+01  0.0000000E+00
-0.6060000E+01  0.0000000E+00
-0.6040000E+01  0.0000000E+00
-0.6020000E+01  0.0000000E+00
-0.6000000E+01  0.0000000E+00
-0.5980000E+01  0.0000000E+00
-0.5960000E+01  0.0000000E+00
-0.5940000E+01  0.0000000E+00
-0.5920000E+01  0.0000000E+00
-0.5900000E+01  0.0000000E+00
-0.5880000E+01  0.0000000E+00
-0.5860000E+01  0.0000000E+00
-0.5840000E+01  0.0000000E+00
-0.5820000E+01  0.0000000E+00
-0.5800000E+01  0.0000000E+00
-0.5780000E+01  0.0000000E+00
-0.5760000E+01  0.0000000E+00
-0.5740000E+01  0.0000000E+00
-0.5720000E+01  0.0000000E+00
-0.5700000E+01  0.0000000E+00
-0.5680000E+01  0.0000000E+00
-0.5660000E+01  0.0000000E+00
-0.5640000E+01  0.0000000E+00
-0.5620000E+01  0.0000000E+00
-0.5600000E+01  0.0000000E+00
-0.5580000E+01  0.0000000E+00
-0.5560000E+01  0.0000000E+00
-0.5540000E+01  0.0000000E+00
-0.5520000E+01  0.0000000E+00
-0.5500000E+01  0.0000000E+00
-0.5480000E+01  0.0000000E+00
-0.5460000E+01  0.0000000E+00
-0.5440000E+01  0.0000000E+00
-0.5420000E+01  0.0000000E+00
-0.5400000E+01  0.0000000E+00
-0.5380000E+01  0.0000000E+00
-0.5360000E+01  0.0000000E+00
-0.5340000E+01  0.0000000E+00
-0.5320000E+01  0.0000000E+00
-0.5300000E+01  0.0000000E+00
-0.5280000E+01  0.0000000E+00
-0.5260000E+01  0.0000000E+00
-0.5240000E+01  0.0000000E+00
-0.5220000E+01  0.0000000E+00
-0.5200000E+01  0.0000000E+00
-0.5180000E+01  0.0000000E+00
-0.5160000E+01  0.0000000E+00
-0.5140000E+01  0.0000000E+00
-0.5120000E+01  0.0000000E+00
-0.5100000E+01  0.0000000E+00
-0.5080000E+01  0.0000000E+00
-0.5060000E+01  0.0000000E+00
-0.5040000E+01  0.0000000E+00
-0.5020000E+01  0.0000000E+00
-0.5000000E+01  0.0000000E+00
-0.4980000E+01  0.0000000E+00
-0.4960000E+01  0.0000000E+00
-0.4940000E+01  0.0000000E+00
-0.4920000E+01  0.0000000E+00
-0.4900000E+01  0.0000000E+00
-0.4880000E+01  0.0000000E+00
-0.4860000E+01  0.0000000E+00
-0.4840000E+01  0.0000000E+00
-0.4820000E+01  0.0000000E+00
-0.4800000E+01  0.0000000E+00
-0.4780000E+01  0.0000000E+00
-0.4760000E+01  0.0000000E+00
-0.4740000E+01  0.0000000E+00
-0.4720000E+01  0.0000000E+00
-0.4700000E+01  0.0000000E+00
-0.4680000E+01  0.0000000E+00
-0.4660000E+01  0.0000000E+00
-0.4640000E+01  0.0000000E+00
-0.4620000E+01  0.0000000E+00
-0.4600000E+01  0.0000000E+00
-0.4580000E+01  0.0000000E+00
-0.4560000E+01  0.0000000E+00
-0.4540000E+01  0.0000000E+00
-0.4520000E+01  0.0000000E+00
-0.4500000E+01  0.0000000E+00
-0.4480000E+01  0.0000000E+00
-0.4460000E+01  0.0000000E+00
-0.4440000E+01  0.0000000E+00
-0.4420000E+01  0.0000000E+00
-0.4400000E+01  0.0000000E+00
-0.4380000E+01  0.0000000E+00
-0.4360000E+01  0.0000000E+00
-0.4340000E+01  0.0000000E+00
-0.4320000E+01  0.0000000E+00
-0.4300000E+01  0.0000000E+00
-0.4280000E+01  0.0000000E+00
-0.4260000E+01  0.0000000E+00
-0.4240000E+01  0.0000000E+00
-0.4220000E+01  0.0000000E+00
-0.4200000E+01  0.0000000E+00
-0.4180000E+01  0.0000000E+00
-0.4160000E+01  0.0000000E+00
-0.4140000E+01  0.0000000E+00
-0.4120000E+01  0.0000000E+00
-0.4100000E+01  0.0000000E+00
-0.4080000E+01  0.0000000E+00
-0.4060000E+01  0.0000000E+00
-0.4040000E+01  0.0000000E+00
-0.4020000E+01  0.0000000E+00
-0.4000000E+01  0.0000000E+00
-0.3980000E+01  0.0000000E+00
-0.3960000E+01  0.0000000E+00
-0.3940000E+01  0.0000000E+00
-0.3920000E+01  0.0000000E+00
-0.3900000E+01  0.0000000E+00
-0.3880000E+01  0.0000000E+00
-0.3860000E+01  0.0000000E+00
-0.3840000E+01  0.0000000E+00
-0.3820000E+01  0.0000000E+00
-0.3800000E+01  0.0000000E+00
-0.3780000E+01  0.0000000E+00
-0.3760000E+01  0.0000000E+00
-0.3740000E+01  0.0000000E+00
-0.3720000E+01  0.0000000E+00
-0.3700000E+01  0.0000000E+00
-0.3680000E+01  0.0000000E+00
-0.3660000E+01  0.0000000E+00
-0.3640000E+01  0.0000000E+00
-0.3620000E+01  0.0000000E+00
-0.3600000E+01  0.0000000E+00
-0.3580000E+01  0.0000000E+00
-0.3560000E+01  0.0000000E+00
-0.3540000E+01  0.0000000E+00
-0.3520000E+01  0.0000000E+00
-0.3500000E+01  0.0000000E+00
-0.3480000E+01  0.0000000E+00
-0.3460000E+01  0.0000000E+00
-0.3440000E+01  0.0000000E+00
-0.3420000E+01  0.0000000E+00
-0.3400000E+01  0.0000000E+00
-0.3380000E+01  0.0000000E+00
-0.3360000E+01  0.0000000E+00
-0.3340000E+01  0.0000000E+00
-0.3320000E+01  0.0000000E+00
-0.3300000E+01  0.0000000E+00
-0.3280000E+01  0.0000000E+00
-0.3260000E+01  0.0000000E+00
-0.3240000E+01  0.0000000E+00
-0.3220000E+01  0.0000000E+00
-0.3200000E+01  0.0000000E+00
-0.3180000E+01  0.0000000E+00
-0.3160000E+01  0.0000000E+00
-0.3140000E+01  0.0000000E+00
-0.3120000E+01  0.0000000E+00
-0.3100000E+01  0.0000000E+00
-0.3080000E+01  0.0000000E+00
-0.3060000E+01  0.0000000E+00
-0.3040000E+01  0.0000000E+00
-0.3020000E+01  0.0000000E+00
-0.3000000E+01  0.0000000E+00
-0.2980000E+01  0.0000000E+00
-0.2960000E+01  0.0000000E+00
-0.2940000E+01  0.0000000E+00
-0.2920000E+01  0.0000000E+00
-0.2900000E+01  0.0000000E+00
-0.2880000E+01  0.0000000E+00
-0.2860000E+01  0.0000000E+00
-0.2840000E+01  0.0000000E+00
-0.2820000E+01  0.0000000E+00
-0.2800000E+01  0.0000000E+00
-0.2780000E+01  0.0000000E+00
-0.2760000E+01  0.0000000E+00
-0.2740000E+01  0.0000000E+00
-0.2720000E+01  0.0000000E+00
-0.2700000E+01  0.0000000E+00
-0.2680000E+01  0.0000000E+00
-0.2660000E+01  0.0000000E+00
-0.2640000E+01  0.0000000E+00
-0.2620000E+01  0.0000000E+00
-0.2600000E+01  0.0000000E+00
-0.2580000E+01  0.0000000E+00
-0.2560000E+01  0.0000000E+00
-0.2540000E+01  0.0000000E+00
-0.2520000E+01  0.0000000E+00
-0.2500000E+01  0.0000000E+00
-0.2480000E+01  0.0000000E+00
-0.2460000E+01  0.0000000E+00
-0.2440000E+01  0.0000000E+00
-0.2420000E+01  0.0000000E+00
-0.2400000E+01  0.0000000E+00
-0.2380000E+01  0.0000000E+00
-0.2360000E+01  0.0000000E+00
-0.2340000E+01  0.0000000E+00
-0.2320000E+01  0.0000000E+00
-0.2300000E+01  0.0000000E+00
-0.2280000E+01  0.0000000E+00
-0.2260000E+01  0.0000000E+00
-0.2240000E+01  0.0000000E+00
-0.2220000E+01  0.0000000E+00
-0.2200000E+01  0.0000000E+00
-0.2180000E+01  0.0000000E+00
-0.2160000E+01  0.0000000E+00
-0.2140000E+01  0.0000000E+00
-0.2120000E+01  0.0000000E+00
-0.2100000E+01  0.0000000E+00
-0.2080000E+01  0.0000000E+00
-0.2060000E+01  0.0000000E+00
-0.2040000E+01  0.0000000E+00
-0.2020000E+01  0.0000000E+00
-0.2000000E+01  0.0000000E+00
-0.1980000E+01  0.0000000E+00
-0.1960000E+01  0.0000000E+00
-0.1940000E+01  0.0000000E+00
-0.1920000E+01  0.0000000E+00
-0.1900000E+01  0.0000000E+00
-0.1880000E+01  0.0000000E+00
-0.1860000E+01  0.0000000E+00
-0.1840000E+01  0.0000000E+00
-0.1820000E+01  0.0000000E+00
-0.1800000E+01  0.0000000E+00
-0.1780000E+01  0.0000000E+00
-0.1760000E+01  0.0000000E+00
-0.1740000E+01  0.0000000E+00
-0.1720000E+01  0.0000000E+00
-0.1700000E+01  0.0000000E+00
-0.1680000E+01  0.0000000E+00
-0.1660000E+01  0.0000000E+00
-0.1640000E+01  0.0000000E+00
-0.1620000E+01  0.0000000E+00
-0.1600000E+01  0.0000000E+00
-0.1580000E+01  0.0000000E+00
-0.1560000E+01  0.0000000E+00
-0.1540000E+01  0.0000000E+00
-0.1520000E+01  0.0000000E+00
-0.1500000E+01  0.0000000E+00
-0.1480000E+01  0.0000000E+00
-0.1460000E+01  0.0000000E+00
-0.1440000E+01  0.0000000E+00
-0.1420000E+01  0.0000000E+00
-0.1400000E+01  0.0000000E+00
-0.1380000E+01  0.0000000E+00
-0.1360000E+01  0.0000000E+00
-0.1340000E+01  0.0000000E+00
-0.1320000E+01  0.0000000E+00
-0.1300000E+01  0.0000000E+00
-0.1280000E+01  0.0000000E+00
-0.1260000E+01  0.0000000E+00
-0.1240000E+01  0.0000000E+00
-0.1220000E+01  0.0000000E+00
-0.1200000E+01  0.0000000E+00
-0.1180000E+01  0.0000000E+00
-0.1160000E+01  0.0000000E+00
-0.1140000E+01  0.0000000E+00
-0.1120000E+01  0.0000000E+00
-0.1100000E+01  0.0000000E+00
-0.1080000E+01  0.0000000E+00
-0.1060000E+01  0.0000000E+00
-0.1040000E+01  0.0000000E+00
-0.1020000E+01  0.0000000E+00
-0.1000000E+01  0.0000000E+00
-0.9800000E+00  0.0000000E+00
-0.9600000E+00  0.0000000E+00
-0.9400000E+00  0.0000000E+00
-0.9200000E+00  0.0000000E+00
-0.9000000E+00  0.0000000E+00
-0.8800000E+00  0.0000000E+00
-0.8600000E+00  0.0000000E+00
-0.8400000E+00  0.0000000E+00
-0.8200000E+00  0.0000000E+00
-0.8000000E+00  0.0000000E+00
-0.7800000E+00  0.0000000E+00
-0.7600000E+00  0.0000000E+00
-0.7400000E+00  0.0000000E+00
-0.7200000E+00  0.0000000E+00
-0.7000000E+00  0.0000000E+00
-0.6800000E+00  0.0000000E+00
-0.6600000E+00  0.0000000E+00
-0.6400000E+00  0.0000000E+00
-0.6200000E+00  0.0000000E+00
-0.6000000E+00  0.0000000E+00
-0.5800000E+00  0.0000000E+00
-0.5600000E+00  0.0000000E+00
-0.5400000E+00  0.0000000E+00
-0.5200000E+00  0.0000000E+00
-0.5000000E+00  0.0000000E+00
-0.4800000E+00  0.0000000E+00
-0.4600000E+00  0.0000000E+00
-0.4400000E+00  0.0000000E+00
-0.4200000E+00  0.0000000E+00
-0.4000000E+00  0.0000000E+00
-0.3800000E+00  0.0000000E+00
-0.3600000E+00  0.0000000E+00
-0.3400000E+00  0.0000000E+00
-0.3200000E+00  0.0000000E+00
-0.3000000E+00  0.0000000E+00
-0.2800000E+00  0.0000000E+00
-0.2600000E+00  0.0000000E+00
-0.2400000E+00  0.0000000E+00
-0.2200000E+00  0.0000000E+00
-0.2000000E+00  0.0000000E+00
-0.1800000E+00  0.0000000E+00
-0.1600000E+00  0.0000000E+00
-0.1400000E+00  0.0000000E+00
-0.1200000E+00  0.0000000E+00
-0.1000000E+00  0.0000000E+00
-0.8000000E-01  0.0000000E+00
-0.6000000E-01  0.0000000E+00
-0.4000000E-01  0.0000000E+00
-0.2000000E-01  0.0000000E+00
 0.0000000E+00  0.0000000E+00
 0.2000000E-01  0.0000000E+00
 0.4000000E-01  0.0000000E+00
 0.6000000E-01  0.0000000E+00
 0.8000000E-01  0.0000000E+00
 0.1000000E+00  0.0000000E+00
 0.1200000E+00  0.0000000E+00
 0.1400000E+00  0.0000000E+00
 0.1600000E+00  0.0000000E+00
 0.1800000E+00  0.0000000E+00
 0.2000000E+00  0.0000000E+00
 0.2200000E+00  0.0000000E+00
 0.2400000E+00  0.0000000E+00
 0.2600000E+00  0.0000000E+00
 0.2800000E+00  0.0000000E+00
 0.3000000E+00  0.0000000E+00
 0.3200000E+00  0.0000000E+00
 0.3400000E+00  0.0000000E+00
 0.3600000E+00  0.0000000E+00
 0.3800000E+00  0.0000000E+00
 0.4000000E+00  0.0000000E+00
 0.4200000E+00  0.0000000E+00
 0.4400000E+00  0.0000000E+00
 0.4600000E+00  0.0000000E+00
 0.4800000E+00  0.0000000E+00
 0.5000000E+00  0.0000000E+00
 0.5200000E+00  0.0000000E+00
 0.5400000E+00  0.0000000E+00
 0.5600000E+00  0.0000000E+00
 0.5800000E+00  0.0000000E+00
 0.6000000E+00  0.0000000E+00
 0.6200000E+00  0.0000000E+00
 0.6400000E+00  0.0000000E+00
 0.6600000E+00  0.0000000E+00
 0.6800000E+00  0.0000000E+00
 0.7000000E+00  0.0000000E+00
 0.7200000E+00  0.0000000E+00
 0.7400000E+00  0.0000000E+00
 0.7600000E+00  0.0000000E+00
 0.7800000E+00  0.0000000E+00
 0.8000000E+00  0.0000000E+00
 0.8200000E+00  0.0000000E+00
 0.8400000E+00  0.0000000E+00
 0.8600000E+00  0.0000000E+00
 0.8800000E+00  0.0000000E+00
 0.9000000E+00  0.0000000E+00
 0.9200000E+00  0.0000000E+00
 0.9400000E+00  0.0000000E+00
 0.9600000E+00  0.0000000E+00
 0.9800000E+00  0.0000000E+00
 0.1000000E+01  0.0000000E+00
 0.1020000E+01  0.0000000E+00
 0.1040000E+01  0.0000000E+00
 0.1060000E+01  0.0000000E+00
 0.1080000E+01  0.0000000E+00
 0.1100000E+01  0.0000000E+00
 0.1120000E+01  0.0000000E+00
 0.1140000E+01  0.0000000E+00
 0.1160000E+01  0.0000000E+00
 0.1180000E+01  0.0000000E+00
 0.1200000E+01  0.0000000E+00
 0.1220000E+01  0.0000000E+00
 0.1240000E+01  0.0000000E+00
 0.1260000E+01  0.0000000E+00
 0.1280000E+01  0.0000000E+00
 0.1300000E+01  0.0000000E+00
 0.1320000E+01  0.0000000E+00
 0.1340000E+01  0.0000000E+00
 0.1360000E+01  0.0000000E+00
 0.1380000E+01  0.0000000E+00
 0.1400000E+01  0.0000000E+00
 0.1420000E+01  0.0000000E+00
 0.1440000E+01  0.0000000E+00
 0.1460000E+01  0.0000000E+00
 0.1480000E+01  0.0000000E+00
 0.1500000E+01  0.0000000E+00
 0.1520000E+01  0.0000000E+00
 0.1540000E+01  0.0000000E+00
 0.1560000E+01  0.0000000E+00
 0.1580000E+01  0.0000000E+00
 0.1600000E+01  0.0000000E+00
 0.1620000E+01  0.0000000E+00
 0.1640000E+01  0.0000000E+00
 0.1660000E+01  0.0000000E+00
 0.1680000E+01  0.0000000E+00
 0.1700000E+01  0.0000000E+00
 0.1720000E+01  0.0000000E+00
 0.1740000E+01  0.0000000E+00
 0.1760000E+01  0.0000000E+00
 0.1780000E+01  0.0000000E+00
 0.1800000E+01  0.0000000E+00
 0.1820000E+01  0.0000000E+00
 0.1840000E+01  0.0000000E+00
 0.1860000E+01  0.0000000E+00
 0.1880000E+01  0.0000000E+00
 0.1900000E+01  0.0000000E+00
 0.1920000E+01  0.0000000E+00
 0.1940000E+01  0.0000000E+00
 0.1960000E+01  0.0000000E+00
 0.1980000E+01  0.0000000E+00
 0.2000000E+01  0.0000000E+00
 0.2020000E+01  0.0000000E+00
 0.2040000E+01  0.0000000E+00
 0.2060000E+01  0.0000000E+00
 0.2080000E+01  0.0000000E+00
 0.2100000E+01  0.0000000E+00
 0.2120000E+01  0.0000000E+00
 0.2140000E+01  0.0000000E+00
 0.2160000E+01  0.0000000E+00
 0.2180000E+01  0.0000000E+00
 0.2200000E+01  0.0000000E+00
 0.2220000E+01  0.0000000E+00
 0.2240000E+01  0.0000000E+00
 0.2260000E+01  0.0000000E+00
 0.2280000E+01  0.0000000E+00
 0.2300000E+01  0.0000000E+00
 0.2320000E+01  0.0000000E+00
 0.2340000E+01  0.0000000E+00
 0.2360000E+01  0.0000000E+00
 0.2380000E+01  0.0000000E+00
 0.2400000E+01  0.0000000E+00
 0.2420000E+01  0.0000000E+00
 0.2440000E+01  0.0000000E+00
 0.2460000E+01  0.0000000E+00
 0.2480000E+01  0.0000000E+00
 0.2500000E+01  0.0000000E+00
 0.2520000E+01  0.0000000E+00
 0.2540000E+01  0.0000000E+00
 0.2560000E+01  0.0000000E+00
 0.2580000E+01  0.0000000E+00
 0.2600000E+01  0.0000000E+00
 0.2620000E+01  0.0000000E+00
 0.2640000E+01  0.0000000E+00
 0.2660000E+01  0.0000000E+00
 0.2680000E+01  0.0000000E+00
 0.2700000E+01  0.0000000E+00
 0.2720000E+01  0.0000000E+00
 0.2740000E+01  0.0000000E+00
 0.2760000E+01  0.0000000E+00
 0.2780000E+01  0.0000000E+00
 0.2800000E+01  0.0000000E+00
 0.2820000E+01  0.0000000E+00
 0.2840000E+01  0.0000000E+00
 0.2860000E+01  0.0000000E+00
 0.2880000E+01  0.0000000E+00
 0.2900000E+01  0.0000000E+00
 0.2920000E+01  0.0000000E+00
 0.2940000E+01  0.0000000E+00
 0.2960000E+01  0.0000000E+00
 0.2980000E+01  0.0000000E+00
 0.3000000E+01  0.0000000E+00
 0.3020000E+01  0.0000000E+00
 0.3040000E+01  0.0000000E+00
 0.3060000E+01  0.0000000E+00
 0.3080000E+01  0.0000000E+00
 0.3100000E+01  0.0000000E+00
 0.3120000E+01  0.0000000E+00
 0.3140000E+01  0.0000000E+00
 0.3160000E+01  0.0000000E+00
 0.3180000E+01  0.0000000E+00
 0.3200000E+01  0.0000000E+00
 0.3220000E+01  0.0000000E+00
 0.3240000E+01  0.0000000E+00
 0.3260000E+01  0.0000000E+00
 0.3280000E+01  0.0000000E+00
 0.3300000E+01  0.0000000E+00
 0.3320000E+01  0.0000000E+00
 0.3340000E+01  0.0000000E+00
 0.3360000E+01  0.0000000E+00
 0.3380000E+01  0.0000000E+00
 0.3400000E+01  0.0000000E+00
 0.3420000E+01  0.0000000E+00
 0.3440000E+01  0.0000000E+00
 0.3460000E+01  0.0000000E+00
 0.3480000E+01  0.0000000E+00
 0.3500000E+01  0.0000000E+00
 0.3520000E+01  0.0000000E+00
 0.3540000E+01  0.0000000E+00
 0.3560000E+01  0.0000000E+00
 0.3580000E+01  0.0000000E+00
 0.3600000E+01  0.0000000E+00
 0.3620000E+01  0.0000000E+00
 0.3640000E+01  0.0000000E+00
 0.3660000E+01  0.0000000E+00
 0.3680000E+01  0.0000000E+00
 0.3700000E+01  0.0000000E+00
 0.3720000E+01  0.0000000E+00
 0.3740000E+01  0.0000000E+00
 0.3760000E+01  0.0000000E+00
 0.3780000E+01  0.0000000E+00
 0.3800000E+01  0.0000000E+00
 0.3820000E+01  0.0000000E+00
 0.3840000E+01  0.0000000E+00
 0.3860000E+01  0.0000000E+00
 0.3880000E+01  0.0000000E+00
 0.3900000E+01  0.0000000E+00
 0.3920000E+01  0.0000000E+00
 0.3940000E+01  0.0000000E+00
 0.3960000E+01  0.0000000E+00
 0.3980000E+01  0.0000000E+00
 0.4000000E+01  0.0000000E+00
 0.4020000E+01  0.0000000E+00
 0.4040000E+01  0.0000000E+00
 0.4060000E+01  0.0000000E+00
 0.4080000E+01  0.0000000E+00
 0.4100000E+01  0.0000000E+00
 0.4120000E+01  0.0000000E+00
 0.4140000E+01  0.0000000E+00
 0.4160000E+01  0.0000000E+00
 0.4180000E+01  0.0000000E+00
 0.4200000E+01  0.0000000E+00
 0.4220000E+01  0.0000000E+00
 0.4240000E+01  0.0000000E+00
 0.4260000E+01  0.0000000E+00
 0.4280000E+01  0.0000000E+00
 0.4300000E+01  0.0000000E+00
 0.4320000E+01  0.0000000E+00
 0.4340000E+01  0.0000000E+00
 0.4360000E+01  0.0000000E+00
 0.4380000E+01  0.0000000E+00
 0.4400000E+01  0.0000000E+00
 0.4420000E+01  0.0000000E+00
 0.4440000E+01  0.0000000E+00
 0.4460000E+01  0.0000000E+00
 0.4480000E+01  0.0000000E+00
 0.4500000E+01  0.0000000E+00
 0.4520000E+01  0.0000000E+00
 0.4540000E+01  0.0000000E+00
 0.4560000E+01  0.0000000E+00
 0.4580000E+01  0.0000000E+00
 0.4600000E+01  0.0000000E+00
 0.4620000E+01  0.0000000E+00
 0.4640000E+01  0.0000000E+00
 0.4660000E+01  0.0000000E+00
 0.4680000E+01  0.0000000E+00
 0.4700000E+01  0.0000000E+00
 0.4720000E+01  0.0000000E+00
 0.4740000E+01  0.0000000E+00
 0.4760000E+01  0.0000000E+00
 0.4780000E+01  0.0000000E+00
 0.4800000E+01  0.0000000E+00
 0.4820000E+01  0.0000000E+00
 0.4840000E+01  0.0000000E+00
 0.4860000E+01  0.0000000E+00
 0.4880000E+01  0.0000000E+00
 0.4900000E+01  0.0000000E+00
 0.4920000E+01  0.0000000E+00
 0.4940000E+01  0.0000000E+00
 0.4960000E+01  0.0000000E+00
 0.4980000E+01  0.0000000E+00
 0.5000000E+01  0.0000000E+00
 0.5020000E+01  0.0000000E+00
 0.5040000E+01  0.0000000E+00
 0.5060000E+01  0.0000000E+00
 0.5080000E+01  0.0000000E+00
 0.5100000E+01  0.0000000E+00
 0.5120000E+01  0.0000000E+00
 0.5140000E+01  0.0000000E+00
 0.5160000E+01  0.0000000E+00
 0.5180000E+01  0.0000000E+00
 0.5200000E+01  0.0000000E+00
 0.5220000E+01  0.0000000E+00
 0.5240000E+01  0.0000000E+00
 0.5260000E+01  0.0000000E+00
 0.5280000E+01  0.0000000E+00
 0.5300000E+01  0.0000000E+00
 0.5320000E+01  0.0000000E+00
 0.5340000E+01  0.0000000E+00
 0.5360000E+01  0.0000000E+00
 0.5380000E+01  0.0000000E+00
 0.5400000E+01  0.0000000E+00
 0.5420000E+01  0.0000000E+00
 0.5440000E+01  0.0000000E+00
 0.5460000E+01  0.0000000E+00
 0.5480000E+01  0.0000000E+00
 0.5500000E+01  0.0000000E+00
 0.5520000E+01  0.0000000E+00
 0.5540000E+01  0.0000000E+00
 0.5560000E+01  0.0000000E+00
 0.5580000E+01  0.0000000E+00
 0.5600000E+01  0.0000000E+00
 0.5620000E+01  0.0000000E+00
 0.5640000E+01  0.0000000E+00
 0.5660000E+01  0.0000000E+00
 0.5680000E+01  0.0000000E+00
 0.5700000E+01  0.0000000E+00
 0.5720000E+01  0.0000000E+00
 0.5740000E+01  0.0000000E+00
 0.5760000E+01  0.0000000E+00
 0.5780000E+01  0.0000000E+00
 0.5800000E+01  0.0000000E+00
 0.5820000E+01  0.0000000E+00
 0.5840000E+01  0.0000000E+00
 0.5860000E+01  0.0000000E+00
 0.5880000E+01  0.0000000E+00
 0.5900000E+01  0.0000000E+00
 0.5920000E+01  0.0000000E+00
 0.5940000E+01  0.0000000E+00
 0.5960000E+01  0.0000000E+00
 0.5980000E+01  0.0000000E+00
 0.6000000E+01  0.0000000E+00
 0.6020000E+01  0.0000000E+00
 0.6040000E+01  0.0000000E+00
 0.6060000E+01  0.0000000E+00
 0.6080000E+01  0.0000000E+00
 0.6100000E+01  0.0000000E+00
 0.6120000E+01  0.0000000E+00
 0.6140000E+01  0.0000000E+00
 0.6160000E+01  0.0000000E+00
 0.6180000E+01  0.0000000E+00
 0.6200000E+01  0.0000000E+00
 0.6220000E+01  0.0000000E+00
 0.6240000E+01  0.0000000E+00
 0.6260000E+01  0.0000000E+00
 0.6280000E+01  0.0000000E+00
 0.6300000E+01  0.0000000E+00
 0.6320000E+01  0.0000000E+00
 0.6340000E+01  0.0000000E+00
 0.6360000E+01  0.0000000E+00
 0.6380000E+01  0.0000000E+00
 0.6400000E+01  0.0000000E+00
 0.6420000E+01  0.0000000E+00
 0.6440000E+01  0.0000000E+00
 0.6460000E+01  0.0000000E+00
 0.6480000E+01  0.0000000E+00
 0.6500000E+01  0.0000000E+00
 0.6520000E+01  0.0000000E+00
 0.6540000E+01  0.0000000E+00
 0.6560000E+01  0.0000000E+00
 0.6580000E+01  0.0000000E+00
 0.6600000E+01  0.0000000E+00
 0.6620000E+01  0.0000000E+00
 0.6640000E+01  0.0000000E+00
 0.6660000E+01  0.0000000E+00
 0.6680000E+01  0.0000000E+00
 0.6700000E+01  0.0000000E+00
 0.6720000E+01  0.0000000E+00
 0.6740000E+01  0.0000000E+00
 0.6760000E+01  0.0000000E+00
 0.6780000E+01  0.0000000E+00
 0.6800000E+01  0.0000000E+00
 0.6820000E+01  0.0000000E+00
 0.6840000E+01  0.0000000E+00
 0.6860000E+01  0.0000000E+00
 0.6880000E+01  0.0000000E+00
 0.6900000E+01  0.0000000E+00
 0.6920000E+01  0.0000000E+00
 0.6940000E+01  0.0000000E+00
 0.6960000E+01  0.0000000E+00
 0.6980000E+01  0.0000000E+00
 0.7000000E+01  0.0000000E+00
 0.7020000E+01  0.0000000E+00
 0.7040000E+01  0.0000000E+00
 0.7060000E+01  0.0000000E+00
 0.7080000E+01  0.0000000E+00
 0.7100000E+01  0.0000000E+00
 0.7120000E+01  0.0000000E+00
 0.7140000E+01  0.0000000E+00
 0.7160000E+01  0.0000000E+00
 0.7180000E+01  0.0000000E+00
 0.7200000E+01  0.0000000E+00
 0.7220000E+01  0.0000000E+00
 0.7240000E+01  0.0000000E+00
 0.7260000E+01  0.0000000E+00
 0.7280000E+01  0.0000000E+00
 0.7300000E+01  0.0000000E+00
 0.7320000E+01  0.0000000E+00
 0.7340000E+01  0.0000000E+00
 0.7360000E+01  0.0000000E+00
 0.7380000E+01  0.0000000E+00
 0.7400000E+01  0.0000000E+00
 0.7420000E+01  0.0000000E+00
 0.7440000E+01  0.0000000E+00
 0.7460000E+01  0.0000000E+00
 0.7480000E+01  0.0000000E+00
 0.7500000E+01  0.0000000E+00
 0.7520000E+01  0.0000000E+00
 0.7540000E+01  0.0000000E+00
 0.7560000E+01  0.0000000E+00
 0.7580000E+01  0.0000000E+00
 0.7600000E+01  0.0000000E+00
 0.7620000E+01  0.0000000E+00
 0.7640000E+01  0.0000000E+00
 0.7660000E+01  0.0000000E+00
 0.7680000E+01  0.0000000E+00
 0.7700000E+01  0.0000000E+00
 0.7720000E+01  0.0000000E+00
 0.7740000E+01  0.0000000E+00
 0.7760000E+01  0.0000000E+00
 0.7780000E+01  0.0000000E+00
 0.7800000E+01  0.0000000E+00
 0.7820000E+01  0.0000000E+00
 0.7840000E+01  0.0000000E+00
 0.7860000E+01  0.0000000E+00
 0.7880000E+01  0.0000000E+00
 0.7900000E+01  0.0000000E+00
 0.7920000E+01  0.0000000E+00
 0.7940000E+01  0.0000000E+00
 0.7960000E+01  0.0000000E+00
 0.7980000E+01  0.0000000E+00
 0.8000000E+01  0.0000000E+00
 0.8020000E+01  0.0000000E+00
 0.8040000E+01  0.0000000E+00
 0.8060000E+01  0.0000000E+00
 0.8080000E+01  0.0000000E+00
 0.8100000E+01  0.0000000E+00
 0.8120000E+01  0.0000000E+00
 0.8140000E+01  0.0000000E+00
 0.8160000E+01  0.0000000E+00
 0.8180000E+01  0.0000000E+00
 0.8200000E+01  0.0000000E+00
 0.8220000E+01  0.0000000E+00
 0.8240000E+01  0.0000000E+00
 0.8260000E+01  0.0000000E+00
 0.8280000E+01  0.0000000E+00
 0.8300000E+01  0.0000000E+00
 0.8320000E+01  0.0000000E+00
 0.8340000E+01  0.0000000E+00
 0.8360000E+01  0.0000000E+00
 0.8380000E+01  0.0000000E+00
 0.8400000E+01  0.0000000E+00
 0.8420000E+01  0.0000000E+00
 0.8440000E+01  0.0000000E+00
 0.8460000E+01  0.0000000E+00
 0.8480000E+01  0.0000000E+00
 0.8500000E+01  0.0000000E+00
 0.8520000E+01  0.0000000E+00
 0.8540000E+01  0.0000000E+00
 0.8560000E+01  0.0000000E+00
 0.8580000E+01  0.0000000E+00
 0.8600000E+01  0.0000000E+00
 0.8620000E+01  0.0000000E+00
 0.8640000E+01  0.0000000E+00
 0.8660000E+01  0.0000000E+00
 0.8680000E+01  0.0000000E+00
 0.8700000E+01  0.0000000E+00
 0.8720000E+01  0.0000000E+00
 0.8740000E+01  0.0000000E+00
 0.8760000E+01  0.0000000E+00
 0.8780000E+01  0.0000000E+00
 0.8800000E+01  0.0000000E+00
 0.8820000E+01  0.0000000E+00
 0.8840000E+01  0.0000000E+00
 0.8860000E+01  0.0000000E+00
 0.8880000E+01  0.0000000E+00
 0.8900000E+01  0.0000000E+00
 0.8920000E+01  0.0000000E+00
 0.8940000E+01  0.0000000E+00
 0.8960000E+01  0.0000000E+00
 0.8980000E+01  0.0000000E+00
 0.9000000E+01  0.0000000E+00
 0.9020000E+01  0.0000000E+00
 0.9040000E+01  0.0000000E+00
 0.9060000E+01  0.0000000E+00
 0.9080000E+01  0.0000000E+00
 0.9100000E+01  0.0000000E+00
 0.9120000E+01  0.0000000E+00
 0.9140000E+01  0.0000000E+00
 0.9160000E+01  0.0000000E+00
 0.9180000E+01  0.0000000E+00
 0.9200000E+01  0.0000000E+00
 0.9220000E+01  0.0000000E+00
 0.9240000E+01  0.0000000E+00
 0.9260000E+01  0.0000000E+00
 0.9280000E+01  0.0000000E+00
 0.9300000E+01  0.0000000E+00
 0.9320000E+01  0.0000000E+00
 0.9340000E+01  0.0000000E+00
 0.9360000E+01  0.0000000E+00
 0.9380000E+01  0.0000000E+00
 0.9400000E+01  0.0000000E+00
 0.9420000E+01  0.0000000E+00
 0.9440000E+01  0.0000000E+00
 0.9460000E+01  0.0000000E+00
 0.9480000E+01  0.0000000E+00
 0.9500000E+01  0.0000000E+00
 0.9520000E+01  0.0000000E+00
 0.9540000E+01  0.0000000E+00
 0.9560000E+01  0.0000000E+00
 0.9580000E+01  0.0000000E+00
 0.9600000E+01  0.0000000E+00
 0.9620000E+01  0.0000000E+00
 0.9640000E+01  0.0000000E+00
 0.9660000E+01  0.0000000E+00
 0.9680000E+01  0.0000000E+00
 0.9700000E+01  0.0000000E+00
 0.9720000E+01  0.0000000E+00
 0.9740000E+01  0.0000000E+00
 0.9760000E+01  0.0000000E+00
 0.9780000E+01  0.0000000E+00
 0.9800000E+01  0.0000000E+00
 0.9820000E+01  0.0000000E+00
 0.9840000E+01  0.0000000E+00
 0.9860000E+01  0.0000000E+00
 0.9880000E+01  0.0000000E+00
 0.9900000E+01  0.0000000E+00
 0.9920000E+01  0.0000000E+00
 0.9940000E+01  0.0000000E+00
 0.9960000E+01  0.0000000E+00
 0.9980000E+01  0.0000000E+00
 0.1000000E+02  0.0000000E+00
 0.1002000E+02  0.0000000E+00
 0.1004000E+02  0.0000000E+00
 0.1006000E+02  0.0000000E+00
 0.1008000E+02  0.0000000E+00
 0.1010000E+02  0.0000000E+00
 0.1012000E+02  0.0000000E+00
 0.1014000E+02  0.0000000E+00
 0.1016000E+02  0.0000000E+00
 0.1018000E+02  0.0000000E+00
 0.1020000E+02  0.0000000E+00
 0.1022000E+02  0.0000000E+00
 0.1024000E+02  0.0000000E+00
 0.1026000E+02  0.0000000E+00
 0.1028000E+02  0.0000000E+00
 0.1030000E+02  0.0000000E+00
 0.1032000E+02  0.0000000E+00
 0.1034000E+02  0.0000000E+00
 0.1036000E+02  0.0000000E+00
 0.1038000E+02  0.0000000E+00
 0.1040000E+02  0.0000000E+00
 0.1042000E+02  0.0000000E+00
 0.1044000E+02  0.0000000E+00
 0.1046000E+02  0.0000000E+00
 0.1048000E+02  0.0000000E+00
 0.1050000E+02  0.0000000E+00
 0.1052000E+02  0.0000000E+00
 0.1054000E+02  0.0000000E+00
 0.1056000E+02  0.0000000E+00
 0.1058000E+02  0.0000000E+00
 0.1060000E+02  0.0000000E+00
 0.1062000E+02  0.0000000E+00
 0.1064000E+02  0.0000000E+00
 0.1066000E+02  0.0000000E+00
 0.1068000E+02  0.0000000E+00
 0.1070000E+02  0.0000000E+00
 0.1072000E+02  0.0000000E+00
 0.1074000E+02  0.0000000E+00
 0.1076000E+02  0.0000000E+00
 0.1078000E+02  0.0000000E+00
 0.1080000E+02  0.0000000E+00
 0.1082000E+02  0.0000000E+00
 0.1084000E+02  0.0000000E+00
 0.1086000E+02  0.0000000E+00
 0.1088000E+02  0.0000000E+00
 0.1090000E+02  0.0000000E+00
 0.1092000E+02  0.0000000E+00
 0.1094000E+02  0.0000000E+00
 0.1096000E+02  0.0000000E+00
 0.1098000E+02  0.0000000E+00
 0.1100000E+02  0.0000000E+00
 0.1102000E+02  0.0000000E+00
 0.1104000E+02  0.0000000E+00
 0.1106000E+02  0.0000000E+00
 0.1108000E+02  0.0000000E+00
 0.1110000E+02  0.0000000E+00
 0.1112000E+02  0.0000000E+00
 0.1114000E+02  0.0000000E+00
 0.1116000E+02  0.0000000E+00
 0.1118000E+02  0.0000000E+00
 0.1120000E+02  0.0000000E+00
 0.1122000E+02  0.0000000E+00
 0.1124000E+02  0.0000000E+00
 0.1126000E+02  0.0000000E+00
 0.1128000E+02  0.0000000E+00
 0.1130000E+02  0.0000000E+00
 0.1132000E+02  0.0000000E+00
 0.1134000E+02  0.0000000E+00
 0.1136000E+02  0.0000000E+00
 0.1138000E+02  0.0000000E+00
 0.1140000E+02  0.0000000E+00
 0.1142000E+02  0.0000000E+00
 0.1144000E+02  0.0000000E+00
 0.1146000E+02  0.0000000E+00
 0.1148000E+02  0.0000000E+00
 0.1150000E+02  0.0000000E+00
 0.1152000E+02  0.0000000E+00
 0.1154000E+02  0.0000000E+00
 0.1156000E+02  0.0000000E+00
 0.1158000E+02  0.0000000E+00
 0.1160000E+02  0.0000000E+00
 0.1162000E+02  0.0000000E+00
 0.1164000E+02  0.0000000E+00
 0.1166000E+02  0.0000000E+00
 0.1168000E+02  0.0000000E+00
 0.1170000E+02  0.0000000E+00
 0.1172000E+02  0.0000000E+00
 0.1174000E+02  0.0000000E+00
 0.1176000E+02  0.0000000E+00
 0.1178000E+02  0.0000000E+00
 0.1180000E+02  0.0000000E+00
 0.1182000E+02  0.0000000E+00
 0.1184000E+02  0.0000000E+00
 0.1186000E+02  0.0000000E+00
 0.1188000E+02  0.0000000E+00
 0.1190000E+02  0.0000000E+00
 0.1192000E+02  0.0000000E+00
 0.1194000E+02  0.0000000E+00
 0.1196000E+02  0.0000000E+00
 0.1198000E+02  0.0000000E+00