  -8.0000000000000002E-002     0.0000000000000000     
  -7.9579999999999998E-002     0.0000000000000000     
  -7.9160000000000008E-002     0.0000000000000000     
  -7.8740000000000004E-002     0.0000000000000000     
  -7.8320000000000001E-002     0.0000000000000000     
  -7.7899999999999997E-002     0.0000000000000000     
  -7.7480000000000007E-002     0.0000000000000000     
  -7.7060000000000003E-002     0.0000000000000000     
  -7.6640000000000000E-002     0.0000000000000000     
  -7.6219999999999996E-002     0.0000000000000000     
  -7.5800000000000006E-002     0.0000000000000000     
  -7.5380000000000003E-002     0.0000000000000000     
  -7.4959999999999999E-002     0.0000000000000000     
  -7.4539999999999995E-002     0.0000000000000000     
  -7.4120000000000005E-002     0.0000000000000000     
  -7.3700000000000002E-002     0.0000000000000000     
  -7.3279999999999998E-002     0.0000000000000000     
  -7.2860000000000008E-002     0.0000000000000000     
  -7.2440000000000004E-002     0.0000000000000000     
  -7.2020000000000001E-002     0.0000000000000000     
  -7.1599999999999997E-002     0.0000000000000000     
  -7.1180000000000007E-002     0.0000000000000000     
  -7.0760000000000003E-002     0.0000000000000000     
  -7.0340000000000000E-002     0.0000000000000000     
  -6.9919999999999996E-002     0.0000000000000000     
  -6.9500000000000006E-002     0.0000000000000000     
  -6.9080000000000003E-002     0.0000000000000000     
  -6.8659999999999999E-002     0.0000000000000000     
  -6.8239999999999995E-002     0.0000000000000000     
  -6.7820000000000005E-002     0.0000000000000000     
  -6.7400000000000002E-002     0.0000000000000000     
  -6.6979999999999998E-002     0.0000000000000000     
  -6.6560000000000008E-002     0.0000000000000000     
  -6.6140000000000004E-002     0.0000000000000000     
  -6.5720000000000001E-002     0.0000000000000000     
  -6.5299999999999997E-002     0.0000000000000000     
  -6.4879999999999993E-002     0.0000000000000000     
  -6.4460000000000003E-002     0.0000000000000000     
  -6.4040000000000000E-002     0.0000000000000000     
  -6.3619999999999996E-002     0.0000000000000000     
  -6.3200000000000006E-002     0.0000000000000000     
  -6.2780000000000002E-002     0.0000000000000000     
  -6.2359999999999999E-002     0.0000000000000000     
  -6.1940000000000002E-002     0.0000000000000000     
  -6.1520000000000005E-002     0.0000000000000000     
  -6.1100000000000002E-002     0.0000000000000000     
  -6.0679999999999998E-002     0.0000000000000000     
  -6.0260000000000001E-002     0.0000000000000000     
  -5.9840000000000004E-002     0.0000000000000000     
  -5.9420000000000001E-002     0.0000000000000000     
  -5.8999999999999997E-002     0.0000000000000000     
  -5.8580000000000000E-002     0.0000000000000000     
  -5.8160000000000003E-002     0.0000000000000000     
  -5.7740000000000000E-002     0.0000000000000000     
  -5.7319999999999996E-002     0.0000000000000000     
  -5.6899999999999999E-002     0.0000000000000000     
  -5.6480000000000002E-002     0.0000000000000000     
  -5.6059999999999999E-002     0.0000000000000000     
  -5.5640000000000002E-002     0.0000000000000000     
  -5.5220000000000005E-002     0.0000000000000000     
  -5.4800000000000001E-002     0.0000000000000000     
  -5.4379999999999998E-002     0.0000000000000000     
  -5.3960000000000001E-002     0.0000000000000000     
  -5.3540000000000004E-002     0.0000000000000000     
  -5.3120000000000001E-002     0.0000000000000000     
  -5.2699999999999997E-002     0.0000000000000000     
  -5.2280000000000000E-002     0.0000000000000000     
  -5.1860000000000003E-002     0.0000000000000000     
  -5.1440000000000000E-002     0.0000000000000000     
  -5.1019999999999996E-002     0.0000000000000000     
  -5.0599999999999999E-002     0.0000000000000000     
  -5.0180000000000002E-002     0.0000000000000000     
  -4.9759999999999999E-002     0.0000000000000000     
  -4.9340000000000002E-002     0.0000000000000000     
  -4.8920000000000005E-002     0.0000000000000000     
  -4.8500000000000001E-002     0.0000000000000000     
  -4.8079999999999998E-002     0.0000000000000000     
  -4.7660000000000001E-002     0.0000000000000000     
  -4.7239999999999997E-002     0.0000000000000000     
  -4.6820000000000001E-002     0.0000000000000000     
  -4.6399999999999997E-002     0.0000000000000000     
  -4.5980000000000000E-002     0.0000000000000000     
  -4.5560000000000003E-002     0.0000000000000000     
  -4.5140000000000000E-002     0.0000000000000000     
  -4.4720000000000003E-002     0.0000000000000000     
  -4.4299999999999999E-002     1.2525509939647786E-040
  -4.3880000000000002E-002     2.5051019879295571E-040
  -4.3459999999999999E-002     2.5051019879295571E-040
  -4.3040000000000002E-002     2.5051019879295571E-040
  -4.2619999999999998E-002     2.5051019879295571E-040
  -4.2200000000000001E-002     2.5051019879295571E-040
  -4.1779999999999998E-002     5.2095588701352182E-040
  -4.1360000000000001E-002    -3.8640612432173632E-039
  -4.0939999999999997E-002     3.4467759977294675E-039
  -4.0520000000000000E-002     3.6167932138925266E-039
  -4.0099999999999997E-002    -1.4512024560210204E-040
  -3.9680000000000000E-002    -8.2540122392161029E-039
  -3.9260000000000003E-002    -1.8606895409919142E-038
  -3.8840000000000000E-002    -3.0547522958135586E-038
  -3.8420000000000003E-002    -3.6574084821657242E-038
  -3.7999999999999999E-002    -2.3971073625852778E-038
  -3.7580000000000002E-002     2.0439783873153971E-038
  -3.7159999999999999E-002     9.7977276379450626E-038
  -3.6740000000000002E-002     2.0560531264278768E-037
  -3.6319999999999998E-002     3.2260459431145732E-037
  -3.5900000000000001E-002     3.1475009703257250E-037
  -3.5479999999999998E-002     5.4790879584410231E-038
  -3.5060000000000001E-002    -5.3729505670950863E-037
  -3.4639999999999997E-002    -1.4795131847387498E-036
  -3.4220000000000000E-002    -2.6431595488682612E-036
  -3.3799999999999997E-002    -3.7255223252644245E-036
  -3.3380000000000000E-002    -4.0609961440507245E-036
  -3.2960000000000003E-002    -2.7091629627249136E-036
  -3.2539999999999999E-002     1.3118087646720552E-036
  -3.2120000000000003E-002     8.7730101331202632E-036
  -3.1699999999999999E-002     1.9668117545472420E-035
  -3.1280000000000002E-002     3.2475698539322208E-035
  -3.0859999999999999E-002     4.3507475157403804E-035
  -3.0440000000000002E-002     4.6505079241125507E-035
  -3.0019999999999998E-002     3.2947053130284740E-035
  -2.9600000000000001E-002    -6.5102379105704024E-036
  -2.9179999999999998E-002    -7.9013362049408363E-035
  -2.8760000000000001E-002    -1.8472580540926438E-034
  -2.8339999999999997E-002    -3.1089664580112528E-034
  -2.7920000000000000E-002    -4.2585403461002224E-034
  -2.7499999999999997E-002    -4.7532538480902473E-034
  -2.7080000000000000E-002    -3.8446352178204225E-034
  -2.6659999999999996E-002    -6.9245634862852136E-035
  -2.6239999999999999E-002     5.3953201159986276E-034
  -2.5820000000000003E-002     1.4585926723751830E-033
  -2.5399999999999999E-002     2.6039067247709902E-033
  -2.4980000000000002E-002     3.7411738241487489E-033
  -2.4559999999999998E-002     4.4519204011637241E-033
  -2.4140000000000002E-002     4.1391770419142160E-033
  -2.3719999999999998E-002     2.1006172513965125E-033
  -2.3300000000000001E-002    -2.3058530183625241E-033
  -2.2879999999999998E-002    -9.3928659889368042E-033
  -2.2460000000000001E-002    -1.8786940250456252E-032
  -2.2039999999999997E-002    -2.9042022364411098E-032
  -2.1620000000000000E-002    -3.7332295861237111E-032
  -2.1199999999999997E-002    -3.9383940784757738E-032
  -2.0780000000000000E-002    -2.9839141735697625E-032
  -2.0359999999999996E-002    -3.2374360598168724E-033
  -1.9939999999999999E-002     4.4272019991113145E-032
  -1.9519999999999996E-002     1.1253451493513331E-031
  -1.9099999999999999E-002     1.9460621648594469E-031
  -1.8680000000000002E-002     2.7420479164421166E-031
  -1.8259999999999998E-002     3.2435773618268563E-031
  -1.7840000000000002E-002     3.0847929997547628E-031
  -1.7420000000000005E-002     1.8516281202062474E-031
  -1.7000000000000001E-002    -8.2323154190884150E-032
  -1.6579999999999998E-002    -5.1164192505373689E-031
  -1.6159999999999994E-002    -1.0832710369464392E-030
  -1.5740000000000004E-002    -1.7216988370164187E-030
  -1.5320000000000000E-002    -2.2811013541894198E-030
  -1.4899999999999997E-002    -2.5426134735765678E-030
  -1.4479999999999993E-002    -2.2313166675869930E-030
  -1.4060000000000003E-002    -1.0603862040416720E-030
  -1.3639999999999999E-002     1.1934475880675156E-030
  -1.3219999999999996E-002     4.5854801775112809E-030
  -1.2799999999999992E-002     8.8815709850204131E-030
  -1.2380000000000002E-002     1.3443719571099033E-029
  -1.1959999999999998E-002     1.7158976632693473E-029
  -1.1539999999999995E-002     1.8457655786490778E-029
  -1.1120000000000005E-002     1.5468804884799461E-029
  -1.0700000000000001E-002     6.3516639080582322E-030
  -1.0279999999999997E-002    -1.0184363443940234E-029
  -9.8599999999999938E-003    -3.4201776165670612E-029
  -9.4400000000000039E-003    -6.3790376589000705E-029
  -9.0200000000000002E-003    -9.4416103054749571E-029
  -8.5999999999999965E-003    -1.1858932098810014E-028
  -8.1799999999999928E-003    -1.2612060412663657E-028
  -7.7600000000000030E-003    -1.0522685762362434E-028
  -7.3399999999999993E-003    -4.4675231699375718E-029
  -6.9199999999999956E-003     6.3012415706234336E-029
  -6.4999999999999919E-003     2.1753352956418599E-028
  -6.0800000000000021E-003     4.0652790255279894E-028
  -5.6599999999999984E-003     6.0199689408397323E-028
  -5.2399999999999947E-003     7.5868843573145902E-028
  -4.8200000000000048E-003     8.1589835950499870E-028
  -4.4000000000000011E-003     7.0405825924425588E-028
  -3.9799999999999974E-003     3.5700858607008514E-028
  -3.5599999999999937E-003    -2.7005621167465760E-028
  -3.1400000000000039E-003    -1.1783797324058098E-027
  -2.7200000000000002E-003    -2.3023050117935687E-027
  -2.2999999999999965E-003    -3.4898156200524046E-027
  -1.8799999999999928E-003    -4.4935334724145296E-027
  -1.4600000000000030E-003    -4.9795899097987724E-027
  -1.0399999999999993E-003    -4.5612370468448009E-027
  -6.1999999999999555E-004    -2.8617232993292543E-027
  -1.9999999999999185E-004     3.9364093316242898E-028
   2.1999999999999797E-004     5.2630264485517491E-027
   6.4000000000000168E-004     1.1466430116084548E-026
   1.0600000000000054E-003     1.8280875853000430E-026
   1.4799999999999952E-003     2.4484213755701018E-026
   1.8999999999999989E-003     2.8383307952408113E-026
   2.3200000000000026E-003     2.7960414177380379E-026
   2.7400000000000063E-003     2.1161211397009075E-026
   3.1599999999999961E-003     6.3274957717002499E-027
   3.5799999999999998E-003    -1.7252205561254896E-026
   4.0000000000000036E-003    -4.8739217921812352E-026
   4.4200000000000073E-003    -8.5193880658800578E-026
   4.8399999999999971E-003    -1.2121923688065409E-025
   5.2600000000000008E-003    -1.4896322054290585E-025
   5.6800000000000045E-003    -1.5864013430937950E-025
   6.1000000000000082E-003    -1.3969443305947220E-025
   6.5199999999999980E-003    -8.2649565319737275E-026
   6.9400000000000017E-003     1.8439617783929594E-026
   7.3600000000000054E-003     1.6316999079685821E-025
   7.7799999999999953E-003     3.4202823444933995E-025
   8.1999999999999990E-003     5.3426871030266584E-025
   8.6200000000000027E-003     7.0713660725286713E-025
   9.0400000000000064E-003     8.1716678256897508E-025
   9.4599999999999962E-003     8.1418258980074947E-025
   9.8799999999999999E-003     6.4833818734080203E-025
   1.0300000000000004E-002     2.8009583984990718E-025
   1.0720000000000007E-002    -3.0759901813151951E-025
   1.1139999999999997E-002    -1.0964080557413882E-024
   1.1560000000000001E-002    -2.0211496451138444E-024
   1.1980000000000005E-002    -2.9626234332686758E-024
   1.2400000000000008E-002    -3.7478122694523517E-024
   1.2819999999999998E-002    -4.1604134721955919E-024
   1.3240000000000002E-002    -3.9638629891474735E-024
   1.3660000000000005E-002    -2.9374940851088863E-024
   1.4079999999999995E-002    -9.2432407360807185E-025
   1.4499999999999999E-002     2.1138859490326653E-024
   1.4920000000000003E-002     6.0415712114991552E-024
   1.5340000000000006E-002     1.0504440760568542E-023
   1.5759999999999996E-002     1.4906871066380554E-023
   1.6180000000000000E-002     1.8424288075078085E-023
   1.6600000000000004E-002     2.0061733255195999E-023
   1.7020000000000007E-002     1.8765709600203451E-023
   1.7439999999999997E-002     1.3589558305060048E-023
   1.7860000000000001E-002     3.9030172207937505E-024
   1.8280000000000005E-002    -1.0374255881311236E-023
   1.8700000000000008E-002    -2.8547572832671036E-023
   1.9119999999999998E-002    -4.8972712083958191E-023
   1.9540000000000002E-002    -6.8981230444159800E-023
   1.9960000000000006E-002    -8.4954822969900462E-023
   2.0380000000000009E-002    -9.2590549793316299E-023
   2.0799999999999999E-002    -8.7380429040710332E-023
   2.1220000000000003E-002    -6.5301576097398320E-023
   2.1640000000000006E-002    -2.3674932211844284E-023
   2.2059999999999996E-002     3.7890816026814919E-023
   2.2480000000000000E-002     1.1659849859467080E-022
   2.2900000000000004E-002     2.0577012740953496E-022
   2.3320000000000007E-002     2.9454967096378393E-022
   2.3739999999999997E-002     3.6818843062769054E-022
   2.4160000000000001E-002     4.0906829265739983E-022
   2.4580000000000005E-002     3.9854974282563079E-022
   2.5000000000000008E-002     3.1962926331087367E-022
   2.5419999999999998E-002     1.6025164697620342E-022
   2.5840000000000002E-002    -8.3026947504065381E-023
   2.6260000000000006E-002    -4.0150010945221840E-022
   2.6680000000000009E-002    -7.7148757425311809E-022
   2.7099999999999999E-002    -1.1529218014080637E-021
   2.7520000000000003E-002    -1.4900296756096595E-021
   2.7940000000000006E-002    -1.7146923266235844E-021
   2.8359999999999996E-002    -1.7528418170686355E-021
   2.8780000000000000E-002    -1.5338968941807342E-021
   2.9200000000000004E-002    -1.0027716626539120E-021
   2.9620000000000007E-002    -1.3344410139630550E-022
   3.0039999999999997E-002     1.0574695032259804E-021
   3.0460000000000001E-002     2.4991964762506153E-021
   3.0880000000000005E-002     4.0597261015809056E-021
   3.1300000000000008E-002     5.5456307066479498E-021
   3.1719999999999998E-002     6.7109720230889551E-021
   3.2140000000000002E-002     7.2768033824673709E-021
   3.2560000000000006E-002     6.9616841596254084E-021
   3.2980000000000009E-002     5.5220957589733907E-021
   3.3399999999999999E-002     2.7999325435261048E-021
   3.3820000000000003E-002    -1.2277233648129123E-021
   3.4240000000000007E-002    -6.4029807632716942E-021
   3.4659999999999996E-002    -1.2353521998529326E-020
   3.5080000000000000E-002    -1.8479329949808200E-020
   3.5500000000000004E-002    -2.3967728004356714E-020
   3.5920000000000007E-002    -2.7842946920216983E-020
   3.6339999999999997E-002    -2.9053394038401277E-020
   3.6760000000000001E-002    -2.6595397171970792E-020
   3.7180000000000005E-002    -1.9666914417401366E-020
   3.7600000000000008E-002    -7.8384342287535304E-021
   3.8019999999999998E-002     8.7773044752012121E-021
   3.8440000000000002E-002     2.9380327135907398E-020
   3.8860000000000006E-002     5.2390078208006665E-020
   3.9280000000000009E-002     7.5430411905691252E-020
   3.9699999999999999E-002     9.5417222481636899E-020
   4.0120000000000003E-002     1.0876528373032039E-019
   4.0540000000000007E-002     1.1171977038081059E-019
   4.0960000000000010E-002     1.0080314318306625E-019
   4.1380000000000000E-002     7.3349915711481601E-020
   4.1800000000000004E-002     2.8083469232797661E-020
   4.2220000000000008E-002    -3.4327890574810090E-020
   4.2639999999999997E-002    -1.1081389678735486E-019
   4.3060000000000001E-002    -1.9562824097993744E-019
   4.3480000000000005E-002    -2.8034076327163949E-019
   4.3900000000000008E-002    -3.5416751998141979E-019
   4.4319999999999998E-002    -4.0468487977933668E-019
   4.4740000000000002E-002    -4.1893856043909842E-019
   4.5159999999999992E-002    -3.8491172575220652E-019
   4.5579999999999996E-002    -2.9326360648215508E-019
   4.5999999999999999E-002    -1.3919415426403182E-019
   4.6420000000000003E-002     7.5759641414586065E-020
   4.6840000000000007E-002     3.4223268512728693E-019
   4.7260000000000010E-002     6.4209751033358531E-019
   4.7680000000000014E-002     9.4834266098783467E-019
   4.8099999999999990E-002     1.2259775688889388E-018
   4.8519999999999994E-002     1.4341102628911985E-018
   4.8939999999999997E-002     1.5292436668408242E-018
   4.9360000000000001E-002     1.4697048838344774E-018
   4.9780000000000005E-002     1.2209685602031937E-018
   5.0200000000000009E-002     7.6148007151489573E-019
   5.0620000000000012E-002     8.8430384880623044E-020
   5.1040000000000016E-002    -7.7718066173712969E-019
   5.1459999999999992E-002    -1.7869418835512328E-018
   5.1879999999999996E-002    -2.8636348760437609E-018
   5.2299999999999999E-002    -3.9027281396079325E-018
   5.2720000000000003E-002    -4.7772696549947484E-018
   5.3140000000000007E-002    -5.3464524265297632E-018
   5.3560000000000010E-002    -5.4677545791764801E-018
   5.3980000000000014E-002    -5.0121835344216958E-018
   5.4400000000000018E-002    -3.8816813154597536E-018
   5.4819999999999994E-002    -2.0273367080212054E-018
   5.5239999999999997E-002     5.3338744633206133E-019
   5.5660000000000001E-002     3.7024278730677019E-018
   5.6080000000000005E-002     7.2921276401116233E-018
   5.6500000000000009E-002     1.1023583828313483E-017
   5.6920000000000012E-002     1.4534199091207414E-017
   5.7340000000000016E-002     1.7395730979565525E-017
   5.7759999999999992E-002     1.9143355005026805E-017
   5.8179999999999996E-002     1.9315238209061501E-017
   5.8599999999999999E-002     1.7500981988618332E-017
   5.9020000000000003E-002     1.3395925340913425E-017
   5.9440000000000007E-002     6.8572495128007432E-018
   5.9860000000000010E-002    -2.0433840276519363E-018
   6.0280000000000014E-002    -1.2976750682410559E-017
   6.0700000000000018E-002    -2.5328808784322101E-017
   6.1119999999999994E-002    -3.8195556337104433E-017
   6.1539999999999997E-002    -5.0405378665443586E-017
   6.1960000000000001E-002    -6.0572762181525401E-017
   6.2380000000000005E-002    -6.7185075145263904E-017
   6.2800000000000009E-002    -6.8721326191751922E-017
   6.3220000000000012E-002    -6.3798518180104958E-017
   6.3640000000000016E-002    -5.1337725794484950E-017
   6.4059999999999992E-002    -3.0738270277953857E-017
   6.4479999999999996E-002    -2.0456254293612438E-018
   6.4899999999999999E-002     3.3904351363394946E-017
   6.5320000000000003E-002     7.5383742941047666E-017
   6.5740000000000007E-002     1.1973136654670880E-016
   6.6160000000000010E-002     1.6339006537139588E-016
   6.6580000000000014E-002     2.0203549302017589E-016
   6.7000000000000018E-002     2.3080476930558256E-016
   6.7419999999999994E-002     2.4462573209051317E-016
   6.7839999999999998E-002     2.3863871579878645E-016
   6.8260000000000001E-002     2.0869331896265914E-016
   6.8680000000000005E-002     1.5189048907121036E-016
   6.9100000000000009E-002     6.7132621766965797E-017
   6.9520000000000012E-002    -4.4366669363558894E-017
   6.9940000000000016E-002    -1.7866805455098245E-016
   7.0359999999999992E-002    -3.2884269233585603E-016
   7.0779999999999996E-002    -4.8491739706562190E-016
   7.1199999999999999E-002    -6.3407826810191937E-016
   7.1620000000000003E-002    -7.6117102231071087E-016
   7.2040000000000007E-002    -8.4951949310401959E-016
   7.2460000000000011E-002    -8.8205979187045894E-016
   7.2880000000000014E-002    -8.4276022531876791E-016
   7.3300000000000018E-002    -7.1826742929910626E-016
   7.3719999999999994E-002    -4.9968262507367467E-016
   7.4139999999999998E-002    -1.8434792899878398E-016
   7.4560000000000001E-002     2.2251324788482065E-016
   7.4980000000000005E-002     7.0647158643242638E-016
   7.5400000000000009E-002     1.2430650518984456E-015
   7.5820000000000012E-002     1.7976496121738455E-015
   7.6240000000000016E-002     2.3260877231699866E-015
   7.6659999999999992E-002     2.7763983981071427E-015
   7.7079999999999996E-002     3.0914378549117935E-015
   7.7499999999999999E-002     3.2126087465568598E-015
   7.7920000000000003E-002     3.0845122900617738E-015
   7.8340000000000007E-002     2.6603538098247455E-015
   7.8760000000000011E-002     1.9078200840814834E-015
   7.9180000000000014E-002     8.1503207088381824E-016
   7.9600000000000018E-002    -6.0389249326826077E-016
   8.0019999999999994E-002    -2.3042292484582444E-015
   8.0439999999999998E-002    -4.2075415303086547E-015
   8.0860000000000001E-002    -6.2007079187817441E-015
   8.1280000000000005E-002    -8.1375689314418054E-015
   8.1700000000000009E-002    -9.8436601076294204E-015
   8.2120000000000012E-002    -1.1124277776405610E-014
   8.2540000000000016E-002    -1.1775959767166661E-014
   8.2959999999999992E-002    -1.1601162429778025E-014
   8.3379999999999996E-002    -1.0425652199028631E-014
   8.3799999999999999E-002    -8.1177736237292874E-015
   8.4220000000000003E-002    -4.6084675081096378E-015
   8.4640000000000007E-002     8.9416364783927493E-017
   8.5060000000000011E-002     5.8641610059817785E-015
   8.5480000000000014E-002     1.2492483645902112E-014
   8.5900000000000018E-002     1.9632909890272285E-014
   8.6319999999999994E-002     2.6827116617259882E-014
   8.6739999999999998E-002     3.3510738326491789E-014
   8.7160000000000001E-002     3.9034841771918582E-014
   8.7580000000000005E-002     4.2698615747257776E-014
   8.8000000000000009E-002     4.3793078906799116E-014
   8.8420000000000012E-002     4.1654755643539568E-014
   8.8840000000000016E-002     3.5727271373581605E-014
   8.9259999999999992E-002     2.5627772636932976E-014
   8.9679999999999996E-002     1.1214121858443124E-014
   9.0100000000000000E-002    -7.3521936787455970E-015
   9.0520000000000003E-002    -2.9552920216789657E-014
   9.0940000000000007E-002    -5.4476008654141693E-014
   9.1360000000000011E-002    -8.0800558943889776E-014
   9.1780000000000014E-002    -1.0680967181500873E-013
   9.2200000000000018E-002    -1.3043593888593347E-013
   9.2619999999999994E-002    -1.4934278321950761E-013
   9.3039999999999998E-002    -1.6104329806471248E-013
   9.3460000000000001E-002    -1.6305529356451512E-013
   9.3880000000000005E-002    -1.5308837726548203E-013
   9.4300000000000009E-002    -1.2925620919059391E-013
   9.4720000000000013E-002    -9.0302982269439945E-014
   9.5140000000000016E-002    -3.5831029877728681E-014
   9.5559999999999992E-002     3.3487922645688457E-014
   9.5979999999999996E-002     1.1573530726021844E-013
   9.6400000000000000E-002     2.0762286721141255E-013
   9.6820000000000003E-002     3.0444487017926889E-013
   9.7240000000000007E-002     4.0012237180789565E-013
   9.7660000000000011E-002     4.8735734898863795E-013
   9.8080000000000014E-002     5.5790636135168208E-013
   9.8500000000000018E-002     6.0297899952656668E-013
   9.8919999999999994E-002     6.1375813574789236E-013
   9.9339999999999998E-002     5.8202865794193385E-013
   9.9760000000000001E-002     5.0089343203234732E-013
  0.10018000000000001          3.6554166511615168E-013
  0.10060000000000001          1.7402749663239080E-013
  0.10102000000000001         -7.1994496036406325E-014
  0.10144000000000002         -3.6663883150629409E-013
  0.10185999999999999         -6.9932466393247221E-013
  0.10228000000000000         -1.0545478390552596E-012
  0.10270000000000000         -1.4119495495630229E-012
  0.10312000000000000         -1.7467362745310974E-012
  0.10354000000000001         -2.0304933822258093E-012
  0.10396000000000001         -2.2324138782332523E-012
  0.10438000000000001         -2.3209401712380598E-012
  0.10480000000000002         -2.2657886819021261E-012
  0.10521999999999999         -2.0402958640835607E-012
  0.10564000000000000         -1.6239889023817672E-012
  0.10606000000000000         -1.0052516406689189E-012
  0.10648000000000001         -1.8392536280740322E-013
  0.10690000000000001          8.2634793300618424E-013
  0.10732000000000001          1.9962336933033146E-012
  0.10774000000000002          3.2795049651214981E-012
  0.10815999999999999          4.6127188500137340E-012
  0.10858000000000000          5.9159870973227718E-012
  0.10900000000000000          7.0949884326578787E-012
  0.10942000000000000          8.0443408866718607E-012
  0.10984000000000001          8.6523704930805038E-012
  0.11026000000000001          8.8072363655705755E-012
  0.11068000000000001          8.4042795489004168E-012
  0.11110000000000002          7.3543464281049000E-012
  0.11151999999999999          5.5927399679140666E-012
  0.11194000000000000          3.0883395205252436E-012
  0.11236000000000000         -1.4766518355585972E-013
  0.11278000000000001         -4.0540639094965004E-012
  0.11320000000000001         -8.5136372801524710E-012
  0.11362000000000001         -1.3349572726762453E-011
  0.11404000000000002         -1.8325015729823200E-011
  0.11446000000000002         -2.3146346935862296E-011
  0.11488000000000000         -2.7470720031119180E-011
  0.11530000000000000         -3.0918149574586064E-011
  0.11572000000000000         -3.3088323247740884E-011
  0.11614000000000001         -3.3581905261514634E-011
  0.11656000000000001         -3.2025897232926882E-011
  0.11698000000000001         -2.8102263368351414E-011
  0.11740000000000002         -2.1578595041037049E-011
  0.11781999999999999         -1.2339345368021449E-011
  0.11824000000000000         -4.1587507983362145E-013
  0.11866000000000000          1.3986945906662985E-011
  0.11908000000000001          3.0469586004753600E-011
  0.11950000000000001          4.8424691073847712E-011
  0.11992000000000001          6.7034128772564686E-011
  0.12034000000000002          8.5278184564784240E-011
  0.12076000000000002          1.0195889364975208E-010
  0.12118000000000000          1.1573848516689938E-010
  0.12160000000000000          1.2519347393969167E-010
  0.12202000000000000          1.2888418885084556E-010
  0.12244000000000001          1.2543826346909603E-010
  0.12286000000000001          1.1364585373420858E-010
  0.12328000000000001          9.2562930397616195E-011
  0.12370000000000002          6.1618345684657145E-011
  0.12411999999999999          2.0718576040938147E-011
  0.12454000000000000         -2.9656010809023638E-011
  0.12496000000000000         -8.8370430646912732E-011
  0.12537999999999999         -1.5357820639650622E-010
  0.12580000000000002         -2.2269467865066118E-010
  0.12622000000000000         -2.9240896363278849E-010
  0.12664000000000003         -3.5873969284173444E-010
  0.12706000000000001         -4.1713972370914736E-010
  0.12747999999999998         -4.6265269562528853E-010
  0.12790000000000001         -4.9012177662311562E-010
  0.12831999999999999         -4.9444771937293802E-010
  0.12874000000000002         -4.7089111866775618E-010
  0.12916000000000000         -4.1540894659164286E-010
  0.12958000000000003         -3.2501326221303621E-010
  0.13000000000000000         -1.9813548144286381E-010
  0.13041999999999998         -3.4977261601111253E-011
  0.13084000000000001          1.6217501944906925E-010
  0.13125999999999999          3.8869358024944940E-010
  0.13168000000000002          6.3743803975680040E-010
  0.13210000000000000          8.9869025923824839E-010
  0.13252000000000003          1.1602220459476899E-009
  0.13294000000000000          1.4075090296525898E-009
  0.13336000000000003          1.6241113890680488E-009
  0.13378000000000001          1.7922249196691929E-009
  0.13419999999999999          1.8934031979172646E-009
  0.13462000000000002          1.9094436625863718E-009
  0.13503999999999999          1.8234156778116789E-009
  0.13546000000000002          1.6208008338414278E-009
  0.13588000000000000          1.2907069769717761E-009
  0.13630000000000003          8.2709950358048418E-010
  0.13672000000000001          2.2999068039382620E-010
  0.13713999999999998         -4.9348033429914360E-010
  0.13756000000000002         -1.3281595219760882E-009
  0.13797999999999999         -2.2502506547538888E-009
  0.13840000000000002         -3.2270323993584827E-009
  0.13882000000000000         -4.2169924369233291E-009
  0.13924000000000003         -5.1704353268739119E-009
  0.13966000000000001         -6.0306197595796100E-009
  0.14007999999999998         -6.7354513734439326E-009
  0.14050000000000001         -7.2197376126706362E-009
  0.14091999999999999         -7.4179828787531713E-009
  0.14134000000000002         -7.2676771164978714E-009
  0.14176000000000000         -6.7129832389166607E-009
  0.14218000000000003         -5.7087229983583280E-009
  0.14260000000000000         -4.2244847105337085E-009
  0.14301999999999998         -2.2486999229022975E-009
  0.14344000000000001          2.0755341558674401E-010
  0.14385999999999999          3.1072083731093926E-009
  0.14428000000000002          6.3846149030073287E-009
  0.14470000000000000          9.9438983965768556E-009
  0.14512000000000003          1.3658533638430113E-008
  0.14554000000000000          1.7372330861012688E-008
  0.14596000000000003          2.0902023371216340E-008
  0.14638000000000001          2.4041587419210954E-008
  0.14679999999999999          2.6568344927436528E-008
  0.14722000000000002          2.8250877152736313E-008
  0.14763999999999999          2.8858603319469785E-008
  0.14806000000000002          2.8172915959169713E-008
  0.14848000000000000          2.5999502748159302E-008