  -8.0000000000000002E-002     0.0000000000000000     
  -7.9579999999999998E-002     0.0000000000000000     
  -7.9160000000000008E-002     0.0000000000000000     
  -7.8740000000000004E-002     0.0000000000000000     
  -7.8320000000000001E-002     0.0000000000000000     
  -7.7899999999999997E-002     0.0000000000000000     
  -7.7480000000000007E-002     0.0000000000000000     
  -7.7060000000000003E-002     0.0000000000000000     
  -7.6640000000000000E-002     0.0000000000000000     
  -7.6219999999999996E-002     0.0000000000000000     
  -7.5800000000000006E-002     0.0000000000000000     
  -7.5380000000000003E-002     0.0000000000000000     
  -7.4959999999999999E-002     0.0000000000000000     
  -7.4539999999999995E-002     0.0000000000000000     
  -7.4120000000000005E-002     0.0000000000000000     
  -7.3700000000000002E-002     0.0000000000000000     
  -7.3279999999999998E-002     0.0000000000000000     
  -7.2860000000000008E-002     0.0000000000000000     
  -7.2440000000000004E-002     0.0000000000000000     
  -7.2020000000000001E-002     0.0000000000000000     
  -7.1599999999999997E-002     0.0000000000000000     
  -7.1180000000000007E-002     0.0000000000000000     
  -7.0760000000000003E-002     0.0000000000000000     
  -7.0340000000000000E-002     0.0000000000000000     
  -6.9919999999999996E-002     0.0000000000000000     
  -6.9500000000000006E-002     0.0000000000000000     
  -6.9080000000000003E-002     0.0000000000000000     
  -6.8659999999999999E-002     0.0000000000000000     
  -6.8239999999999995E-002     0.0000000000000000     
  -6.7820000000000005E-002     0.0000000000000000     
  -6.7400000000000002E-002     0.0000000000000000     
  -6.6979999999999998E-002     0.0000000000000000     
  -6.6560000000000008E-002     0.0000000000000000     
  -6.6140000000000004E-002     0.0000000000000000     
  -6.5720000000000001E-002     0.0000000000000000     
  -6.5299999999999997E-002     0.0000000000000000     
  -6.4879999999999993E-002     0.0000000000000000     
  -6.4460000000000003E-002     0.0000000000000000     
  -6.4040000000000000E-002     0.0000000000000000     
  -6.3619999999999996E-002     0.0000000000000000     
  -6.3200000000000006E-002     0.0000000000000000     
  -6.2780000000000002E-002     0.0000000000000000     
  -6.2359999999999999E-002     0.0000000000000000     
  -6.1940000000000002E-002     0.0000000000000000     
  -6.1520000000000005E-002     0.0000000000000000     
  -6.1100000000000002E-002     0.0000000000000000     
  -6.0679999999999998E-002     0.0000000000000000     
  -6.0260000000000001E-002     0.0000000000000000     
  -5.9840000000000004E-002     0.0000000000000000     
  -5.9420000000000001E-002     0.0000000000000000     
  -5.8999999999999997E-002     0.0000000000000000     
  -5.8580000000000000E-002     0.0000000000000000     
  -5.8160000000000003E-002     0.0000000000000000     
  -5.7740000000000000E-002     0.0000000000000000     
  -5.7319999999999996E-002     0.0000000000000000     
  -5.6899999999999999E-002     0.0000000000000000     
  -5.6480000000000002E-002     0.0000000000000000     
  -5.6059999999999999E-002     0.0000000000000000     
  -5.5640000000000002E-002     0.0000000000000000     
  -5.5220000000000005E-002     0.0000000000000000     
  -5.4800000000000001E-002     0.0000000000000000     
  -5.4379999999999998E-002     0.0000000000000000     
  -5.3960000000000001E-002     0.0000000000000000     
  -5.3540000000000004E-002     0.0000000000000000     
  -5.3120000000000001E-002     0.0000000000000000     
  -5.2699999999999997E-002     0.0000000000000000     
  -5.2280000000000000E-002     0.0000000000000000     
  -5.1860000000000003E-002     0.0000000000000000     
  -5.1440000000000000E-002     0.0000000000000000     
  -5.1019999999999996E-002     0.0000000000000000     
  -5.0599999999999999E-002     0.0000000000000000     
  -5.0180000000000002E-002     0.0000000000000000     
  -4.9759999999999999E-002     0.0000000000000000     
  -4.9340000000000002E-002     0.0000000000000000     
  -4.8920000000000005E-002     0.0000000000000000     
  -4.8500000000000001E-002     0.0000000000000000     
  -4.8079999999999998E-002     0.0000000000000000     
  -4.7660000000000001E-002     0.0000000000000000     
  -4.7239999999999997E-002     0.0000000000000000     
  -4.6820000000000001E-002     0.0000000000000000     
  -4.6399999999999997E-002     0.0000000000000000     
  -4.5980000000000000E-002     0.0000000000000000     
  -4.5560000000000003E-002     0.0000000000000000     
  -4.5140000000000000E-002     0.0000000000000000     
  -4.4720000000000003E-002     0.0000000000000000     
  -4.4299999999999999E-002     0.0000000000000000     
  -4.3880000000000002E-002     0.0000000000000000     
  -4.3459999999999999E-002     0.0000000000000000     
  -4.3040000000000002E-002     0.0000000000000000     
  -4.2619999999999998E-002     0.0000000000000000     
  -4.2200000000000001E-002     0.0000000000000000     
  -4.1779999999999998E-002     0.0000000000000000     
  -4.1360000000000001E-002     0.0000000000000000     
  -4.0939999999999997E-002     0.0000000000000000     
  -4.0520000000000000E-002     0.0000000000000000     
  -4.0099999999999997E-002     0.0000000000000000     
  -3.9680000000000000E-002     0.0000000000000000     
  -3.9260000000000003E-002     0.0000000000000000     
  -3.8840000000000000E-002     0.0000000000000000     
  -3.8420000000000003E-002     0.0000000000000000     
  -3.7999999999999999E-002     0.0000000000000000     
  -3.7580000000000002E-002     0.0000000000000000     
  -3.7159999999999999E-002     0.0000000000000000     
  -3.6740000000000002E-002     0.0000000000000000     
  -3.6319999999999998E-002     0.0000000000000000     
  -3.5900000000000001E-002     0.0000000000000000     
  -3.5479999999999998E-002     0.0000000000000000     
  -3.5060000000000001E-002     0.0000000000000000     
  -3.4639999999999997E-002     0.0000000000000000     
  -3.4220000000000000E-002     0.0000000000000000     
  -3.3799999999999997E-002     0.0000000000000000     
  -3.3380000000000000E-002     0.0000000000000000     
  -3.2960000000000003E-002     0.0000000000000000     
  -3.2539999999999999E-002     0.0000000000000000     
  -3.2120000000000003E-002     0.0000000000000000     
  -3.1699999999999999E-002     0.0000000000000000     
  -3.1280000000000002E-002     0.0000000000000000     
  -3.0859999999999999E-002     0.0000000000000000     
  -3.0440000000000002E-002     0.0000000000000000     
  -3.0019999999999998E-002     0.0000000000000000     
  -2.9600000000000001E-002     0.0000000000000000     
  -2.9179999999999998E-002     0.0000000000000000     
  -2.8760000000000001E-002     0.0000000000000000     
  -2.8339999999999997E-002     0.0000000000000000     
  -2.7920000000000000E-002     0.0000000000000000     
  -2.7499999999999997E-002     0.0000000000000000     
  -2.7080000000000000E-002     0.0000000000000000     
  -2.6659999999999996E-002     0.0000000000000000     
  -2.6239999999999999E-002     0.0000000000000000     
  -2.5820000000000003E-002     0.0000000000000000     
  -2.5399999999999999E-002     0.0000000000000000     
  -2.4980000000000002E-002     0.0000000000000000     
  -2.4559999999999998E-002     0.0000000000000000     
  -2.4140000000000002E-002     0.0000000000000000     
  -2.3719999999999998E-002     0.0000000000000000     
  -2.3300000000000001E-002     0.0000000000000000     
  -2.2879999999999998E-002     0.0000000000000000     
  -2.2460000000000001E-002     0.0000000000000000     
  -2.2039999999999997E-002     0.0000000000000000     
  -2.1620000000000000E-002     0.0000000000000000     
  -2.1199999999999997E-002     0.0000000000000000     
  -2.0780000000000000E-002     0.0000000000000000     
  -2.0359999999999996E-002     0.0000000000000000     
  -1.9939999999999999E-002     0.0000000000000000     
  -1.9519999999999996E-002     0.0000000000000000     
  -1.9099999999999999E-002     0.0000000000000000     
  -1.8680000000000002E-002     0.0000000000000000     
  -1.8259999999999998E-002     0.0000000000000000     
  -1.7840000000000002E-002     0.0000000000000000     
  -1.7420000000000005E-002     0.0000000000000000     
  -1.7000000000000001E-002     0.0000000000000000     
  -1.6579999999999998E-002     0.0000000000000000     
  -1.6159999999999994E-002     0.0000000000000000     
  -1.5740000000000004E-002     0.0000000000000000     
  -1.5320000000000000E-002     0.0000000000000000     
  -1.4899999999999997E-002     0.0000000000000000     
  -1.4479999999999993E-002     0.0000000000000000     
  -1.4060000000000003E-002     0.0000000000000000     
  -1.3639999999999999E-002     0.0000000000000000     
  -1.3219999999999996E-002     0.0000000000000000     
  -1.2799999999999992E-002     0.0000000000000000     
  -1.2380000000000002E-002     0.0000000000000000     
  -1.1959999999999998E-002     0.0000000000000000     
  -1.1539999999999995E-002     0.0000000000000000     
  -1.1120000000000005E-002     0.0000000000000000     
  -1.0700000000000001E-002     0.0000000000000000     
  -1.0279999999999997E-002     0.0000000000000000     
  -9.8599999999999938E-003     0.0000000000000000     
  -9.4400000000000039E-003     0.0000000000000000     
  -9.0200000000000002E-003     0.0000000000000000     
  -8.5999999999999965E-003     0.0000000000000000     
  -8.1799999999999928E-003     0.0000000000000000     
  -7.7600000000000030E-003     0.0000000000000000     
  -7.3399999999999993E-003     0.0000000000000000     
  -6.9199999999999956E-003     0.0000000000000000     
  -6.4999999999999919E-003     0.0000000000000000     
  -6.0800000000000021E-003     0.0000000000000000     
  -5.6599999999999984E-003     0.0000000000000000     
  -5.2399999999999947E-003     0.0000000000000000     
  -4.8200000000000048E-003     0.0000000000000000     
  -4.4000000000000011E-003     0.0000000000000000     
  -3.9799999999999974E-003     0.0000000000000000     
  -3.5599999999999937E-003     0.0000000000000000     
  -3.1400000000000039E-003     0.0000000000000000     
  -2.7200000000000002E-003     0.0000000000000000     
  -2.2999999999999965E-003     0.0000000000000000     
  -1.8799999999999928E-003     0.0000000000000000     
  -1.4600000000000030E-003     0.0000000000000000     
  -1.0399999999999993E-003     0.0000000000000000     
  -6.1999999999999555E-004     0.0000000000000000     
  -1.9999999999999185E-004     0.0000000000000000     
   2.1999999999999797E-004     0.0000000000000000     
   6.4000000000000168E-004     0.0000000000000000     
   1.0600000000000054E-003     0.0000000000000000     
   1.4799999999999952E-003     0.0000000000000000     
   1.8999999999999989E-003     0.0000000000000000     
   2.3200000000000026E-003     0.0000000000000000     
   2.7400000000000063E-003     0.0000000000000000     
   3.1599999999999961E-003     0.0000000000000000     
   3.5799999999999998E-003     0.0000000000000000     
   4.0000000000000036E-003     0.0000000000000000     
   4.4200000000000073E-003     0.0000000000000000     
   4.8399999999999971E-003     0.0000000000000000     
   5.2600000000000008E-003     0.0000000000000000     
   5.6800000000000045E-003     0.0000000000000000     
   6.1000000000000082E-003     0.0000000000000000     
   6.5199999999999980E-003     0.0000000000000000     
   6.9400000000000017E-003     0.0000000000000000     
   7.3600000000000054E-003     0.0000000000000000     
   7.7799999999999953E-003     0.0000000000000000     
   8.1999999999999990E-003     0.0000000000000000     
   8.6200000000000027E-003     0.0000000000000000     
   9.0400000000000064E-003     0.0000000000000000     
   9.4599999999999962E-003     0.0000000000000000     
   9.8799999999999999E-003     0.0000000000000000     
   1.0300000000000004E-002     0.0000000000000000     
   1.0720000000000007E-002     0.0000000000000000     
   1.1139999999999997E-002     0.0000000000000000     
   1.1560000000000001E-002     0.0000000000000000     
   1.1980000000000005E-002     0.0000000000000000     
   1.2400000000000008E-002     0.0000000000000000     
   1.2819999999999998E-002     0.0000000000000000     
   1.3240000000000002E-002     0.0000000000000000     
   1.3660000000000005E-002     0.0000000000000000     
   1.4079999999999995E-002     0.0000000000000000     
   1.4499999999999999E-002     0.0000000000000000     
   1.4920000000000003E-002     0.0000000000000000     
   1.5340000000000006E-002     0.0000000000000000     
   1.5759999999999996E-002     0.0000000000000000     
   1.6180000000000000E-002     0.0000000000000000     
   1.6600000000000004E-002     0.0000000000000000     
   1.7020000000000007E-002     0.0000000000000000     
   1.7439999999999997E-002     0.0000000000000000     
   1.7860000000000001E-002     0.0000000000000000     
   1.8280000000000005E-002     0.0000000000000000     
   1.8700000000000008E-002     0.0000000000000000     
   1.9119999999999998E-002     0.0000000000000000     
   1.9540000000000002E-002     0.0000000000000000     
   1.9960000000000006E-002     0.0000000000000000     
   2.0380000000000009E-002     0.0000000000000000     
   2.0799999999999999E-002     0.0000000000000000     
   2.1220000000000003E-002     0.0000000000000000     
   2.1640000000000006E-002     0.0000000000000000     
   2.2059999999999996E-002     0.0000000000000000     
   2.2480000000000000E-002     0.0000000000000000     
   2.2900000000000004E-002     0.0000000000000000     
   2.3320000000000007E-002     0.0000000000000000     
   2.3739999999999997E-002     0.0000000000000000     
   2.4160000000000001E-002     0.0000000000000000     
   2.4580000000000005E-002     0.0000000000000000     
   2.5000000000000008E-002     0.0000000000000000     
   2.5419999999999998E-002     0.0000000000000000     
   2.5840000000000002E-002     0.0000000000000000     
   2.6260000000000006E-002     0.0000000000000000     
   2.6680000000000009E-002     0.0000000000000000     
   2.7099999999999999E-002     0.0000000000000000     
   2.7520000000000003E-002     0.0000000000000000     
   2.7940000000000006E-002     0.0000000000000000     
   2.8359999999999996E-002     0.0000000000000000     
   2.8780000000000000E-002     0.0000000000000000     
   2.9200000000000004E-002     0.0000000000000000     
   2.9620000000000007E-002     0.0000000000000000     
   3.0039999999999997E-002     0.0000000000000000     
   3.0460000000000001E-002     0.0000000000000000     
   3.0880000000000005E-002     0.0000000000000000     
   3.1300000000000008E-002     0.0000000000000000     
   3.1719999999999998E-002     0.0000000000000000     
   3.2140000000000002E-002     0.0000000000000000     
   3.2560000000000006E-002     0.0000000000000000     
   3.2980000000000009E-002     0.0000000000000000     
   3.3399999999999999E-002     0.0000000000000000     
   3.3820000000000003E-002     0.0000000000000000     
   3.4240000000000007E-002     0.0000000000000000     
   3.4659999999999996E-002     0.0000000000000000     
   3.5080000000000000E-002     0.0000000000000000     
   3.5500000000000004E-002     0.0000000000000000     
   3.5920000000000007E-002     0.0000000000000000     
   3.6339999999999997E-002     0.0000000000000000     
   3.6760000000000001E-002     0.0000000000000000     
   3.7180000000000005E-002     0.0000000000000000     
   3.7600000000000008E-002     0.0000000000000000     
   3.8019999999999998E-002     0.0000000000000000     
   3.8440000000000002E-002     0.0000000000000000     
   3.8860000000000006E-002     0.0000000000000000     
   3.9280000000000009E-002     0.0000000000000000     
   3.9699999999999999E-002     0.0000000000000000     
   4.0120000000000003E-002     0.0000000000000000     
   4.0540000000000007E-002     0.0000000000000000     
   4.0960000000000010E-002     0.0000000000000000     
   4.1380000000000000E-002     0.0000000000000000     
   4.1800000000000004E-002     0.0000000000000000     
   4.2220000000000008E-002     0.0000000000000000     
   4.2639999999999997E-002     0.0000000000000000     
   4.3060000000000001E-002     0.0000000000000000     
   4.3480000000000005E-002     0.0000000000000000     
   4.3900000000000008E-002     0.0000000000000000     
   4.4319999999999998E-002     0.0000000000000000     
   4.4740000000000002E-002     0.0000000000000000     
   4.5159999999999992E-002     0.0000000000000000     
   4.5579999999999996E-002     0.0000000000000000     
   4.5999999999999999E-002     0.0000000000000000     
   4.6420000000000003E-002     0.0000000000000000     
   4.6840000000000007E-002     0.0000000000000000     
   4.7260000000000010E-002     0.0000000000000000     
   4.7680000000000014E-002     0.0000000000000000     
   4.8099999999999990E-002     0.0000000000000000     
   4.8519999999999994E-002     0.0000000000000000     
   4.8939999999999997E-002     0.0000000000000000     
   4.9360000000000001E-002     0.0000000000000000     
   4.9780000000000005E-002     0.0000000000000000     
   5.0200000000000009E-002     0.0000000000000000     
   5.0620000000000012E-002     0.0000000000000000     
   5.1040000000000016E-002     0.0000000000000000     
   5.1459999999999992E-002     0.0000000000000000     
   5.1879999999999996E-002     0.0000000000000000     
   5.2299999999999999E-002     0.0000000000000000     
   5.2720000000000003E-002     0.0000000000000000     
   5.3140000000000007E-002     0.0000000000000000     
   5.3560000000000010E-002     0.0000000000000000     
   5.3980000000000014E-002     0.0000000000000000     
   5.4400000000000018E-002     0.0000000000000000     
   5.4819999999999994E-002     0.0000000000000000     
   5.5239999999999997E-002     0.0000000000000000     
   5.5660000000000001E-002     0.0000000000000000     
   5.6080000000000005E-002     0.0000000000000000     
   5.6500000000000009E-002     0.0000000000000000     
   5.6920000000000012E-002     0.0000000000000000     
   5.7340000000000016E-002     0.0000000000000000     
   5.7759999999999992E-002     0.0000000000000000     
   5.8179999999999996E-002     0.0000000000000000     
   5.8599999999999999E-002     0.0000000000000000     
   5.9020000000000003E-002     0.0000000000000000     
   5.9440000000000007E-002     0.0000000000000000     
   5.9860000000000010E-002     0.0000000000000000     
   6.0280000000000014E-002     0.0000000000000000     
   6.0700000000000018E-002     0.0000000000000000     
   6.1119999999999994E-002     0.0000000000000000     
   6.1539999999999997E-002     0.0000000000000000     
   6.1960000000000001E-002     0.0000000000000000     
   6.2380000000000005E-002     0.0000000000000000     
   6.2800000000000009E-002     0.0000000000000000     
   6.3220000000000012E-002     0.0000000000000000     
   6.3640000000000016E-002     0.0000000000000000     
   6.4059999999999992E-002     0.0000000000000000     
   6.4479999999999996E-002     0.0000000000000000     
   6.4899999999999999E-002     0.0000000000000000     
   6.5320000000000003E-002     0.0000000000000000     
   6.5740000000000007E-002     0.0000000000000000     
   6.6160000000000010E-002     0.0000000000000000     
   6.6580000000000014E-002     0.0000000000000000     
   6.7000000000000018E-002     0.0000000000000000     
   6.7419999999999994E-002     0.0000000000000000     
   6.7839999999999998E-002     0.0000000000000000     
   6.8260000000000001E-002     0.0000000000000000     
   6.8680000000000005E-002     0.0000000000000000     
   6.9100000000000009E-002     0.0000000000000000     
   6.9520000000000012E-002     0.0000000000000000     
   6.9940000000000016E-002     0.0000000000000000     
   7.0359999999999992E-002     0.0000000000000000     
   7.0779999999999996E-002     0.0000000000000000     
   7.1199999999999999E-002     0.0000000000000000     
   7.1620000000000003E-002     0.0000000000000000     
   7.2040000000000007E-002     0.0000000000000000     
   7.2460000000000011E-002     0.0000000000000000     
   7.2880000000000014E-002     0.0000000000000000     
   7.3300000000000018E-002     0.0000000000000000     
   7.3719999999999994E-002     0.0000000000000000     
   7.4139999999999998E-002     0.0000000000000000     
   7.4560000000000001E-002     0.0000000000000000     
   7.4980000000000005E-002     0.0000000000000000     
   7.5400000000000009E-002     0.0000000000000000     
   7.5820000000000012E-002     0.0000000000000000     
   7.6240000000000016E-002     0.0000000000000000     
   7.6659999999999992E-002     0.0000000000000000     
   7.7079999999999996E-002     0.0000000000000000     
   7.7499999999999999E-002     0.0000000000000000     
   7.7920000000000003E-002     0.0000000000000000     
   7.8340000000000007E-002     0.0000000000000000     
   7.8760000000000011E-002     0.0000000000000000     
   7.9180000000000014E-002     0.0000000000000000     
   7.9600000000000018E-002     0.0000000000000000     
   8.0019999999999994E-002     0.0000000000000000     
   8.0439999999999998E-002     0.0000000000000000     
   8.0860000000000001E-002     0.0000000000000000     
   8.1280000000000005E-002     0.0000000000000000     
   8.1700000000000009E-002     0.0000000000000000     
   8.2120000000000012E-002     0.0000000000000000     
   8.2540000000000016E-002     0.0000000000000000     
   8.2959999999999992E-002     0.0000000000000000     
   8.3379999999999996E-002     0.0000000000000000     
   8.3799999999999999E-002     0.0000000000000000     
   8.4220000000000003E-002     0.0000000000000000     
   8.4640000000000007E-002     0.0000000000000000     
   8.5060000000000011E-002     0.0000000000000000     
   8.5480000000000014E-002     0.0000000000000000     
   8.5900000000000018E-002     0.0000000000000000     
   8.6319999999999994E-002     0.0000000000000000     
   8.6739999999999998E-002     0.0000000000000000     
   8.7160000000000001E-002     0.0000000000000000     
   8.7580000000000005E-002     0.0000000000000000     
   8.8000000000000009E-002     0.0000000000000000     
   8.8420000000000012E-002     0.0000000000000000     
   8.8840000000000016E-002     0.0000000000000000     
   8.9259999999999992E-002     0.0000000000000000     
   8.9679999999999996E-002     0.0000000000000000     
   9.0100000000000000E-002     0.0000000000000000     
   9.0520000000000003E-002     0.0000000000000000     
   9.0940000000000007E-002     0.0000000000000000     
   9.1360000000000011E-002     0.0000000000000000     
   9.1780000000000014E-002     0.0000000000000000     
   9.2200000000000018E-002     0.0000000000000000     
   9.2619999999999994E-002     0.0000000000000000     
   9.3039999999999998E-002     0.0000000000000000     
   9.3460000000000001E-002     0.0000000000000000     
   9.3880000000000005E-002     0.0000000000000000     
   9.4300000000000009E-002     0.0000000000000000     
   9.4720000000000013E-002     0.0000000000000000     
   9.5140000000000016E-002     0.0000000000000000     
   9.5559999999999992E-002     0.0000000000000000     
   9.5979999999999996E-002     0.0000000000000000     
   9.6400000000000000E-002     0.0000000000000000     
   9.6820000000000003E-002     0.0000000000000000     
   9.7240000000000007E-002     0.0000000000000000     
   9.7660000000000011E-002     0.0000000000000000     
   9.8080000000000014E-002     0.0000000000000000     
   9.8500000000000018E-002     0.0000000000000000     
   9.8919999999999994E-002     0.0000000000000000     
   9.9339999999999998E-002     0.0000000000000000     
   9.9760000000000001E-002     0.0000000000000000     
  0.10018000000000001          0.0000000000000000     
  0.10060000000000001          0.0000000000000000     
  0.10102000000000001          0.0000000000000000     
  0.10144000000000002          0.0000000000000000     
  0.10185999999999999          0.0000000000000000     
  0.10228000000000000          0.0000000000000000     
  0.10270000000000000          0.0000000000000000     
  0.10312000000000000          0.0000000000000000     
  0.10354000000000001          0.0000000000000000     
  0.10396000000000001          0.0000000000000000     
  0.10438000000000001          0.0000000000000000     
  0.10480000000000002          0.0000000000000000     
  0.10521999999999999          0.0000000000000000     
  0.10564000000000000          0.0000000000000000     
  0.10606000000000000          0.0000000000000000     
  0.10648000000000001          0.0000000000000000     
  0.10690000000000001          0.0000000000000000     
  0.10732000000000001          0.0000000000000000     
  0.10774000000000002          0.0000000000000000     
  0.10815999999999999          0.0000000000000000     
  0.10858000000000000          0.0000000000000000     
  0.10900000000000000          0.0000000000000000     
  0.10942000000000000          0.0000000000000000     
  0.10984000000000001          0.0000000000000000     
  0.11026000000000001          0.0000000000000000     
  0.11068000000000001          0.0000000000000000     
  0.11110000000000002          0.0000000000000000     
  0.11151999999999999          0.0000000000000000     
  0.11194000000000000          0.0000000000000000     
  0.11236000000000000          0.0000000000000000     
  0.11278000000000001          0.0000000000000000     
  0.11320000000000001          0.0000000000000000     
  0.11362000000000001          0.0000000000000000     
  0.11404000000000002          0.0000000000000000     
  0.11446000000000002          0.0000000000000000     
  0.11488000000000000          0.0000000000000000     
  0.11530000000000000          0.0000000000000000     
  0.11572000000000000          0.0000000000000000     
  0.11614000000000001          0.0000000000000000     
  0.11656000000000001          0.0000000000000000     
  0.11698000000000001          0.0000000000000000     
  0.11740000000000002          0.0000000000000000     
  0.11781999999999999          0.0000000000000000     
  0.11824000000000000          0.0000000000000000     
  0.11866000000000000          0.0000000000000000     
  0.11908000000000001          0.0000000000000000     
  0.11950000000000001          0.0000000000000000     
  0.11992000000000001          0.0000000000000000     
  0.12034000000000002          0.0000000000000000     
  0.12076000000000002          0.0000000000000000     
  0.12118000000000000          0.0000000000000000     
  0.12160000000000000          0.0000000000000000     
  0.12202000000000000          0.0000000000000000     
  0.12244000000000001          0.0000000000000000     
  0.12286000000000001          0.0000000000000000     
  0.12328000000000001          0.0000000000000000     
  0.12370000000000002          0.0000000000000000     
  0.12411999999999999          0.0000000000000000     
  0.12454000000000000          0.0000000000000000     
  0.12496000000000000          0.0000000000000000     
  0.12537999999999999          0.0000000000000000     
  0.12580000000000002          0.0000000000000000     
  0.12622000000000000          0.0000000000000000     
  0.12664000000000003          0.0000000000000000     
  0.12706000000000001          0.0000000000000000     
  0.12747999999999998          0.0000000000000000     
  0.12790000000000001          0.0000000000000000     
  0.12831999999999999          0.0000000000000000     
  0.12874000000000002          0.0000000000000000     
  0.12916000000000000          0.0000000000000000     
  0.12958000000000003          0.0000000000000000     
  0.13000000000000000          0.0000000000000000     
  0.13041999999999998          0.0000000000000000     
  0.13084000000000001          0.0000000000000000     
  0.13125999999999999          0.0000000000000000     
  0.13168000000000002          0.0000000000000000     
  0.13210000000000000          0.0000000000000000     
  0.13252000000000003          0.0000000000000000     
  0.13294000000000000          0.0000000000000000     
  0.13336000000000003          0.0000000000000000     
  0.13378000000000001          0.0000000000000000     
  0.13419999999999999          0.0000000000000000     
  0.13462000000000002          0.0000000000000000     
  0.13503999999999999          0.0000000000000000     
  0.13546000000000002          0.0000000000000000     
  0.13588000000000000          0.0000000000000000     
  0.13630000000000003          0.0000000000000000     
  0.13672000000000001          0.0000000000000000     
  0.13713999999999998          0.0000000000000000     
  0.13756000000000002          0.0000000000000000     
  0.13797999999999999          0.0000000000000000     
  0.13840000000000002          0.0000000000000000     
  0.13882000000000000          0.0000000000000000     
  0.13924000000000003          0.0000000000000000     
  0.13966000000000001          0.0000000000000000     
  0.14007999999999998          0.0000000000000000     
  0.14050000000000001          0.0000000000000000     
  0.14091999999999999          0.0000000000000000     
  0.14134000000000002          0.0000000000000000     
  0.14176000000000000          0.0000000000000000     
  0.14218000000000003          0.0000000000000000     
  0.14260000000000000          0.0000000000000000     
  0.14301999999999998          0.0000000000000000     
  0.14344000000000001          0.0000000000000000     
  0.14385999999999999          0.0000000000000000     
  0.14428000000000002          0.0000000000000000     
  0.14470000000000000          0.0000000000000000     
  0.14512000000000003          0.0000000000000000     
  0.14554000000000000          0.0000000000000000     
  0.14596000000000003          0.0000000000000000     
  0.14638000000000001          0.0000000000000000     
  0.14679999999999999          0.0000000000000000     
  0.14722000000000002          0.0000000000000000     
  0.14763999999999999          0.0000000000000000     
  0.14806000000000002          0.0000000000000000     
  0.14848000000000000          0.0000000000000000     