  -8.0000000000000002E-002     0.0000000000000000     
  -7.9579999999999998E-002     0.0000000000000000     
  -7.9160000000000008E-002     0.0000000000000000     
  -7.8740000000000004E-002     0.0000000000000000     
  -7.8320000000000001E-002     0.0000000000000000     
  -7.7899999999999997E-002     0.0000000000000000     
  -7.7480000000000007E-002     0.0000000000000000     
  -7.7060000000000003E-002     0.0000000000000000     
  -7.6640000000000000E-002     0.0000000000000000     
  -7.6219999999999996E-002     0.0000000000000000     
  -7.5800000000000006E-002     0.0000000000000000     
  -7.5380000000000003E-002     0.0000000000000000     
  -7.4959999999999999E-002     0.0000000000000000     
  -7.4539999999999995E-002     0.0000000000000000     
  -7.4120000000000005E-002     0.0000000000000000     
  -7.3700000000000002E-002     0.0000000000000000     
  -7.3279999999999998E-002     0.0000000000000000     
  -7.2860000000000008E-002     0.0000000000000000     
  -7.2440000000000004E-002     0.0000000000000000     
  -7.2020000000000001E-002     0.0000000000000000     
  -7.1599999999999997E-002     0.0000000000000000     
  -7.1180000000000007E-002     0.0000000000000000     
  -7.0760000000000003E-002     0.0000000000000000     
  -7.0340000000000000E-002     0.0000000000000000     
  -6.9919999999999996E-002     0.0000000000000000     
  -6.9500000000000006E-002     0.0000000000000000     
  -6.9080000000000003E-002     0.0000000000000000     
  -6.8659999999999999E-002     0.0000000000000000     
  -6.8239999999999995E-002     0.0000000000000000     
  -6.7820000000000005E-002     0.0000000000000000     
  -6.7400000000000002E-002     0.0000000000000000     
  -6.6979999999999998E-002     0.0000000000000000     
  -6.6560000000000008E-002     0.0000000000000000     
  -6.6140000000000004E-002     0.0000000000000000     
  -6.5720000000000001E-002     0.0000000000000000     
  -6.5299999999999997E-002     0.0000000000000000     
  -6.4879999999999993E-002     0.0000000000000000     
  -6.4460000000000003E-002     0.0000000000000000     
  -6.4040000000000000E-002     0.0000000000000000     
  -6.3619999999999996E-002     0.0000000000000000     
  -6.3200000000000006E-002     0.0000000000000000     
  -6.2780000000000002E-002     0.0000000000000000     
  -6.2359999999999999E-002     0.0000000000000000     
  -6.1940000000000002E-002     0.0000000000000000     
  -6.1520000000000005E-002     0.0000000000000000     
  -6.1100000000000002E-002     0.0000000000000000     
  -6.0679999999999998E-002     0.0000000000000000     
  -6.0260000000000001E-002     0.0000000000000000     
  -5.9840000000000004E-002     0.0000000000000000     
  -5.9420000000000001E-002     0.0000000000000000     
  -5.8999999999999997E-002     0.0000000000000000     
  -5.8580000000000000E-002     0.0000000000000000     
  -5.8160000000000003E-002     0.0000000000000000     
  -5.7740000000000000E-002     0.0000000000000000     
  -5.7319999999999996E-002     0.0000000000000000     
  -5.6899999999999999E-002     0.0000000000000000     
  -5.6480000000000002E-002     0.0000000000000000     
  -5.6059999999999999E-002     0.0000000000000000     
  -5.5640000000000002E-002     0.0000000000000000     
  -5.5220000000000005E-002     0.0000000000000000     
  -5.4800000000000001E-002     0.0000000000000000     
  -5.4379999999999998E-002     0.0000000000000000     
  -5.3960000000000001E-002     0.0000000000000000     
  -5.3540000000000004E-002     0.0000000000000000     
  -5.3120000000000001E-002     0.0000000000000000     
  -5.2699999999999997E-002     0.0000000000000000     
  -5.2280000000000000E-002     0.0000000000000000     
  -5.1860000000000003E-002     0.0000000000000000     
  -5.1440000000000000E-002     0.0000000000000000     
  -5.1019999999999996E-002     0.0000000000000000     
  -5.0599999999999999E-002     0.0000000000000000     
  -5.0180000000000002E-002     0.0000000000000000     
  -4.9759999999999999E-002     0.0000000000000000     
  -4.9340000000000002E-002     0.0000000000000000     
  -4.8920000000000005E-002     0.0000000000000000     
  -4.8500000000000001E-002     0.0000000000000000     
  -4.8079999999999998E-002     0.0000000000000000     
  -4.7660000000000001E-002     0.0000000000000000     
  -4.7239999999999997E-002     0.0000000000000000     
  -4.6820000000000001E-002     0.0000000000000000     
  -4.6399999999999997E-002     0.0000000000000000     
  -4.5980000000000000E-002     0.0000000000000000     
  -4.5560000000000003E-002     0.0000000000000000     
  -4.5140000000000000E-002     0.0000000000000000     
  -4.4720000000000003E-002     0.0000000000000000     
  -4.4299999999999999E-002     4.4505000814082888E-039
  -4.3880000000000002E-002     8.9010001628165777E-039
  -4.3459999999999999E-002     8.9010001628165777E-039
  -4.3040000000000002E-002     8.9010001628165777E-039
  -4.2619999999999998E-002     8.9010001628165777E-039
  -4.2200000000000001E-002     8.9010001628165777E-039
  -4.1779999999999998E-002     1.1570899575351155E-038
  -4.1360000000000001E-002     6.4336214565245827E-039
  -4.0939999999999997E-002    -2.1454413640256534E-038
  -4.0520000000000000E-002    -6.4139947884004203E-038
  -4.0099999999999997E-002    -1.1498652204038124E-037
  -3.9680000000000000E-002    -1.6216843688562724E-037
  -3.9260000000000003E-002    -1.7976829607335064E-037
  -3.8840000000000000E-002    -1.0272355082777262E-037
  -3.8420000000000003E-002     1.4359624639597583E-037
  -3.7999999999999999E-002     5.9315017520191575E-037
  -3.7580000000000002E-002     1.2074282929604742E-036
  -3.7159999999999999E-002     1.7976372788829611E-036
  -3.6740000000000002E-002     2.0934505679651397E-036
  -3.6319999999999998E-002     1.6604720284484413E-036
  -3.5900000000000001E-002    -5.9846427941465793E-038
  -3.5479999999999998E-002    -3.4536278580405078E-036
  -3.5060000000000001E-002    -8.5539022428163352E-036
  -3.4639999999999997E-002    -1.4683152913577218E-035
  -3.4220000000000000E-002    -2.0124501746060855E-035
  -3.3799999999999997E-002    -2.1898719086614569E-035
  -3.3380000000000000E-002    -1.5914091878674270E-035
  -3.2960000000000003E-002     2.2479264486574457E-036
  -3.2539999999999999E-002     3.5884719522101391E-035
  -3.2120000000000003E-002     8.4808574558045638E-035
  -3.1699999999999999E-002     1.4254513596024877E-034
  -3.1280000000000002E-002     1.9369768263830903E-034
  -3.0859999999999999E-002     2.1246145353925082E-034
  -3.0440000000000002E-002     1.6400179216114634E-034
  -3.0019999999999998E-002     1.0569457903004373E-035
  -2.9600000000000001E-002    -2.7630659785322937E-034
  -2.9179999999999998E-002    -6.9756078293432326E-034
  -2.8760000000000001E-002    -1.2044517793793579E-033
  -2.8339999999999997E-002    -1.6773824286965156E-033
  -2.7920000000000000E-002    -1.9144836616517811E-033
  -2.7499999999999997E-002    -1.6414898808216492E-033
  -2.7080000000000000E-002    -5.5525647304660059E-034
  -2.6659999999999996E-002     1.5895990048777240E-033
  -2.6239999999999999E-002     4.8501383196477002E-033
  -2.5820000000000003E-002     8.9342044586779739E-033
  -2.5399999999999999E-002     1.3043209092354365E-032
  -2.4980000000000002E-002     1.5775411741353323E-032
  -2.4559999999999998E-002     1.5165751798281507E-032
  -2.4140000000000002E-002     8.9448747541428425E-033
  -2.3719999999999998E-002    -4.9165035596225471E-033
  -2.3300000000000001E-002    -2.7361316190153170E-032
  -2.2879999999999998E-002    -5.7169688847253378E-032
  -2.2460000000000001E-002    -8.9847557120629391E-032
  -2.2039999999999997E-002    -1.1681683458211475E-031
  -2.1620000000000000E-002    -1.2536975603066636E-031
  -2.1199999999999997E-002    -9.9909111506782735E-032
  -2.0780000000000000E-002    -2.4930213097013222E-032
  -2.0359999999999996E-002     1.1005216752106199E-031
  -1.9939999999999999E-002     3.0390351795748218E-031
  -1.9519999999999996E-002     5.3655508588773453E-031
  -1.9099999999999999E-002     7.6275864843649577E-031
  -1.8680000000000002E-002     9.0948472229488235E-031
  -1.8259999999999998E-002     8.8003711412698897E-031
  -1.7840000000000002E-002     5.6783868936289251E-031
  -1.7420000000000005E-002    -1.1821781163243937E-031
  -1.7000000000000001E-002    -1.2172229356336787E-030
  -1.6579999999999998E-002    -2.6723666457018961E-030
  -1.6159999999999994E-002    -4.2880095664259195E-030
  -1.5740000000000004E-002    -5.7006379445132004E-030
  -1.5320000000000000E-002    -6.3802631458700542E-030
  -1.4899999999999997E-002    -5.6798307225225398E-030
  -1.4479999999999993E-002    -2.9468844020253356E-030
  -1.4060000000000003E-002     2.2975378259082247E-030
  -1.3639999999999999E-002     1.0123605065514765E-029
  -1.3219999999999996E-002     1.9933465608931071E-029
  -1.2799999999999992E-002     3.0235371336476966E-029
  -1.2380000000000002E-002     3.8531263545516410E-029
  -1.1959999999999998E-002     4.1411598493243277E-029
  -1.1539999999999995E-002     3.4947099399161831E-029
  -1.1120000000000005E-002     1.5437155155467235E-029
  -1.0700000000000001E-002    -1.9487555436321028E-029
  -1.0279999999999997E-002    -6.9504529039503447E-029
  -9.8599999999999938E-003    -1.3019586238429146E-028
  -9.4400000000000039E-003    -1.9194090217432490E-028
  -9.0200000000000002E-003    -2.3954619028003632E-028
  -8.5999999999999965E-003    -2.5309528183219323E-028
  -8.1799999999999928E-003    -2.1044148477264391E-028
  -7.7600000000000030E-003    -9.1569963965917854E-029
  -7.3399999999999993E-003     1.1529518855262842E-028
  -6.9199999999999956E-003     4.0645844853718631E-028
  -6.4999999999999919E-003     7.5560286464961195E-028
  -6.0800000000000021E-003     1.1085077341890304E-027
  -5.6599999999999984E-003     1.3818510950956629E-027
  -5.2399999999999947E-003     1.4684118973556316E-027
  -4.8200000000000048E-003     1.2505784590744680E-027
  -4.4000000000000011E-003     6.2301999290605998E-028
  -3.9799999999999974E-003    -4.7637843153891070E-028
  -3.5599999999999937E-003    -2.0305900261772066E-027
  -3.1400000000000039E-003    -3.9084967040923457E-027
  -2.7200000000000002E-003    -5.8394590505264729E-027
  -2.2999999999999965E-003    -7.4077473769890016E-027
  -1.8799999999999928E-003    -8.0773959577099263E-027
  -1.4600000000000030E-003    -7.2559992912779444E-027
  -1.0399999999999993E-003    -4.4010650411874197E-027
  -6.1999999999999555E-004     8.3532735664796487E-028
  -1.9999999999999185E-004     8.4383056418779754E-027
   2.1999999999999797E-004     1.7864865194007539E-026
   6.4000000000000168E-004     2.7918940159787456E-026
   1.0600000000000054E-003     3.6712145047101194E-026
   1.4799999999999952E-003     4.1756581322719568E-026
   1.8999999999999989E-003     4.0227853016398740E-026
   2.3200000000000026E-003     2.9416329994466671E-026
   2.7400000000000063E-003     7.3525647024069768E-027
   3.1599999999999961E-003    -2.6450017860595154E-026
   3.5799999999999998E-003    -7.0240574949161666E-026
   4.0000000000000036E-003    -1.1941661642786590E-025
   4.4200000000000073E-003    -1.6623611992139568E-025
   4.8399999999999971E-003    -2.0005185153448221E-025
   5.2600000000000008E-003    -2.0823761078333276E-025
   5.6800000000000045E-003    -1.7790428825406925E-025
   6.1000000000000082E-003    -9.8383965093346644E-026
   6.5199999999999980E-003     3.5701741804445960E-026
   6.9400000000000017E-003     2.2116356622577760E-025
   7.3600000000000054E-003     4.4331984821857350E-025
   7.7799999999999953E-003     6.7414197789349165E-025
   8.1999999999999990E-003     8.7225663053355006E-025
   8.6200000000000027E-003     9.8553765328859002E-025
   9.0400000000000064E-003     9.5680257546475853E-025
   9.4599999999999962E-003     7.3273315155419654E-025
   9.8799999999999999E-003     2.7556928584193885E-025
   1.0300000000000004E-002    -4.2356844292973561E-025
   1.0720000000000007E-002    -1.3316098492740852E-024
   1.1139999999999997E-002    -2.3632614581137397E-024
   1.1560000000000001E-002    -3.3764866706991123E-024
   1.1980000000000005E-002    -4.1767383800006653E-024
   1.2400000000000008E-002    -4.5324349324994741E-024
   1.2819999999999998E-002    -4.2030266999266105E-024
   1.3240000000000002E-002    -2.9792132662542963E-024
   1.3660000000000005E-002    -7.3252234432726066E-025
   1.4079999999999995E-002     2.5312184216359116E-024
   1.4499999999999999E-002     6.6226171482427527E-024
   1.4920000000000003E-002     1.1133918733222764E-023
   1.5340000000000006E-002     1.5429960226531275E-023
   1.5759999999999996E-002     1.8675657510702805E-023
   1.6180000000000000E-002     1.9908225534885714E-023
   1.6600000000000004E-002     1.8157410371551244E-023
   1.7020000000000007E-002     1.2609909509993440E-023
   1.7439999999999997E-002     2.8053059507242754E-024
   1.7860000000000001E-002    -1.1158905961403384E-023
   1.8280000000000005E-002    -2.8444698154433402E-023
   1.8700000000000008E-002    -4.7351767089108333E-023
   1.9119999999999998E-002    -6.5297961939144502E-023
   1.9540000000000002E-002    -7.8939828213350097E-023
   1.9960000000000006E-002    -8.4460879864680273E-023
   2.0380000000000009E-002    -7.8036706663968580E-023
   2.0799999999999999E-002    -5.6459996116990446E-023
   2.1220000000000003E-002    -1.7876928404700345E-023
   2.1640000000000006E-002     3.7447508344828457E-023
   2.2059999999999996E-002     1.0644944533157432E-022
   2.2480000000000000E-002     1.8280845559154954E-022
   2.2900000000000004E-002     2.5685854023627186E-022
   2.3320000000000007E-002     3.1600240223930579E-022
   2.3739999999999997E-002     3.4572690833688201E-022
   2.4160000000000001E-002     3.3125357923214552E-022
   2.4580000000000005E-002     2.5976969578607479E-022
   2.5000000000000008E-002     1.2307794188794100E-022
   2.5419999999999998E-002    -7.9615167407406583E-023
   2.5840000000000002E-002    -3.3915814871857768E-022
   2.6260000000000006E-002    -6.3463133418557423E-022
   2.6680000000000009E-002    -9.3274623251555496E-022
   2.7099999999999999E-002    -1.1889417392052606E-021
   2.7520000000000003E-002    -1.3505383574113001E-021
   2.7940000000000006E-002    -1.3621104458253218E-021
   2.8359999999999996E-002    -1.1729494466293259E-021
   2.8780000000000000E-002    -7.4614222318991521E-022
   2.9200000000000004E-002    -6.8399842946177381E-023
   2.9620000000000007E-002     8.4059609886637057E-022
   3.0039999999999997E-002     1.9208587434515446E-021
   3.0460000000000001E-002     3.0684567812996119E-021
   3.0880000000000005E-002     4.1372045070863991E-021
   3.1300000000000008E-002     4.9470217582506379E-021
   3.1719999999999998E-002     5.2997170071729041E-021
   3.2140000000000002E-002     5.0020851324304406E-021
   3.2560000000000006E-002     3.8951333033238907E-021
   3.2980000000000009E-002     1.8870199391737590E-021
   3.3399999999999999E-002    -1.0139225370332782E-021
   3.3820000000000003E-002    -4.6707410197669334E-021
   3.4240000000000007E-002    -8.7993312245304548E-021
   3.4659999999999996E-002    -1.2965227256203938E-020
   3.5080000000000000E-002    -1.6600478908901461E-020
   3.5500000000000004E-002    -1.9043870481907336E-020
   3.5920000000000007E-002    -1.9605427922707271E-020
   3.6339999999999997E-002    -1.7652965665847225E-020
   3.6760000000000001E-002    -1.2714886192396956E-020
   3.7180000000000005E-002    -4.5895667474424192E-021
   3.7600000000000008E-002     6.5517018322259961E-021
   3.8019999999999998E-002     2.0083927922521074E-020
   3.8440000000000002E-002     3.4886505089501523E-020
   3.8860000000000006E-002     4.9356128692165205E-020
   3.9280000000000009E-002     6.1487290077746088E-020
   3.9699999999999999E-002     6.9027246366456766E-020
   4.0120000000000003E-002     6.9704471563409200E-020
   4.0540000000000007E-002     6.1519701845215490E-020
   4.0960000000000010E-002     4.3077499904169709E-020
   4.1380000000000000E-002     1.3925870248046495E-020
   4.1800000000000004E-002    -2.5137805493809972E-020
   4.2220000000000008E-002    -7.1842158050419055E-020
   4.2639999999999997E-002    -1.2234713219729099E-019
   4.3060000000000001E-002    -1.7132343054787720E-019
   4.3480000000000005E-002    -2.1223867692236432E-019
   4.3900000000000008E-002    -2.3786473203821186E-019
   4.4319999999999998E-002    -2.4099651473034141E-019
   4.4740000000000002E-002    -2.1534421908441128E-019
   4.5159999999999992E-002    -1.5653062495033243E-019
   4.5579999999999996E-002    -6.3097062201805789E-020
   4.5999999999999999E-002     6.2602115384762836E-020
   4.6420000000000003E-002     2.1375013778882337E-019
   4.6840000000000007E-002     3.7879695548812724E-019
   4.7260000000000010E-002     5.4168649796864717E-019
   4.7680000000000014E-002     6.8266792481514938E-019
   4.8099999999999990E-002     7.7972715925954852E-019
   4.8519999999999994E-002     8.1061140254943155E-019
   4.8939999999999997E-002     7.5534388333740831E-019
   4.9360000000000001E-002     5.9904926842491965E-019
   4.9780000000000005E-002     3.3483396689218656E-019
   5.0200000000000009E-002    -3.3590818945271992E-020
   5.0620000000000012E-002    -4.8989323611068947E-019
   5.1040000000000016E-002    -1.0040677589824614E-018
   5.1459999999999992E-002    -1.5326664277336501E-018
   5.1879999999999996E-002    -2.0205567326912248E-018
   5.2299999999999999E-002    -2.4043393129568458E-018
   5.2720000000000003E-002    -2.6173972198069981E-018
   5.3140000000000007E-002    -2.5963741700868509E-018
   5.3560000000000010E-002    -2.2886871876484757E-018
   5.3980000000000014E-002    -1.6604858319614824E-018
   5.4400000000000018E-002    -7.0432046657071007E-019
   5.4819999999999994E-002     5.5434016673419148E-019
   5.5239999999999997E-002     2.0526422771008645E-018
   5.5660000000000001E-002     3.6888017310574593E-018
   5.6080000000000005E-002     5.3242181899102582E-018
   5.6500000000000009E-002     6.7897523408053633E-018
   5.6920000000000012E-002     7.8963599615553184E-018
   5.7340000000000016E-002     8.4498965044367658E-018
   5.7759999999999992E-002     8.2694378084793911E-018
   5.8179999999999996E-002     7.2080153420675444E-018
   5.8599999999999999E-002     5.1742464075599350E-018
   5.9020000000000003E-002     2.1529312104169528E-018
   5.9440000000000007E-002    -1.7775164101996895E-018
   5.9860000000000010E-002    -6.4330756025764861E-018
   6.0280000000000014E-002    -1.1519742184127139E-017
   6.0700000000000018E-002    -1.6638634365832654E-017
   6.1119999999999994E-002    -2.1301945629492588E-017
   6.1539999999999997E-002    -2.4960359024289901E-017
   6.1960000000000001E-002    -2.7041691793646092E-017
   6.2380000000000005E-002    -2.6999369351462012E-017
   6.2800000000000009E-002    -2.4368356181780072E-017
   6.3220000000000012E-002    -1.8824962238835990E-017
   6.3640000000000016E-002    -1.0245974796381022E-017
   6.4059999999999992E-002     1.2382678808367286E-018
   6.4479999999999996E-002     1.5202702620116103E-017
   6.4899999999999999E-002     3.0904177820965125E-017
   6.5320000000000003E-002     4.7281560316021510E-017
   6.5740000000000007E-002     6.2983975085650463E-017
   6.6160000000000010E-002     7.6430281599035738E-017
   6.6580000000000014E-002     8.5901056091455766E-017
   6.7000000000000018E-002     8.9661632914277972E-017
   6.7419999999999994E-002     8.6112029358712007E-017
   6.7839999999999998E-002     7.3956342675234076E-017
   6.8260000000000001E-002     5.2381010983365541E-017
   6.8680000000000005E-002     2.1228683674984774E-017
   6.9100000000000009E-002    -1.8848221440565160E-017
   6.9520000000000012E-002    -6.6271516140101631E-017
   6.9940000000000016E-002    -1.1847649037103727E-016
   7.0359999999999992E-002    -1.7192312040746285E-016
   7.0779999999999996E-002    -2.2219332459273888E-016
   7.1199999999999999E-002    -2.6418398106285888E-016
   7.1620000000000003E-002    -2.9239945129553175E-016
   7.2040000000000007E-002    -3.0133903390071021E-016
   7.2460000000000011E-002    -2.8596749482711078E-016
   7.2880000000000014E-002    -2.4224501636447683E-016
   7.3300000000000018E-002    -1.6768490488009230E-016
   7.3719999999999994E-002    -6.1897817308632283E-017
   7.4139999999999998E-002     7.2926785320442063E-017
   7.4560000000000001E-002     2.3165491199183901E-016
   7.4980000000000005E-002     4.0601336269956411E-016
   7.5400000000000009E-002     5.8461727361606850E-016
   7.5820000000000012E-002     7.5326402901157494E-016
   7.6240000000000016E-002     8.9552395537622165E-016
   7.6659999999999992E-002     9.9363915309146430E-016
   7.7079999999999996E-002     1.0297215366054633E-015
   7.7499999999999999E-002     9.8720925210602123E-016
   7.7920000000000003E-002     8.5251700252847122E-016
   7.8340000000000007E-002     6.1678201594765522E-016
   7.8760000000000011E-002     2.7758413710716582E-016
   7.9180000000000014E-002    -1.5950492652509828E-016
   7.9600000000000018E-002    -6.7970523692881740E-016
   8.0019999999999994E-002    -1.2583077047867971E-015
   8.0439999999999998E-002    -1.8606093809585818E-015
   8.0860000000000001E-002    -2.4426379586818120E-015
   8.1280000000000005E-002    -2.9527668270145743E-015
   8.1700000000000009E-002    -3.3342673260081636E-015
   8.2120000000000012E-002    -3.5287865864362180E-015
   8.2540000000000016E-002    -3.4806553574890314E-015
   8.2959999999999992E-002    -3.1418524227559624E-015
   8.3379999999999996E-002    -2.4773711488897051E-015
   8.3799999999999999E-002    -1.4706420155281382E-015
   8.4220000000000003E-002    -1.2861289712880846E-016
   8.4640000000000007E-002     1.5139866549721092E-015
   8.5060000000000011E-002     3.3916725861455062E-015
   8.5480000000000014E-002     5.4070106499877547E-015
   8.5900000000000018E-002     7.4316367199378504E-015
   8.6319999999999994E-002     9.3098455724264064E-015
   8.6739999999999998E-002     1.0864980719428024E-014
   8.7160000000000001E-002     1.1908695784958257E-014
   8.7580000000000005E-002     1.2252922091861359E-014
   8.8000000000000009E-002     1.1724202240916338E-014
   8.8420000000000012E-002     1.0179776695358759E-014
   8.8840000000000016E-002     7.5245362969288064E-015
   8.9259999999999992E-002     3.7277907900533842E-015
   8.9679999999999996E-002    -1.1614348281058812E-015
   9.0100000000000000E-002    -7.0020369841102251E-015
   9.0520000000000003E-002    -1.3552788121511201E-014
   9.0940000000000007E-002    -2.0470115753011158E-014
   9.1360000000000011E-002    -2.7312942043801817E-014
   9.1780000000000014E-002    -3.3555651916220900E-014
   9.2200000000000018E-002    -3.8609754599499369E-014
   9.2619999999999994E-002    -4.1854372952055617E-014
   9.3039999999999998E-002    -4.2675093501059848E-014
   9.3460000000000001E-002    -4.0509947003237592E-014
   9.3880000000000005E-002    -3.4900633005119185E-014
   9.4300000000000009E-002    -2.5546305838683061E-014
   9.4720000000000013E-002    -1.2356586920786196E-014
   9.5140000000000016E-002     4.5000965662026813E-015
   9.5559999999999992E-002     2.4557149412578189E-014
   9.5979999999999996E-002     4.7023971315433066E-014
   9.6400000000000000E-002     7.0778050365636007E-014
   9.6820000000000003E-002     9.4378841686811938E-014
   9.7240000000000007E-002     1.1610685706368319E-013
   9.7660000000000011E-002     1.3402979367913549E-013
   9.8080000000000014E-002     1.4609646480770076E-013
   9.8500000000000018E-002     1.5025711694579646E-013
   9.8919999999999994E-002     1.4460703613951067E-013
   9.9339999999999998E-002     1.2754770796323169E-013
   9.9760000000000001E-002     9.7958046419346686E-014
  0.10018000000000001          5.5365530065384893E-014
  0.10060000000000001          1.0588053058660718E-016
  0.10102000000000001         -6.6541949343260992E-014
  0.10144000000000002         -1.4225943290666335E-013
  0.10185999999999999         -2.2364414771262565E-013
  0.10228000000000000         -3.0623087028436995E-013
  0.10270000000000000         -3.8458822666979782E-013
  0.10312000000000000         -4.5249916617938768E-013
  0.10354000000000001         -5.0322922655061349E-013
  0.10396000000000001         -5.2987959621422863E-013
  0.10438000000000001         -5.2581865403227012E-013
  0.10480000000000002         -4.8517759801112145E-013
  0.10521999999999999         -4.0338974459566082E-013
  0.10564000000000000         -2.7774478564557893E-013
  0.10606000000000000         -1.0792551435707947E-013
  0.10648000000000001          1.0351110732658484E-013
  0.10690000000000001          3.5075187503611591E-013
  0.10732000000000001          6.2448703872985460E-013
  0.10774000000000002          9.1184976478977554E-013
  0.10815999999999999          1.1965794299298674E-012
  0.10858000000000000          1.4594329788918043E-012
  0.10900000000000000          1.6788664852652006E-012
  0.10942000000000000          1.8319925537490790E-012
  0.10984000000000001          1.8958002718230778E-012
  0.11026000000000001          1.8486143892056204E-012
  0.11068000000000001          1.6717349178241965E-012
  0.11110000000000002          1.3511913463718374E-012
  0.11151999999999999          8.7952690821054762E-013
  0.11194000000000000          2.5749492367736583E-013
  0.11236000000000000         -5.0444745716075290E-013
  0.11278000000000001         -1.3849769665540500E-012
  0.11320000000000001         -2.3512150811048734E-012
  0.11362000000000001         -3.3586261030543401E-012
  0.11404000000000002         -4.3516265879021549E-012
  0.11446000000000002         -5.2649890557095698E-012
  0.11488000000000000         -6.0260959326966725E-012
  0.11530000000000000         -6.5580599210202685E-012
  0.11572000000000000         -6.7836788419205164E-012
  0.11614000000000001         -6.6301143350227419E-012
  0.11656000000000001         -6.0341684703319652E-012
  0.11698000000000001         -4.9479086116476393E-012
  0.11740000000000002         -3.3443903814427966E-012
  0.11781999999999999         -1.2231568455081011E-012
  0.11824000000000000          1.3848862144445314E-012
  0.11866000000000000          4.4135940737049966E-012
  0.11908000000000001          7.7591194912207411E-012
  0.11950000000000001          1.1279258023626773E-011
  0.11992000000000001          1.4794950950742054E-011
  0.12034000000000002          1.8094227054208124E-011
  0.12076000000000002          2.0938804135525555E-011
  0.12118000000000000          2.3073398536017478E-011
  0.12160000000000000          2.4237654447693184E-011
  0.12202000000000000          2.4180537048781694E-011
  0.12244000000000001          2.2676648409384290E-011
  0.12286000000000001          1.9543971079736524E-011
  0.12328000000000001          1.4662209326557008E-011
  0.12370000000000002          7.9907938569453743E-012
  0.12411999999999999         -4.1455058463897454E-013
  0.12454000000000000         -1.0387827841966865E-011
  0.12496000000000000         -2.1642693277008311E-011
  0.12537999999999999         -3.3767365417706410E-011
  0.12580000000000002         -4.6225822818456542E-011
  0.12622000000000000         -5.8366212187286537E-011
  0.12664000000000003         -6.9437220307345709E-011
  0.12706000000000001         -7.8612796062601493E-011
  0.12747999999999998         -8.5025349919022579E-011
  0.12790000000000001         -8.7806891345443058E-011
  0.12831999999999999         -8.6137258531909878E-011
  0.12874000000000002         -7.9298158963147931E-011
  0.12916000000000000         -6.6730548185815182E-011
  0.12958000000000003         -4.8093060294998282E-011
  0.13000000000000000         -2.3318715416223640E-011
  0.13041999999999998          7.3338824950254272E-012
  0.13084000000000001          4.3238342436917507E-011
  0.13125999999999999          8.3370893532993398E-011
  0.13168000000000002          1.2629757379926477E-010
  0.13210000000000000          1.7018078148105408E-010
  0.13252000000000003          2.1280882320615529E-010
  0.13294000000000000          2.5165048512937874E-010
  0.13336000000000003          2.8393546601271677E-010
  0.13378000000000001          3.0676032235260182E-010
  0.13419999999999999          3.1722012473480068E-010
  0.13462000000000002          3.1256146180630721E-010
  0.13503999999999999          2.9035255659190572E-010
  0.13546000000000002          2.4866499777945194E-010
  0.13588000000000000          1.8625892343017478E-010
  0.13630000000000003          1.0276374023502307E-010
  0.13672000000000001         -1.1576993332941285E-012
  0.13713999999999998         -1.2367002816466939E-010
  0.13756000000000002         -2.6166435147157540E-010
  0.13797999999999999         -4.1070495873398364E-010
  0.13840000000000002         -5.6503555621742157E-010
  0.13882000000000000         -7.1765323885799275E-010
  0.13924000000000003         -8.6045637614731494E-010
  0.13966000000000001         -9.8447291986482110E-010
  0.14007999999999998         -1.0801659779461348E-009
  0.14050000000000001         -1.1378189600375207E-009
  0.14091999999999999         -1.1479901292334888E-009
  0.14134000000000002         -1.1020254261967611E-009
  0.14176000000000000         -9.9261184949060658E-010
  0.14218000000000003         -8.1435771137873989E-010
  0.14260000000000000         -5.6436485798302496E-010
  0.14301999999999998         -2.4277155112632113E-010
  0.14344000000000001          1.4676585310005363E-010
  0.14385999999999999          5.9668663935246416E-010
  0.14428000000000002          1.0952661152562004E-009
  0.14470000000000000          1.6265141888078163E-009
  0.14512000000000003          2.1702639364234696E-009
  0.14554000000000000          2.7024653805462252E-009
  0.14596000000000003          3.1957126813465796E-009
  0.14638000000000001          3.6200088684223576E-009
  0.14679999999999999          3.9437663847539401E-009
  0.14722000000000002          4.1350322884167912E-009
  0.14763999999999999          4.1629191652139240E-009
  0.14806000000000002          3.9991941640882695E-009
  0.14848000000000000          3.6199940957089514E-009