-0.8000000E-01  0.0000000E+00
-0.7958000E-01  0.0000000E+00
-0.7916000E-01  0.0000000E+00
-0.7874000E-01  0.0000000E+00
-0.7832000E-01  0.0000000E+00
-0.7790000E-01  0.0000000E+00
-0.7748000E-01  0.0000000E+00
-0.7706000E-01  0.0000000E+00
-0.7664000E-01  0.0000000E+00
-0.7622000E-01  0.0000000E+00
-0.7580000E-01  0.0000000E+00
-0.7538000E-01  0.0000000E+00
-0.7496000E-01  0.0000000E+00
-0.7454000E-01  0.0000000E+00
-0.7412000E-01  0.0000000E+00
-0.7370000E-01  0.0000000E+00
-0.7328000E-01  0.0000000E+00
-0.7286000E-01  0.0000000E+00
-0.7244000E-01  0.0000000E+00
-0.7202000E-01  0.0000000E+00
-0.7160000E-01  0.0000000E+00
-0.7118000E-01  0.0000000E+00
-0.7076000E-01  0.0000000E+00
-0.7034000E-01  0.0000000E+00
-0.6992000E-01  0.0000000E+00
-0.6950000E-01  0.0000000E+00
-0.6908000E-01  0.0000000E+00
-0.6866000E-01  0.0000000E+00
-0.6824000E-01  0.0000000E+00
-0.6782000E-01  0.0000000E+00
-0.6740000E-01  0.0000000E+00
-0.6698000E-01  0.0000000E+00
-0.6656000E-01  0.0000000E+00
-0.6614000E-01  0.0000000E+00
-0.6572000E-01  0.0000000E+00
-0.6530000E-01  0.0000000E+00
-0.6488000E-01  0.0000000E+00
-0.6446000E-01  0.0000000E+00
-0.6404000E-01  0.0000000E+00
-0.6362000E-01  0.0000000E+00
-0.6320000E-01  0.0000000E+00
-0.6278000E-01  0.0000000E+00
-0.6236000E-01  0.0000000E+00
-0.6194000E-01  0.0000000E+00
-0.6152000E-01  0.0000000E+00
-0.6110000E-01  0.0000000E+00
-0.6068000E-01  0.0000000E+00
-0.6026000E-01  0.0000000E+00
-0.5984000E-01  0.0000000E+00
-0.5942000E-01  0.0000000E+00
-0.5900000E-01  0.0000000E+00
-0.5858000E-01  0.0000000E+00
-0.5816000E-01  0.0000000E+00
-0.5774000E-01  0.0000000E+00
-0.5732000E-01  0.0000000E+00
-0.5690000E-01  0.0000000E+00
-0.5648000E-01  0.0000000E+00
-0.5606000E-01  0.0000000E+00
-0.5564000E-01  0.0000000E+00
-0.5522000E-01  0.0000000E+00
-0.5480000E-01  0.0000000E+00
-0.5438000E-01  0.0000000E+00
-0.5396000E-01  0.0000000E+00
-0.5354000E-01  0.0000000E+00
-0.5312000E-01  0.0000000E+00
-0.5270000E-01  0.0000000E+00
-0.5228000E-01  0.0000000E+00
-0.5186000E-01  0.0000000E+00
-0.5144000E-01  0.0000000E+00
-0.5102000E-01  0.0000000E+00
-0.5060000E-01  0.0000000E+00
-0.5018000E-01  0.0000000E+00
-0.4976000E-01  0.0000000E+00
-0.4934000E-01  0.0000000E+00
-0.4892000E-01  0.0000000E+00
-0.4850000E-01  0.0000000E+00
-0.4808000E-01  0.0000000E+00
-0.4766000E-01  0.0000000E+00
-0.4724000E-01  0.0000000E+00
-0.4682000E-01  0.0000000E+00
-0.4640000E-01  0.0000000E+00
-0.4598000E-01  0.0000000E+00
-0.4556000E-01  0.0000000E+00
-0.4514000E-01  0.0000000E+00
-0.4472000E-01  0.0000000E+00
-0.4430000E-01 -0.0000000E+00
-0.4388000E-01 -0.0000000E+00
-0.4346000E-01 -0.0000000E+00
-0.4304000E-01 -0.0000000E+00
-0.4262000E-01 -0.0000000E+00
-0.4220000E-01 -0.0000000E+00
-0.4178000E-01 -0.0000000E+00
-0.4136000E-01  0.0000000E+00
-0.4094000E-01 -0.0000000E+00
-0.4052000E-01 -0.0000000E+00
-0.4010000E-01  0.0000000E+00
-0.3968000E-01  0.0000000E+00
-0.3926000E-01  0.1860692E-37
-0.3884000E-01  0.3054756E-37
-0.3842000E-01  0.3657408E-37
-0.3800000E-01  0.2397100E-37
-0.3758000E-01 -0.2043980E-37
-0.3716000E-01 -0.9797722E-37
-0.3674000E-01 -0.2056051E-36
-0.3632000E-01 -0.3226047E-36
-0.3590000E-01 -0.3147501E-36
-0.3548000E-01 -0.5479033E-37
-0.3506000E-01  0.5372951E-36
-0.3464000E-01  0.1479512E-35
-0.3422000E-01  0.2643158E-35
-0.3380000E-01  0.3725519E-35
-0.3338000E-01  0.4060992E-35
-0.3296000E-01  0.2709156E-35
-0.3254000E-01 -0.1311804E-35
-0.3212000E-01 -0.8773005E-35
-0.3170000E-01 -0.1966811E-34
-0.3128000E-01 -0.3247568E-34
-0.3086000E-01 -0.4350743E-34
-0.3044000E-01 -0.4650504E-34
-0.3002000E-01 -0.3294701E-34
-0.2960000E-01  0.6510347E-35
-0.2918000E-01  0.7901336E-34
-0.2876000E-01  0.1847257E-33
-0.2834000E-01  0.3108965E-33
-0.2792000E-01  0.4258538E-33
-0.2750000E-01  0.4753249E-33
-0.2708000E-01  0.3844631E-33
-0.2666000E-01  0.6924544E-34
-0.2624000E-01 -0.5395317E-33
-0.2582000E-01 -0.1458592E-32
-0.2540000E-01 -0.2603905E-32
-0.2498000E-01 -0.3741172E-32
-0.2456000E-01 -0.4451920E-32
-0.2414000E-01 -0.4139171E-32
-0.2372000E-01 -0.2100617E-32
-0.2330000E-01  0.2305851E-32
-0.2288000E-01  0.9392865E-32
-0.2246000E-01  0.1878693E-31
-0.2204000E-01  0.2904202E-31
-0.2162000E-01  0.3733228E-31
-0.2120000E-01  0.3938394E-31
-0.2078000E-01  0.2983910E-31
-0.2036000E-01  0.3237418E-32
-0.1994000E-01 -0.4427203E-31
-0.1952000E-01 -0.1125345E-30
-0.1910000E-01 -0.1946062E-30
-0.1868000E-01 -0.2742047E-30
-0.1826000E-01 -0.3243577E-30
-0.1784000E-01 -0.3084794E-30
-0.1742000E-01 -0.1851626E-30
-0.1700000E-01  0.8232327E-31
-0.1658000E-01  0.5116418E-30
-0.1616000E-01  0.1083271E-29
-0.1574000E-01  0.1721699E-29
-0.1532000E-01  0.2281102E-29
-0.1490000E-01  0.2542613E-29
-0.1448000E-01  0.2231316E-29
-0.1406000E-01  0.1060387E-29
-0.1364000E-01 -0.1193446E-29
-0.1322000E-01 -0.4585479E-29
-0.1280000E-01 -0.8881573E-29
-0.1238000E-01 -0.1344372E-28
-0.1196000E-01 -0.1715898E-28
-0.1154000E-01 -0.1845766E-28
-0.1112000E-01 -0.1546882E-28
-0.1070000E-01 -0.6351660E-29
-0.1028000E-01  0.1018437E-28
-0.9860000E-02  0.3420177E-28
-0.9440000E-02  0.6379039E-28
-0.9020000E-02  0.9441611E-28
-0.8600000E-02  0.1185894E-27
-0.8180000E-02  0.1261206E-27
-0.7760000E-02  0.1052268E-27
-0.7340000E-02  0.4467533E-28
-0.6920000E-02 -0.6301247E-28
-0.6500000E-02 -0.2175336E-27
-0.6080000E-02 -0.4065278E-27
-0.5660000E-02 -0.6019970E-27
-0.5240000E-02 -0.7586884E-27
-0.4820000E-02 -0.8158986E-27
-0.4400000E-02 -0.7040584E-27
-0.3980000E-02 -0.3570086E-27
-0.3560000E-02  0.2700559E-27
-0.3140000E-02  0.1178380E-26
-0.2720000E-02  0.2302305E-26
-0.2300000E-02  0.3489817E-26
-0.1880000E-02  0.4493536E-26
-0.1460000E-02  0.4979593E-26
-0.1040000E-02  0.4561240E-26
-0.6200000E-03  0.2861726E-26
-0.2000000E-03 -0.3936363E-27
 0.2200000E-03 -0.5263025E-26
 0.6400000E-03 -0.1146643E-25
 0.1060000E-02 -0.1828088E-25
 0.1480000E-02 -0.2448422E-25
 0.1900000E-02 -0.2838332E-25
 0.2320000E-02 -0.2796044E-25
 0.2740000E-02 -0.2116123E-25
 0.3160000E-02 -0.6327512E-26
 0.3580000E-02  0.1725220E-25
 0.4000000E-02  0.4873923E-25
 0.4420000E-02  0.8519391E-25
 0.4840000E-02  0.1212193E-24
 0.5260000E-02  0.1489633E-24
 0.5680000E-02  0.1586402E-24
 0.6100000E-02  0.1396945E-24
 0.6520000E-02  0.8264952E-25
 0.6940000E-02 -0.1843969E-25
 0.7360000E-02 -0.1631701E-24
 0.7780000E-02 -0.3420283E-24
 0.8200000E-02 -0.5342688E-24
 0.8620000E-02 -0.7071367E-24
 0.9040000E-02 -0.8171668E-24
 0.9460000E-02 -0.8141826E-24
 0.9880000E-02 -0.6483379E-24
 0.1030000E-01 -0.2800957E-24
 0.1072000E-01  0.3075985E-24
 0.1114000E-01  0.1096407E-23
 0.1156000E-01  0.2021148E-23
 0.1198000E-01  0.2962622E-23
 0.1240000E-01  0.3747810E-23
 0.1282000E-01  0.4160413E-23
 0.1324000E-01  0.3963863E-23
 0.1366000E-01  0.2937498E-23
 0.1408000E-01  0.9243290E-24
 0.1450000E-01 -0.2113881E-23
 0.1492000E-01 -0.6041566E-23
 0.1534000E-01 -0.1050444E-22
 0.1576000E-01 -0.1490687E-22
 0.1618000E-01 -0.1842429E-22
 0.1660000E-01 -0.2006174E-22
 0.1702000E-01 -0.1876572E-22
 0.1744000E-01 -0.1358956E-22
 0.1786000E-01 -0.3903025E-23
 0.1828000E-01  0.1037424E-22
 0.1870000E-01  0.2854755E-22
 0.1912000E-01  0.4897269E-22
 0.1954000E-01  0.6898120E-22
 0.1996000E-01  0.8495480E-22
 0.2038000E-01  0.9259052E-22
 0.2080000E-01  0.8738042E-22
 0.2122000E-01  0.6530156E-22
 0.2164000E-01  0.2367497E-22
 0.2206000E-01 -0.3789072E-22
 0.2248000E-01 -0.1165984E-21
 0.2290000E-01 -0.2057701E-21
 0.2332000E-01 -0.2945496E-21
 0.2374000E-01 -0.3681884E-21
 0.2416000E-01 -0.4090683E-21
 0.2458000E-01 -0.3985498E-21
 0.2500000E-01 -0.3196292E-21
 0.2542000E-01 -0.1602519E-21
 0.2584000E-01  0.8302705E-22
 0.2626000E-01  0.4015001E-21
 0.2668000E-01  0.7714872E-21
 0.2710000E-01  0.1152922E-20
 0.2752000E-01  0.1490030E-20
 0.2794000E-01  0.1714692E-20
 0.2836000E-01  0.1752841E-20
 0.2878000E-01  0.1533898E-20
 0.2920000E-01  0.1002773E-20
 0.2962000E-01  0.1334449E-21
 0.3004000E-01 -0.1057469E-20
 0.3046000E-01 -0.2499196E-20
 0.3088000E-01 -0.4059727E-20
 0.3130000E-01 -0.5545631E-20
 0.3172000E-01 -0.6710973E-20
 0.3214000E-01 -0.7276806E-20
 0.3256000E-01 -0.6961685E-20
 0.3298000E-01 -0.5522099E-20
 0.3340000E-01 -0.2799933E-20
 0.3382000E-01  0.1227722E-20
 0.3424000E-01  0.6402983E-20
 0.3466000E-01  0.1235353E-19
 0.3508000E-01  0.1847933E-19
 0.3550000E-01  0.2396773E-19
 0.3592000E-01  0.2784295E-19
 0.3634000E-01  0.2905339E-19
 0.3676000E-01  0.2659540E-19
 0.3718000E-01  0.1966691E-19
 0.3760000E-01  0.7838420E-20
 0.3802000E-01 -0.8777327E-20
 0.3844000E-01 -0.2938035E-19
 0.3886000E-01 -0.5239011E-19
 0.3928000E-01 -0.7543043E-19
 0.3970000E-01 -0.9541724E-19
 0.4012000E-01 -0.1087653E-18
 0.4054000E-01 -0.1117197E-18
 0.4096000E-01 -0.1008031E-18
 0.4138000E-01 -0.7334985E-19
 0.4180000E-01 -0.2808342E-19
 0.4222000E-01  0.3432796E-19
 0.4264000E-01  0.1108140E-18
 0.4306000E-01  0.1956283E-18
 0.4348000E-01  0.2803408E-18
 0.4390000E-01  0.3541675E-18
 0.4432000E-01  0.4046848E-18
 0.4474000E-01  0.4189384E-18
 0.4516000E-01  0.3849116E-18
 0.4558000E-01  0.2932633E-18
 0.4600000E-01  0.1391939E-18
 0.4642000E-01 -0.7576019E-19
 0.4684000E-01 -0.3422332E-18
 0.4726000E-01 -0.6420977E-18
 0.4768000E-01 -0.9483427E-18
 0.4810000E-01 -0.1225977E-17
 0.4852000E-01 -0.1434110E-17
 0.4894000E-01 -0.1529243E-17
 0.4936000E-01 -0.1469704E-17
 0.4978000E-01 -0.1220968E-17
 0.5020000E-01 -0.7614790E-18
 0.5062000E-01 -0.8842943E-19
 0.5104000E-01  0.7771814E-18
 0.5146000E-01  0.1786942E-17
 0.5188000E-01  0.2863635E-17
 0.5230000E-01  0.3902727E-17
 0.5272000E-01  0.4777268E-17
 0.5314000E-01  0.5346450E-17
 0.5356000E-01  0.5467751E-17
 0.5398000E-01  0.5012179E-17
 0.5440000E-01  0.3881678E-17
 0.5482000E-01  0.2027334E-17
 0.5524000E-01 -0.5333876E-18
 0.5566000E-01 -0.3702428E-17
 0.5608000E-01 -0.7292124E-17
 0.5650000E-01 -0.1102358E-16
 0.5692000E-01 -0.1453419E-16
 0.5734000E-01 -0.1739572E-16
 0.5776000E-01 -0.1914334E-16
 0.5818000E-01 -0.1931523E-16
 0.5860000E-01 -0.1750097E-16
 0.5902000E-01 -0.1339590E-16
 0.5944000E-01 -0.6857240E-17
 0.5986000E-01  0.2043392E-17
 0.6028000E-01  0.1297675E-16
 0.6070000E-01  0.2532879E-16
 0.6112000E-01  0.3819553E-16
 0.6154000E-01  0.5040534E-16
 0.6196000E-01  0.6057272E-16
 0.6238000E-01  0.6718502E-16
 0.6280000E-01  0.6872128E-16
 0.6322000E-01  0.6379848E-16
 0.6364000E-01  0.5133769E-16
 0.6406000E-01  0.3073824E-16
 0.6448000E-01  0.2045630E-17
 0.6490000E-01 -0.3390435E-16
 0.6532000E-01 -0.7538371E-16
 0.6574000E-01 -0.1197313E-15
 0.6616000E-01 -0.1633900E-15
 0.6658000E-01 -0.2020354E-15
 0.6700000E-01 -0.2308046E-15
 0.6742000E-01 -0.2446256E-15
 0.6784000E-01 -0.2386386E-15
 0.6826000E-01 -0.2086932E-15
 0.6868000E-01 -0.1518904E-15
 0.6910000E-01 -0.6713262E-16
 0.6952000E-01  0.4436662E-16
 0.6994000E-01  0.1786679E-15
 0.7036000E-01  0.3288423E-15
 0.7078000E-01  0.4849169E-15
 0.7120000E-01  0.6340776E-15
 0.7162000E-01  0.7611703E-15
 0.7204000E-01  0.8495188E-15
 0.7246000E-01  0.8820591E-15
 0.7288000E-01  0.8427598E-15
 0.7330000E-01  0.7182672E-15
 0.7372000E-01  0.4996826E-15
 0.7414000E-01  0.1843482E-15
 0.7456000E-01 -0.2225131E-15
 0.7498000E-01 -0.7064711E-15
 0.7540000E-01 -0.1243064E-14
 0.7582000E-01 -0.1797648E-14
 0.7624000E-01 -0.2326087E-14
 0.7666000E-01 -0.2776398E-14
 0.7708000E-01 -0.3091437E-14
 0.7750000E-01 -0.3212608E-14
 0.7792000E-01 -0.3084512E-14
 0.7834000E-01 -0.2660354E-14
 0.7876000E-01 -0.1907820E-14
 0.7918000E-01 -0.8150326E-15
 0.7960000E-01  0.6038934E-15
 0.8002000E-01  0.2304228E-14
 0.8044000E-01  0.4207540E-14
 0.8086000E-01  0.6200706E-14
 0.8128000E-01  0.8137568E-14
 0.8170000E-01  0.9843660E-14
 0.8212000E-01  0.1112428E-13
 0.8254000E-01  0.1177596E-13
 0.8296000E-01  0.1160116E-13
 0.8338000E-01  0.1042566E-13
 0.8380000E-01  0.8117776E-14
 0.8422000E-01  0.4608468E-14
 0.8464000E-01 -0.8941513E-16
 0.8506000E-01 -0.5864166E-14
 0.8548000E-01 -0.1249249E-13
 0.8590000E-01 -0.1963292E-13
 0.8632000E-01 -0.2682713E-13
 0.8674000E-01 -0.3351076E-13
 0.8716000E-01 -0.3903486E-13
 0.8758000E-01 -0.4269864E-13
 0.8800000E-01 -0.4379309E-13
 0.8842000E-01 -0.4165476E-13
 0.8884000E-01 -0.3572726E-13
 0.8926000E-01 -0.2562776E-13
 0.8968000E-01 -0.1121408E-13
 0.9010000E-01  0.7352250E-14
 0.9052000E-01  0.2955300E-13
 0.9094000E-01  0.5447611E-13
 0.9136000E-01  0.8080066E-13
 0.9178000E-01  0.1068098E-12
 0.9220000E-01  0.1304361E-12
 0.9262000E-01  0.1493429E-12
 0.9304000E-01  0.1610434E-12
 0.9346000E-01  0.1630554E-12
 0.9388000E-01  0.1530884E-12
 0.9430000E-01  0.1292562E-12
 0.9472000E-01  0.9030287E-13
 0.9514000E-01  0.3583079E-13
 0.9556000E-01 -0.3348831E-13
 0.9598000E-01 -0.1157357E-12
 0.9640000E-01 -0.2076234E-12
 0.9682000E-01 -0.3044455E-12
 0.9724000E-01 -0.4001229E-12
 0.9766000E-01 -0.4873579E-12
 0.9808000E-01 -0.5579067E-12
 0.9850000E-01 -0.6029793E-12
 0.9892000E-01 -0.6137580E-12
 0.9934000E-01 -0.5820282E-12
 0.9976000E-01 -0.5008927E-12
 0.1001800E+00 -0.3655406E-12
 0.1006000E+00 -0.1740264E-12
 0.1010200E+00  0.7199589E-13
 0.1014400E+00  0.3666402E-12
 0.1018600E+00  0.6993261E-12
 0.1022800E+00  0.1054549E-11
 0.1027000E+00  0.1411951E-11
 0.1031200E+00  0.1746737E-11
 0.1035400E+00  0.2030494E-11
 0.1039600E+00  0.2232414E-11
 0.1043800E+00  0.2320940E-11
 0.1048000E+00  0.2265788E-11
 0.1052200E+00  0.2040295E-11
 0.1056400E+00  0.1623987E-11
 0.1060600E+00  0.1005249E-11
 0.1064800E+00  0.1839222E-12
 0.1069000E+00 -0.8263503E-12
 0.1073200E+00 -0.1996237E-11
 0.1077400E+00 -0.3279509E-11
 0.1081600E+00 -0.4612723E-11
 0.1085800E+00 -0.5915991E-11
 0.1090000E+00 -0.7094991E-11
 0.1094200E+00 -0.8044343E-11
 0.1098400E+00 -0.8652371E-11
 0.1102600E+00 -0.8807235E-11
 0.1106800E+00 -0.8404277E-11
 0.1111000E+00 -0.7354340E-11
 0.1115200E+00 -0.5592733E-11
 0.1119400E+00 -0.3088330E-11
 0.1123600E+00  0.1476771E-12
 0.1127800E+00  0.4054080E-11
 0.1132000E+00  0.8513657E-11
 0.1136200E+00  0.1334959E-10
 0.1140400E+00  0.1832503E-10
 0.1144600E+00  0.2314636E-10
 0.1148800E+00  0.2747073E-10
 0.1153000E+00  0.3091816E-10
 0.1157200E+00  0.3308833E-10
 0.1161400E+00  0.3358190E-10
 0.1165600E+00  0.3202588E-10
 0.1169800E+00  0.2810224E-10
 0.1174000E+00  0.2157856E-10
 0.1178200E+00  0.1233931E-10
 0.1182400E+00  0.4158237E-12
 0.1186600E+00 -0.1398701E-10
 0.1190800E+00 -0.3046966E-10
 0.1195000E+00 -0.4842477E-10
 0.1199200E+00 -0.6703420E-10
 0.1203400E+00 -0.8527824E-10
 0.1207600E+00 -0.1019589E-09
 0.1211800E+00 -0.1157385E-09
 0.1216000E+00 -0.1251935E-09
 0.1220200E+00 -0.1288841E-09
 0.1224400E+00 -0.1254382E-09
 0.1228600E+00 -0.1136457E-09
 0.1232800E+00 -0.9256278E-10
 0.1237000E+00 -0.6161816E-10
 0.1241200E+00 -0.2071834E-10
 0.1245400E+00  0.2965629E-10
 0.1249600E+00  0.8837071E-10
 0.1253800E+00  0.1535785E-09
 0.1258000E+00  0.2226949E-09
 0.1262200E+00  0.2924091E-09
 0.1266400E+00  0.3587397E-09
 0.1270600E+00  0.4171396E-09
 0.1274800E+00  0.4626524E-09
 0.1279000E+00  0.4901213E-09
 0.1283200E+00  0.4944470E-09
 0.1287400E+00  0.4708902E-09
 0.1291600E+00  0.4154079E-09
 0.1295800E+00  0.3250120E-09
 0.1300000E+00  0.1981344E-09
 0.1304200E+00  0.3497624E-10
 0.1308400E+00 -0.1621758E-09
 0.1312600E+00 -0.3886942E-09
 0.1316800E+00 -0.6374382E-09
 0.1321000E+00 -0.8986902E-09
 0.1325200E+00 -0.1160221E-08
 0.1329400E+00 -0.1407508E-08
 0.1333600E+00 -0.1624110E-08
 0.1337800E+00 -0.1792222E-08
 0.1342000E+00 -0.1893400E-08
 0.1346200E+00 -0.1909440E-08
 0.1350400E+00 -0.1823412E-08
 0.1354600E+00 -0.1620797E-08
 0.1358800E+00 -0.1290703E-08
 0.1363000E+00 -0.8270960E-09
 0.1367200E+00 -0.2299881E-09
 0.1371400E+00  0.4934821E-09
 0.1375600E+00  0.1328160E-08
 0.1379800E+00  0.2250249E-08
 0.1384000E+00  0.3227028E-08
 0.1388200E+00  0.4216985E-08
 0.1392400E+00  0.5170425E-08
 0.1396600E+00  0.6030607E-08
 0.1400800E+00  0.6735437E-08
 0.1405000E+00  0.7219722E-08
 0.1409200E+00  0.7417968E-08
 0.1413400E+00  0.7267662E-08
 0.1417600E+00  0.6712972E-08
 0.1421800E+00  0.5708716E-08
 0.1426000E+00  0.4224484E-08
 0.1430200E+00  0.2248705E-08
 0.1434400E+00 -0.2075389E-09
 0.1438600E+00 -0.3107186E-08
 0.1442800E+00 -0.6384583E-08
 0.1447000E+00 -0.9943861E-08
 0.1451200E+00 -0.1365849E-07
 0.1455400E+00 -0.1737228E-07
 0.1459600E+00 -0.2090198E-07
 0.1463800E+00 -0.2404154E-07
 0.1468000E+00 -0.2656831E-07
 0.1472200E+00 -0.2825085E-07
 0.1476400E+00 -0.2885858E-07
 0.1480600E+00 -0.2817292E-07
 0.1484800E+00 -0.2599952E-07
 0.1489000E+00 -0.2218157E-07
 0.1493200E+00 -0.1661328E-07
 0.1497400E+00 -0.9253193E-08
 0.1501600E+00 -0.1367278E-09
 0.1505800E+00  0.1061294E-07
 0.1510000E+00  0.2277624E-07
 0.1514200E+00  0.3603159E-07
 0.1518400E+00  0.4995355E-07
 0.1522600E+00  0.6401533E-07
 0.1526800E+00  0.7759634E-07
 0.1531000E+00  0.8999489E-07
 0.1535200E+00  0.1004467E-06
 0.1539400E+00  0.1081487E-06
 0.1543600E+00  0.1122886E-06
 0.1547800E+00  0.1120789E-06
 0.1552000E+00  0.1067953E-06
 0.1556200E+00  0.9581798E-07
 0.1560400E+00  0.7867465E-07
 0.1564600E+00  0.5508377E-07
 0.1568800E+00  0.2499596E-07
 0.1573000E+00 -0.1136811E-07
 0.1577200E+00 -0.5348588E-07
 0.1581400E+00 -0.1005087E-06
 0.1585600E+00 -0.1512481E-06
 0.1589800E+00 -0.2041736E-06
 0.1594000E+00 -0.2574245E-06
 0.1598200E+00 -0.3088375E-06
 0.1602400E+00 -0.3559892E-06
 0.1606600E+00 -0.3962566E-06
 0.1610800E+00 -0.4268931E-06
 0.1615000E+00 -0.4451210E-06
 0.1619200E+00 -0.4482372E-06
 0.1623400E+00 -0.4337320E-06
 0.1627600E+00 -0.3994153E-06
 0.1631800E+00 -0.3435491E-06
 0.1636000E+00 -0.2649795E-06
 0.1640200E+00 -0.1632653E-06
 0.1644400E+00 -0.3879629E-07
 0.1648600E+00  0.1071045E-06
 0.1652800E+00  0.2720982E-06
 0.1657000E+00  0.4527769E-06
 0.1661200E+00  0.6446404E-06
 0.1665400E+00  0.8421118E-06
 0.1669600E+00  0.1038594E-05
 0.1673800E+00  0.1226569E-05
 0.1678000E+00  0.1397746E-05
 0.1682200E+00  0.1543252E-05
 0.1686400E+00  0.1653870E-05
 0.1690600E+00  0.1720317E-05
 0.1694800E+00  0.1733564E-05
 0.1699000E+00  0.1685181E-05
 0.1703200E+00  0.1567705E-05
 0.1707400E+00  0.1375032E-05
 0.1711600E+00  0.1102794E-05
 0.1715800E+00  0.7487456E-06
 0.1720000E+00  0.3131133E-06
 0.1724200E+00 -0.2010795E-06
 0.1728400E+00 -0.7877370E-06
 0.1732600E+00 -0.1437474E-05
 0.1736800E+00 -0.2137471E-05
 0.1741000E+00 -0.2871403E-05
 0.1745200E+00 -0.3619456E-05
 0.1749400E+00 -0.4358433E-05
 0.1753600E+00 -0.5061951E-05
 0.1757800E+00 -0.5700727E-05
 0.1762000E+00 -0.6242950E-05
 0.1766200E+00 -0.6654729E-05
 0.1770400E+00 -0.6900594E-05
 0.1774600E+00 -0.6944060E-05
 0.1778800E+00 -0.6748210E-05
 0.1783000E+00 -0.6276283E-05
 0.1787200E+00 -0.5492243E-05
 0.1791400E+00 -0.4361309E-05
 0.1795600E+00 -0.2850404E-05
 0.1799800E+00 -0.9285150E-06
 0.1804000E+00  0.1433082E-05
 0.1808200E+00  0.4260760E-05
 0.1812400E+00  0.7578630E-05
 0.1816600E+00  0.1140884E-04
 0.1820800E+00  0.1577212E-04
 0.1825000E+00  0.2068851E-04
 0.1829200E+00  0.2617835E-04
 0.1833400E+00  0.3226346E-04
 0.1837600E+00  0.3896866E-04
 0.1841800E+00  0.4632348E-04
 0.1846000E+00  0.5436397E-04
 0.1850200E+00  0.6313488E-04
 0.1854400E+00  0.7269193E-04
 0.1858600E+00  0.8310419E-04
 0.1862800E+00  0.9445670E-04
 0.1867000E+00  0.1068531E-03
 0.1871200E+00  0.1204183E-03
 0.1875400E+00  0.1353014E-03
 0.1879600E+00  0.1516780E-03
 0.1883800E+00  0.1697537E-03
 0.1888000E+00  0.1897659E-03
 0.1892200E+00  0.2119872E-03
 0.1896400E+00  0.2367275E-03
 0.1900600E+00  0.2643368E-03
 0.1904800E+00  0.2952076E-03
 0.1909000E+00  0.3297778E-03
 0.1913200E+00  0.3685323E-03
 0.1917400E+00  0.4120061E-03
 0.1921600E+00  0.4607867E-03
 0.1925800E+00  0.5155169E-03
 0.1930000E+00  0.5768973E-03
 0.1934200E+00  0.6456893E-03
 0.1938400E+00  0.7227183E-03
 0.1942600E+00  0.8088775E-03
 0.1946800E+00  0.9051309E-03
 0.1951000E+00  0.1012519E-02
 0.1955200E+00  0.1132162E-02
 0.1959400E+00  0.1265266E-02
 0.1963600E+00  0.1413126E-02
 0.1967800E+00  0.1577136E-02
 0.1972000E+00  0.1758790E-02
 0.1976200E+00  0.1959694E-02
 0.1980400E+00  0.2181568E-02
 0.1984600E+00  0.2426259E-02
 0.1988800E+00  0.2695743E-02
 0.1993000E+00  0.2992135E-02
 0.1997200E+00  0.3317698E-02
 0.2001400E+00  0.3674846E-02
 0.2005600E+00  0.4066159E-02
 0.2009800E+00  0.4494380E-02
 0.2014000E+00  0.4962432E-02
 0.2018200E+00  0.5473415E-02
 0.2022400E+00  0.6030619E-02
 0.2026600E+00  0.6637518E-02
 0.2030800E+00  0.7297779E-02
 0.2035000E+00  0.8015267E-02
 0.2039200E+00  0.8794038E-02
 0.2043400E+00  0.9638342E-02
 0.2047600E+00  0.1055262E-01
 0.2051800E+00  0.1154149E-01
 0.2056000E+00  0.1260975E-01
 0.2060200E+00  0.1376236E-01
 0.2064400E+00  0.1500445E-01
 0.2068600E+00  0.1634128E-01
 0.2072800E+00  0.1777823E-01
 0.2077000E+00  0.1932077E-01
 0.2081200E+00  0.2097448E-01
 0.2085400E+00  0.2274497E-01
 0.2089600E+00  0.2463789E-01
 0.2093800E+00  0.2665887E-01
 0.2098000E+00  0.2881349E-01
 0.2102200E+00  0.3110725E-01
 0.2106400E+00  0.3354554E-01
 0.2110600E+00  0.3613353E-01
 0.2114800E+00  0.3887619E-01
 0.2119000E+00  0.4177820E-01
 0.2123200E+00  0.4484389E-01
 0.2127400E+00  0.4807719E-01
 0.2131600E+00  0.5148153E-01
 0.2135800E+00  0.5505980E-01
 0.2140000E+00  0.5881429E-01
 0.2144200E+00  0.6274655E-01
 0.2148400E+00  0.6685732E-01
 0.2152600E+00  0.7114649E-01
 0.2156800E+00  0.7561297E-01
 0.2161000E+00  0.8025458E-01
 0.2165200E+00  0.8506805E-01
 0.2169400E+00  0.9004876E-01
 0.2173600E+00  0.9519079E-01
 0.2177800E+00  0.1004867E+00
 0.2182000E+00  0.1059277E+00
 0.2186200E+00  0.1115030E+00
 0.2190400E+00  0.1172002E+00
 0.2194600E+00  0.1230053E+00
 0.2198800E+00  0.1289020E+00
 0.2203000E+00  0.1348722E+00
 0.2207200E+00  0.1408957E+00
 0.2211400E+00  0.1469501E+00
 0.2215600E+00  0.1530107E+00
 0.2219800E+00  0.1590508E+00
 0.2224000E+00  0.1650411E+00
 0.2228200E+00  0.1709500E+00
 0.2232400E+00  0.1767438E+00
 0.2236600E+00  0.1823861E+00
 0.2240800E+00  0.1878384E+00
 0.2245000E+00  0.1930601E+00
 0.2249200E+00  0.1980082E+00
 0.2253400E+00  0.2026374E+00
 0.2257600E+00  0.2069007E+00
 0.2261800E+00  0.2107489E+00
 0.2266000E+00  0.2141313E+00
 0.2270200E+00  0.2169955E+00
 0.2274400E+00  0.2192877E+00
 0.2278600E+00  0.2209529E+00
 0.2282800E+00  0.2219352E+00
 0.2287000E+00  0.2221781E+00
 0.2291200E+00  0.2216246E+00
 0.2295400E+00  0.2202179E+00
 0.2299600E+00  0.2179012E+00
 0.2303800E+00  0.2146188E+00
 0.2308000E+00  0.2103155E+00
 0.2312200E+00  0.2049380E+00
 0.2316400E+00  0.1984347E+00
 0.2320600E+00  0.1907565E+00
 0.2324800E+00  0.1818570E+00
 0.2329000E+00  0.1716929E+00
 0.2333200E+00  0.1602251E+00
 0.2337400E+00  0.1474184E+00
 0.2341600E+00  0.1332423E+00
 0.2345800E+00  0.1176717E+00
 0.2350000E+00  0.1006873E+00
 0.2354200E+00  0.8227601E-01
 0.2358400E+00  0.6243110E-01
 0.2362600E+00  0.4115335E-01
 0.2366800E+00  0.1845098E-01
 0.2371000E+00 -0.5659870E-02
 0.2375200E+00 -0.3115473E-01
 0.2379400E+00 -0.5800049E-01
 0.2383600E+00 -0.8615495E-01
 0.2387800E+00 -0.1155665E+00
 0.2392000E+00 -0.1461742E+00
 0.2396200E+00 -0.1779075E+00
 0.2400400E+00 -0.2106867E+00
 0.2404600E+00 -0.2444217E+00
 0.2408800E+00 -0.2790127E+00
 0.2413000E+00 -0.3143505E+00
 0.2417200E+00 -0.3503163E+00
 0.2421400E+00 -0.3867823E+00
 0.2425600E+00 -0.4236118E+00
 0.2429800E+00 -0.4606596E+00
 0.2434000E+00 -0.4977725E+00
 0.2438200E+00 -0.5347900E+00
 0.2442400E+00 -0.5715447E+00
 0.2446600E+00 -0.6078629E+00
 0.2450800E+00 -0.6435657E+00
 0.2455000E+00 -0.6784695E+00
 0.2459200E+00 -0.7123872E+00
 0.2463400E+00 -0.7451291E+00
 0.2467600E+00 -0.7765040E+00
 0.2471800E+00 -0.8063204E+00
 0.2476000E+00 -0.8343864E+00
 0.2480200E+00 -0.8605129E+00
 0.2484400E+00 -0.8845134E+00
 0.2488600E+00 -0.9062055E+00
 0.2492800E+00 -0.9254121E+00
 0.2497000E+00 -0.9419627E+00
 0.2501200E+00 -0.9556949E+00
 0.2505400E+00 -0.9664554E+00
 0.2509600E+00 -0.9741014E+00
 0.2513800E+00 -0.9785017E+00
 0.2518000E+00 -0.9795374E+00
 0.2522200E+00 -0.9771037E+00
 0.2526400E+00 -0.9711106E+00
 0.2530600E+00 -0.9614840E+00
 0.2534800E+00 -0.9481661E+00
 0.2539000E+00 -0.9311169E+00
 0.2543200E+00 -0.9103143E+00
 0.2547400E+00 -0.8857547E+00
 0.2551600E+00 -0.8574541E+00
 0.2555800E+00 -0.8254479E+00
 0.2560000E+00 -0.7897913E+00
 0.2564200E+00 -0.7505600E+00
 0.2568400E+00 -0.7078488E+00
 0.2572600E+00 -0.6617728E+00
 0.2576800E+00 -0.6124669E+00
 0.2581000E+00 -0.5600848E+00
 0.2585200E+00 -0.5047990E+00
 0.2589400E+00 -0.4467997E+00
 0.2593600E+00 -0.3862942E+00
 0.2597800E+00 -0.3235059E+00
 0.2602000E+00 -0.2586732E+00
 0.2606200E+00 -0.1920486E+00
 0.2610400E+00 -0.1238975E+00
 0.2614600E+00 -0.5449598E-01
 0.2618800E+00  0.1586986E-01
 0.2623000E+00  0.8690622E-01
 0.2627200E+00  0.1583128E+00
 0.2631400E+00  0.2297845E+00
 0.2635600E+00  0.3010126E+00
 0.2639800E+00  0.3716881E+00
 0.2644000E+00  0.4415019E+00
 0.2648200E+00  0.5101469E+00
 0.2652400E+00  0.5773214E+00
 0.2656600E+00  0.6427289E+00
 0.2660800E+00  0.7060810E+00
 0.2665000E+00  0.7670993E+00
 0.2669200E+00  0.8255162E+00
 0.2673400E+00  0.8810769E+00
 0.2677600E+00  0.9335409E+00
 0.2681800E+00  0.9826834E+00
 0.2686000E+00  0.1028297E+01
 0.2690200E+00  0.1070192E+01
 0.2694400E+00  0.1108199E+01
 0.2698600E+00  0.1142167E+01
 0.2702800E+00  0.1171968E+01
 0.2707000E+00  0.1197495E+01
 0.2711200E+00  0.1218662E+01
 0.2715400E+00  0.1235407E+01
 0.2719600E+00  0.1247691E+01
 0.2723800E+00  0.1255498E+01
 0.2728000E+00  0.1258832E+01
 0.2732200E+00  0.1257723E+01
 0.2736400E+00  0.1252221E+01
 0.2740600E+00  0.1242399E+01
 0.2744800E+00  0.1228351E+01
 0.2749000E+00  0.1210190E+01
 0.2753200E+00  0.1188049E+01
 0.2757400E+00  0.1162080E+01
 0.2761600E+00  0.1132450E+01
 0.2765800E+00  0.1099345E+01
 0.2770000E+00  0.1062963E+01
 0.2774200E+00  0.1023516E+01
 0.2778400E+00  0.9812281E+00
 0.2782600E+00  0.9363335E+00
 0.2786800E+00  0.8890743E+00
 0.2791000E+00  0.8396998E+00
 0.2795200E+00  0.7884651E+00
 0.2799400E+00  0.7356293E+00
 0.2803600E+00  0.6814533E+00
 0.2807800E+00  0.6261989E+00
 0.2812000E+00  0.5701268E+00
 0.2816200E+00  0.5134959E+00
 0.2820400E+00  0.4565610E+00
 0.2824600E+00  0.3995719E+00
 0.2828800E+00  0.3427720E+00
 0.2833000E+00  0.2863971E+00
 0.2837200E+00  0.2306741E+00
 0.2841400E+00  0.1758203E+00
 0.2845600E+00  0.1220417E+00
 0.2849800E+00  0.6953282E-01
 0.2854000E+00  0.1847543E-01
 0.2858200E+00 -0.3096178E-01
 0.2862400E+00 -0.7862408E-01
 0.2866600E+00 -0.1243709E+00
 0.2870800E+00 -0.1680755E+00
 0.2875000E+00 -0.2096261E+00
 0.2879200E+00 -0.2489261E+00
 0.2883400E+00 -0.2858933E+00
 0.2887600E+00 -0.3204599E+00
 0.2891800E+00 -0.3525730E+00
 0.2896000E+00 -0.3821939E+00
 0.2900200E+00 -0.4092975E+00
 0.2904400E+00 -0.4338727E+00
 0.2908600E+00 -0.4559215E+00
 0.2912800E+00 -0.4754581E+00
 0.2917000E+00 -0.4925086E+00
 0.2921200E+00 -0.5071105E+00
 0.2925400E+00 -0.5193119E+00
 0.2929600E+00 -0.5291704E+00
 0.2933800E+00 -0.5367525E+00
 0.2938000E+00 -0.5421329E+00
 0.2942200E+00 -0.5453936E+00
 0.2946400E+00 -0.5466235E+00
 0.2950600E+00 -0.5459170E+00
 0.2954800E+00 -0.5433735E+00
 0.2959000E+00 -0.5390965E+00
 0.2963200E+00 -0.5331929E+00
 0.2967400E+00 -0.5257720E+00
 0.2971600E+00 -0.5169452E+00
 0.2975800E+00 -0.5068246E+00
 0.2980000E+00 -0.4955228E+00
 0.2984200E+00 -0.4831521E+00
 0.2988400E+00 -0.4698234E+00
 0.2992600E+00 -0.4556466E+00
 0.2996800E+00 -0.4407291E+00
 0.3001000E+00 -0.4251761E+00
 0.3005200E+00 -0.4090893E+00
 0.3009400E+00 -0.3925672E+00
 0.3013600E+00 -0.3757048E+00
 0.3017800E+00 -0.3585925E+00
 0.3022000E+00 -0.3413167E+00
 0.3026200E+00 -0.3239595E+00
 0.3030400E+00 -0.3065980E+00
 0.3034600E+00 -0.2893049E+00
 0.3038800E+00 -0.2721474E+00
 0.3043000E+00 -0.2551883E+00
 0.3047200E+00 -0.2384850E+00
 0.3051400E+00 -0.2220902E+00
 0.3055600E+00 -0.2060512E+00
 0.3059800E+00 -0.1904103E+00
 0.3064000E+00 -0.1752049E+00
 0.3068200E+00 -0.1604675E+00
 0.3072400E+00 -0.1462262E+00
 0.3076600E+00 -0.1325044E+00
 0.3080800E+00 -0.1193212E+00
 0.3085000E+00 -0.1066922E+00
 0.3089200E+00 -0.9462868E-01
 0.3093400E+00 -0.8313888E-01
 0.3097600E+00 -0.7222747E-01
 0.3101800E+00 -0.6189601E-01
 0.3106000E+00 -0.5214324E-01
 0.3110200E+00 -0.4296509E-01
 0.3114400E+00 -0.3435495E-01
 0.3118600E+00 -0.2630388E-01
 0.3122800E+00 -0.1880084E-01
 0.3127000E+00 -0.1183303E-01
 0.3131200E+00 -0.5385990E-02
 0.3135400E+00  0.5560852E-03
 0.3139600E+00  0.6010026E-02
 0.3143800E+00  0.1099360E-01
 0.3148000E+00  0.1552534E-01
 0.3152200E+00  0.1962428E-01
 0.3156400E+00  0.2330997E-01
 0.3160600E+00  0.2660226E-01
 0.3164800E+00  0.2952108E-01
 0.3169000E+00  0.3208657E-01
 0.3173200E+00  0.3431894E-01
 0.3177400E+00  0.3623821E-01
 0.3181600E+00  0.3786422E-01
 0.3185800E+00  0.3921658E-01
 0.3190000E+00  0.4031452E-01
 0.3194200E+00  0.4117666E-01
 0.3198400E+00  0.4182113E-01
 0.3202600E+00  0.4226553E-01
 0.3206800E+00  0.4252678E-01
 0.3211000E+00  0.4262108E-01
 0.3215200E+00  0.4256387E-01
 0.3219400E+00  0.4236993E-01
 0.3223600E+00  0.4205314E-01
 0.3227800E+00  0.4162667E-01
 0.3232000E+00  0.4110299E-01
 0.3236200E+00  0.4049379E-01
 0.3240400E+00  0.3980993E-01
 0.3244600E+00  0.3906154E-01
 0.3248800E+00  0.3825808E-01
 0.3253000E+00  0.3740832E-01
 0.3257200E+00  0.3652031E-01
 0.3261400E+00  0.3560145E-01
 0.3265600E+00  0.3465860E-01
 0.3269800E+00  0.3369798E-01
 0.3274000E+00  0.3272525E-01
 0.3278200E+00  0.3174552E-01
 0.3282400E+00  0.3076344E-01
 0.3286600E+00  0.2978319E-01
 0.3290800E+00  0.2880855E-01
 0.3295000E+00  0.2784287E-01
 0.3299200E+00  0.2688916E-01
 0.3303400E+00  0.2595012E-01
 0.3307600E+00  0.2502810E-01
 0.3311800E+00  0.2412513E-01
 0.3316000E+00  0.2324291E-01
 0.3320200E+00  0.2238287E-01
 0.3324400E+00  0.2154608E-01
 0.3328600E+00  0.2073335E-01
 0.3332800E+00  0.1994522E-01
 0.3337000E+00  0.1918198E-01
 0.3341200E+00  0.1844377E-01
 0.3345400E+00  0.1773055E-01
 0.3349600E+00  0.1704213E-01
 0.3353800E+00  0.1637827E-01
 0.3358000E+00  0.1573864E-01
 0.3362200E+00  0.1512289E-01
 0.3366400E+00  0.1453060E-01
 0.3370600E+00  0.1396132E-01
 0.3374800E+00  0.1341452E-01
 0.3379000E+00  0.1288968E-01
 0.3383200E+00  0.1238625E-01
 0.3387400E+00  0.1190363E-01
 0.3391600E+00  0.1144125E-01
 0.3395800E+00  0.1099851E-01