-0.8000000E-01  0.0000000E+00
-0.7958000E-01  0.0000000E+00
-0.7916000E-01  0.0000000E+00
-0.7874000E-01  0.0000000E+00
-0.7832000E-01  0.0000000E+00
-0.7790000E-01  0.0000000E+00
-0.7748000E-01  0.0000000E+00
-0.7706000E-01  0.0000000E+00
-0.7664000E-01  0.0000000E+00
-0.7622000E-01  0.0000000E+00
-0.7580000E-01  0.0000000E+00
-0.7538000E-01  0.0000000E+00
-0.7496000E-01  0.0000000E+00
-0.7454000E-01  0.0000000E+00
-0.7412000E-01  0.0000000E+00
-0.7370000E-01  0.0000000E+00
-0.7328000E-01  0.0000000E+00
-0.7286000E-01  0.0000000E+00
-0.7244000E-01  0.0000000E+00
-0.7202000E-01  0.0000000E+00
-0.7160000E-01  0.0000000E+00
-0.7118000E-01  0.0000000E+00
-0.7076000E-01  0.0000000E+00
-0.7034000E-01  0.0000000E+00
-0.6992000E-01  0.0000000E+00
-0.6950000E-01  0.0000000E+00
-0.6908000E-01  0.0000000E+00
-0.6866000E-01  0.0000000E+00
-0.6824000E-01  0.0000000E+00
-0.6782000E-01  0.0000000E+00
-0.6740000E-01  0.0000000E+00
-0.6698000E-01  0.0000000E+00
-0.6656000E-01  0.0000000E+00
-0.6614000E-01  0.0000000E+00
-0.6572000E-01  0.0000000E+00
-0.6530000E-01  0.0000000E+00
-0.6488000E-01  0.0000000E+00
-0.6446000E-01  0.0000000E+00
-0.6404000E-01  0.0000000E+00
-0.6362000E-01  0.0000000E+00
-0.6320000E-01  0.0000000E+00
-0.6278000E-01  0.0000000E+00
-0.6236000E-01  0.0000000E+00
-0.6194000E-01  0.0000000E+00
-0.6152000E-01  0.0000000E+00
-0.6110000E-01  0.0000000E+00
-0.6068000E-01  0.0000000E+00
-0.6026000E-01  0.0000000E+00
-0.5984000E-01  0.0000000E+00
-0.5942000E-01  0.0000000E+00
-0.5900000E-01  0.0000000E+00
-0.5858000E-01  0.0000000E+00
-0.5816000E-01  0.0000000E+00
-0.5774000E-01  0.0000000E+00
-0.5732000E-01  0.0000000E+00
-0.5690000E-01  0.0000000E+00
-0.5648000E-01  0.0000000E+00
-0.5606000E-01  0.0000000E+00
-0.5564000E-01  0.0000000E+00
-0.5522000E-01  0.0000000E+00
-0.5480000E-01  0.0000000E+00
-0.5438000E-01  0.0000000E+00
-0.5396000E-01  0.0000000E+00
-0.5354000E-01  0.0000000E+00
-0.5312000E-01  0.0000000E+00
-0.5270000E-01  0.0000000E+00
-0.5228000E-01  0.0000000E+00
-0.5186000E-01  0.0000000E+00
-0.5144000E-01  0.0000000E+00
-0.5102000E-01  0.0000000E+00
-0.5060000E-01  0.0000000E+00
-0.5018000E-01  0.0000000E+00
-0.4976000E-01  0.0000000E+00
-0.4934000E-01  0.0000000E+00
-0.4892000E-01  0.0000000E+00
-0.4850000E-01  0.0000000E+00
-0.4808000E-01  0.0000000E+00
-0.4766000E-01  0.0000000E+00
-0.4724000E-01  0.0000000E+00
-0.4682000E-01  0.0000000E+00
-0.4640000E-01  0.0000000E+00
-0.4598000E-01  0.0000000E+00
-0.4556000E-01  0.0000000E+00
-0.4514000E-01  0.0000000E+00
-0.4472000E-01  0.0000000E+00
-0.4430000E-01  0.0000000E+00
-0.4388000E-01  0.0000000E+00
-0.4346000E-01  0.0000000E+00
-0.4304000E-01  0.0000000E+00
-0.4262000E-01  0.0000000E+00
-0.4220000E-01  0.0000000E+00
-0.4178000E-01  0.0000000E+00
-0.4136000E-01  0.0000000E+00
-0.4094000E-01  0.0000000E+00
-0.4052000E-01  0.0000000E+00
-0.4010000E-01  0.0000000E+00
-0.3968000E-01  0.0000000E+00
-0.3926000E-01  0.0000000E+00
-0.3884000E-01  0.0000000E+00
-0.3842000E-01  0.0000000E+00
-0.3800000E-01  0.0000000E+00
-0.3758000E-01  0.0000000E+00
-0.3716000E-01  0.0000000E+00
-0.3674000E-01  0.0000000E+00
-0.3632000E-01  0.0000000E+00
-0.3590000E-01  0.0000000E+00
-0.3548000E-01  0.0000000E+00
-0.3506000E-01  0.0000000E+00
-0.3464000E-01  0.0000000E+00
-0.3422000E-01  0.0000000E+00
-0.3380000E-01  0.0000000E+00
-0.3338000E-01  0.0000000E+00
-0.3296000E-01  0.0000000E+00
-0.3254000E-01  0.0000000E+00
-0.3212000E-01  0.0000000E+00
-0.3170000E-01  0.0000000E+00
-0.3128000E-01  0.0000000E+00
-0.3086000E-01  0.0000000E+00
-0.3044000E-01  0.0000000E+00
-0.3002000E-01  0.0000000E+00
-0.2960000E-01  0.0000000E+00
-0.2918000E-01  0.0000000E+00
-0.2876000E-01  0.0000000E+00
-0.2834000E-01  0.0000000E+00
-0.2792000E-01  0.0000000E+00
-0.2750000E-01  0.0000000E+00
-0.2708000E-01  0.0000000E+00
-0.2666000E-01  0.0000000E+00
-0.2624000E-01  0.0000000E+00
-0.2582000E-01  0.0000000E+00
-0.2540000E-01  0.0000000E+00
-0.2498000E-01  0.0000000E+00
-0.2456000E-01  0.0000000E+00
-0.2414000E-01  0.0000000E+00
-0.2372000E-01  0.0000000E+00
-0.2330000E-01  0.0000000E+00
-0.2288000E-01  0.0000000E+00
-0.2246000E-01  0.0000000E+00
-0.2204000E-01  0.0000000E+00
-0.2162000E-01  0.0000000E+00
-0.2120000E-01  0.0000000E+00
-0.2078000E-01  0.0000000E+00
-0.2036000E-01  0.0000000E+00
-0.1994000E-01  0.0000000E+00
-0.1952000E-01  0.0000000E+00
-0.1910000E-01  0.0000000E+00
-0.1868000E-01  0.0000000E+00
-0.1826000E-01  0.0000000E+00
-0.1784000E-01  0.0000000E+00
-0.1742000E-01  0.0000000E+00
-0.1700000E-01  0.0000000E+00
-0.1658000E-01  0.0000000E+00
-0.1616000E-01  0.0000000E+00
-0.1574000E-01  0.0000000E+00
-0.1532000E-01  0.0000000E+00
-0.1490000E-01  0.0000000E+00
-0.1448000E-01  0.0000000E+00
-0.1406000E-01  0.0000000E+00
-0.1364000E-01  0.0000000E+00
-0.1322000E-01  0.0000000E+00
-0.1280000E-01  0.0000000E+00
-0.1238000E-01  0.0000000E+00
-0.1196000E-01  0.0000000E+00
-0.1154000E-01  0.0000000E+00
-0.1112000E-01  0.0000000E+00
-0.1070000E-01  0.0000000E+00
-0.1028000E-01  0.0000000E+00
-0.9860000E-02  0.0000000E+00
-0.9440000E-02  0.0000000E+00
-0.9020000E-02  0.0000000E+00
-0.8600000E-02  0.0000000E+00
-0.8180000E-02  0.0000000E+00
-0.7760000E-02  0.0000000E+00
-0.7340000E-02  0.0000000E+00
-0.6920000E-02  0.0000000E+00
-0.6500000E-02  0.0000000E+00
-0.6080000E-02  0.0000000E+00
-0.5660000E-02  0.0000000E+00
-0.5240000E-02  0.0000000E+00
-0.4820000E-02  0.0000000E+00
-0.4400000E-02  0.0000000E+00
-0.3980000E-02  0.0000000E+00
-0.3560000E-02  0.0000000E+00
-0.3140000E-02  0.0000000E+00
-0.2720000E-02  0.0000000E+00
-0.2300000E-02  0.0000000E+00
-0.1880000E-02  0.0000000E+00
-0.1460000E-02  0.0000000E+00
-0.1040000E-02  0.0000000E+00
-0.6200000E-03  0.0000000E+00
-0.2000000E-03  0.0000000E+00
 0.2200000E-03  0.0000000E+00
 0.6400000E-03  0.0000000E+00
 0.1060000E-02  0.0000000E+00
 0.1480000E-02  0.0000000E+00
 0.1900000E-02  0.0000000E+00
 0.2320000E-02  0.0000000E+00
 0.2740000E-02  0.0000000E+00
 0.3160000E-02  0.0000000E+00
 0.3580000E-02  0.0000000E+00
 0.4000000E-02  0.0000000E+00
 0.4420000E-02  0.0000000E+00
 0.4840000E-02  0.0000000E+00
 0.5260000E-02  0.0000000E+00
 0.5680000E-02  0.0000000E+00
 0.6100000E-02  0.0000000E+00
 0.6520000E-02  0.0000000E+00
 0.6940000E-02  0.0000000E+00
 0.7360000E-02  0.0000000E+00
 0.7780000E-02  0.0000000E+00
 0.8200000E-02  0.0000000E+00
 0.8620000E-02  0.0000000E+00
 0.9040000E-02  0.0000000E+00
 0.9460000E-02  0.0000000E+00
 0.9880000E-02  0.0000000E+00
 0.1030000E-01  0.0000000E+00
 0.1072000E-01  0.0000000E+00
 0.1114000E-01  0.0000000E+00
 0.1156000E-01  0.0000000E+00
 0.1198000E-01  0.0000000E+00
 0.1240000E-01  0.0000000E+00
 0.1282000E-01  0.0000000E+00
 0.1324000E-01  0.0000000E+00
 0.1366000E-01  0.0000000E+00
 0.1408000E-01  0.0000000E+00
 0.1450000E-01  0.0000000E+00
 0.1492000E-01  0.0000000E+00
 0.1534000E-01  0.0000000E+00
 0.1576000E-01  0.0000000E+00
 0.1618000E-01  0.0000000E+00
 0.1660000E-01  0.0000000E+00
 0.1702000E-01  0.0000000E+00
 0.1744000E-01  0.0000000E+00
 0.1786000E-01  0.0000000E+00
 0.1828000E-01  0.0000000E+00
 0.1870000E-01  0.0000000E+00
 0.1912000E-01  0.0000000E+00
 0.1954000E-01  0.0000000E+00
 0.1996000E-01  0.0000000E+00
 0.2038000E-01  0.0000000E+00
 0.2080000E-01  0.0000000E+00
 0.2122000E-01  0.0000000E+00
 0.2164000E-01  0.0000000E+00
 0.2206000E-01  0.0000000E+00
 0.2248000E-01  0.0000000E+00
 0.2290000E-01  0.0000000E+00
 0.2332000E-01  0.0000000E+00
 0.2374000E-01  0.0000000E+00
 0.2416000E-01  0.0000000E+00
 0.2458000E-01  0.0000000E+00
 0.2500000E-01  0.0000000E+00
 0.2542000E-01  0.0000000E+00
 0.2584000E-01  0.0000000E+00
 0.2626000E-01  0.0000000E+00
 0.2668000E-01  0.0000000E+00
 0.2710000E-01  0.0000000E+00
 0.2752000E-01  0.0000000E+00
 0.2794000E-01  0.0000000E+00
 0.2836000E-01  0.0000000E+00
 0.2878000E-01  0.0000000E+00
 0.2920000E-01  0.0000000E+00
 0.2962000E-01  0.0000000E+00
 0.3004000E-01  0.0000000E+00
 0.3046000E-01  0.0000000E+00
 0.3088000E-01  0.0000000E+00
 0.3130000E-01  0.0000000E+00
 0.3172000E-01  0.0000000E+00
 0.3214000E-01  0.0000000E+00
 0.3256000E-01  0.0000000E+00
 0.3298000E-01  0.0000000E+00
 0.3340000E-01  0.0000000E+00
 0.3382000E-01  0.0000000E+00
 0.3424000E-01  0.0000000E+00
 0.3466000E-01  0.0000000E+00
 0.3508000E-01  0.0000000E+00
 0.3550000E-01  0.0000000E+00
 0.3592000E-01  0.0000000E+00
 0.3634000E-01  0.0000000E+00
 0.3676000E-01  0.0000000E+00
 0.3718000E-01  0.0000000E+00
 0.3760000E-01  0.0000000E+00
 0.3802000E-01  0.0000000E+00
 0.3844000E-01  0.0000000E+00
 0.3886000E-01  0.0000000E+00
 0.3928000E-01  0.0000000E+00
 0.3970000E-01  0.0000000E+00
 0.4012000E-01  0.0000000E+00
 0.4054000E-01  0.0000000E+00
 0.4096000E-01  0.0000000E+00
 0.4138000E-01  0.0000000E+00
 0.4180000E-01  0.0000000E+00
 0.4222000E-01  0.0000000E+00
 0.4264000E-01  0.0000000E+00
 0.4306000E-01  0.0000000E+00
 0.4348000E-01  0.0000000E+00
 0.4390000E-01  0.0000000E+00
 0.4432000E-01  0.0000000E+00
 0.4474000E-01  0.0000000E+00
 0.4516000E-01  0.0000000E+00
 0.4558000E-01  0.0000000E+00
 0.4600000E-01  0.0000000E+00
 0.4642000E-01  0.0000000E+00
 0.4684000E-01  0.0000000E+00
 0.4726000E-01  0.0000000E+00
 0.4768000E-01  0.0000000E+00
 0.4810000E-01  0.0000000E+00
 0.4852000E-01  0.0000000E+00
 0.4894000E-01  0.0000000E+00
 0.4936000E-01  0.0000000E+00
 0.4978000E-01  0.0000000E+00
 0.5020000E-01  0.0000000E+00
 0.5062000E-01  0.0000000E+00
 0.5104000E-01  0.0000000E+00
 0.5146000E-01  0.0000000E+00
 0.5188000E-01  0.0000000E+00
 0.5230000E-01  0.0000000E+00
 0.5272000E-01  0.0000000E+00
 0.5314000E-01  0.0000000E+00
 0.5356000E-01  0.0000000E+00
 0.5398000E-01  0.0000000E+00
 0.5440000E-01  0.0000000E+00
 0.5482000E-01  0.0000000E+00
 0.5524000E-01  0.0000000E+00
 0.5566000E-01  0.0000000E+00
 0.5608000E-01  0.0000000E+00
 0.5650000E-01  0.0000000E+00
 0.5692000E-01  0.0000000E+00
 0.5734000E-01  0.0000000E+00
 0.5776000E-01  0.0000000E+00
 0.5818000E-01  0.0000000E+00
 0.5860000E-01  0.0000000E+00
 0.5902000E-01  0.0000000E+00
 0.5944000E-01  0.0000000E+00
 0.5986000E-01  0.0000000E+00
 0.6028000E-01  0.0000000E+00
 0.6070000E-01  0.0000000E+00
 0.6112000E-01  0.0000000E+00
 0.6154000E-01  0.0000000E+00
 0.6196000E-01  0.0000000E+00
 0.6238000E-01  0.0000000E+00
 0.6280000E-01  0.0000000E+00
 0.6322000E-01  0.0000000E+00
 0.6364000E-01  0.0000000E+00
 0.6406000E-01  0.0000000E+00
 0.6448000E-01  0.0000000E+00
 0.6490000E-01  0.0000000E+00
 0.6532000E-01  0.0000000E+00
 0.6574000E-01  0.0000000E+00
 0.6616000E-01  0.0000000E+00
 0.6658000E-01  0.0000000E+00
 0.6700000E-01  0.0000000E+00
 0.6742000E-01  0.0000000E+00
 0.6784000E-01  0.0000000E+00
 0.6826000E-01  0.0000000E+00
 0.6868000E-01  0.0000000E+00
 0.6910000E-01  0.0000000E+00
 0.6952000E-01  0.0000000E+00
 0.6994000E-01  0.0000000E+00
 0.7036000E-01  0.0000000E+00
 0.7078000E-01  0.0000000E+00
 0.7120000E-01  0.0000000E+00
 0.7162000E-01  0.0000000E+00
 0.7204000E-01  0.0000000E+00
 0.7246000E-01  0.0000000E+00
 0.7288000E-01  0.0000000E+00
 0.7330000E-01  0.0000000E+00
 0.7372000E-01  0.0000000E+00
 0.7414000E-01  0.0000000E+00
 0.7456000E-01  0.0000000E+00
 0.7498000E-01  0.0000000E+00
 0.7540000E-01  0.0000000E+00
 0.7582000E-01  0.0000000E+00
 0.7624000E-01  0.0000000E+00
 0.7666000E-01  0.0000000E+00
 0.7708000E-01  0.0000000E+00
 0.7750000E-01  0.0000000E+00
 0.7792000E-01  0.0000000E+00
 0.7834000E-01  0.0000000E+00
 0.7876000E-01  0.0000000E+00
 0.7918000E-01  0.0000000E+00
 0.7960000E-01  0.0000000E+00
 0.8002000E-01  0.0000000E+00
 0.8044000E-01  0.0000000E+00
 0.8086000E-01  0.0000000E+00
 0.8128000E-01  0.0000000E+00
 0.8170000E-01  0.0000000E+00
 0.8212000E-01  0.0000000E+00
 0.8254000E-01  0.0000000E+00
 0.8296000E-01  0.0000000E+00
 0.8338000E-01  0.0000000E+00
 0.8380000E-01  0.0000000E+00
 0.8422000E-01  0.0000000E+00
 0.8464000E-01  0.0000000E+00
 0.8506000E-01  0.0000000E+00
 0.8548000E-01  0.0000000E+00
 0.8590000E-01  0.0000000E+00
 0.8632000E-01  0.0000000E+00
 0.8674000E-01  0.0000000E+00
 0.8716000E-01  0.0000000E+00
 0.8758000E-01  0.0000000E+00
 0.8800000E-01  0.0000000E+00
 0.8842000E-01  0.0000000E+00
 0.8884000E-01  0.0000000E+00
 0.8926000E-01  0.0000000E+00
 0.8968000E-01  0.0000000E+00
 0.9010000E-01  0.0000000E+00
 0.9052000E-01  0.0000000E+00
 0.9094000E-01  0.0000000E+00
 0.9136000E-01  0.0000000E+00
 0.9178000E-01  0.0000000E+00
 0.9220000E-01  0.0000000E+00
 0.9262000E-01  0.0000000E+00
 0.9304000E-01  0.0000000E+00
 0.9346000E-01  0.0000000E+00
 0.9388000E-01  0.0000000E+00
 0.9430000E-01  0.0000000E+00
 0.9472000E-01  0.0000000E+00
 0.9514000E-01  0.0000000E+00
 0.9556000E-01  0.0000000E+00
 0.9598000E-01  0.0000000E+00
 0.9640000E-01  0.0000000E+00
 0.9682000E-01  0.0000000E+00
 0.9724000E-01  0.0000000E+00
 0.9766000E-01  0.0000000E+00
 0.9808000E-01  0.0000000E+00
 0.9850000E-01  0.0000000E+00
 0.9892000E-01  0.0000000E+00
 0.9934000E-01  0.0000000E+00
 0.9976000E-01  0.0000000E+00
 0.1001800E+00  0.0000000E+00
 0.1006000E+00  0.0000000E+00
 0.1010200E+00  0.0000000E+00
 0.1014400E+00  0.0000000E+00
 0.1018600E+00  0.0000000E+00
 0.1022800E+00  0.0000000E+00
 0.1027000E+00  0.0000000E+00
 0.1031200E+00  0.0000000E+00
 0.1035400E+00  0.0000000E+00
 0.1039600E+00  0.0000000E+00
 0.1043800E+00  0.0000000E+00
 0.1048000E+00  0.0000000E+00
 0.1052200E+00  0.0000000E+00
 0.1056400E+00  0.0000000E+00
 0.1060600E+00  0.0000000E+00
 0.1064800E+00  0.0000000E+00
 0.1069000E+00  0.0000000E+00
 0.1073200E+00  0.0000000E+00
 0.1077400E+00  0.0000000E+00
 0.1081600E+00  0.0000000E+00
 0.1085800E+00  0.0000000E+00
 0.1090000E+00  0.0000000E+00
 0.1094200E+00  0.0000000E+00
 0.1098400E+00  0.0000000E+00
 0.1102600E+00  0.0000000E+00
 0.1106800E+00  0.0000000E+00
 0.1111000E+00  0.0000000E+00
 0.1115200E+00  0.0000000E+00
 0.1119400E+00  0.0000000E+00
 0.1123600E+00  0.0000000E+00
 0.1127800E+00  0.0000000E+00
 0.1132000E+00  0.0000000E+00
 0.1136200E+00  0.0000000E+00
 0.1140400E+00  0.0000000E+00
 0.1144600E+00  0.0000000E+00
 0.1148800E+00  0.0000000E+00
 0.1153000E+00  0.0000000E+00
 0.1157200E+00  0.0000000E+00
 0.1161400E+00  0.0000000E+00
 0.1165600E+00  0.0000000E+00
 0.1169800E+00  0.0000000E+00
 0.1174000E+00  0.0000000E+00
 0.1178200E+00  0.0000000E+00
 0.1182400E+00  0.0000000E+00
 0.1186600E+00  0.0000000E+00
 0.1190800E+00  0.0000000E+00
 0.1195000E+00  0.0000000E+00
 0.1199200E+00  0.0000000E+00
 0.1203400E+00  0.0000000E+00
 0.1207600E+00  0.0000000E+00
 0.1211800E+00  0.0000000E+00
 0.1216000E+00  0.0000000E+00
 0.1220200E+00  0.0000000E+00
 0.1224400E+00  0.0000000E+00
 0.1228600E+00  0.0000000E+00
 0.1232800E+00  0.0000000E+00
 0.1237000E+00  0.0000000E+00
 0.1241200E+00  0.0000000E+00
 0.1245400E+00  0.0000000E+00
 0.1249600E+00  0.0000000E+00
 0.1253800E+00  0.0000000E+00
 0.1258000E+00  0.0000000E+00
 0.1262200E+00  0.0000000E+00
 0.1266400E+00  0.0000000E+00
 0.1270600E+00  0.0000000E+00
 0.1274800E+00  0.0000000E+00
 0.1279000E+00  0.0000000E+00
 0.1283200E+00  0.0000000E+00
 0.1287400E+00  0.0000000E+00
 0.1291600E+00  0.0000000E+00
 0.1295800E+00  0.0000000E+00
 0.1300000E+00  0.0000000E+00
 0.1304200E+00  0.0000000E+00
 0.1308400E+00  0.0000000E+00
 0.1312600E+00  0.0000000E+00
 0.1316800E+00  0.0000000E+00
 0.1321000E+00  0.0000000E+00
 0.1325200E+00  0.0000000E+00
 0.1329400E+00  0.0000000E+00
 0.1333600E+00  0.0000000E+00
 0.1337800E+00  0.0000000E+00
 0.1342000E+00  0.0000000E+00
 0.1346200E+00  0.0000000E+00
 0.1350400E+00  0.0000000E+00
 0.1354600E+00  0.0000000E+00
 0.1358800E+00  0.0000000E+00
 0.1363000E+00  0.0000000E+00
 0.1367200E+00  0.0000000E+00
 0.1371400E+00  0.0000000E+00
 0.1375600E+00  0.0000000E+00
 0.1379800E+00  0.0000000E+00
 0.1384000E+00  0.0000000E+00
 0.1388200E+00  0.0000000E+00
 0.1392400E+00  0.0000000E+00
 0.1396600E+00  0.0000000E+00
 0.1400800E+00  0.0000000E+00
 0.1405000E+00  0.0000000E+00
 0.1409200E+00  0.0000000E+00
 0.1413400E+00  0.0000000E+00
 0.1417600E+00  0.0000000E+00
 0.1421800E+00  0.0000000E+00
 0.1426000E+00  0.0000000E+00
 0.1430200E+00  0.0000000E+00
 0.1434400E+00  0.0000000E+00
 0.1438600E+00  0.0000000E+00
 0.1442800E+00  0.0000000E+00
 0.1447000E+00  0.0000000E+00
 0.1451200E+00  0.0000000E+00
 0.1455400E+00  0.0000000E+00
 0.1459600E+00  0.0000000E+00
 0.1463800E+00  0.0000000E+00
 0.1468000E+00  0.0000000E+00
 0.1472200E+00  0.0000000E+00
 0.1476400E+00  0.0000000E+00
 0.1480600E+00  0.0000000E+00
 0.1484800E+00  0.0000000E+00
 0.1489000E+00  0.0000000E+00
 0.1493200E+00  0.0000000E+00
 0.1497400E+00  0.0000000E+00
 0.1501600E+00  0.0000000E+00
 0.1505800E+00  0.0000000E+00
 0.1510000E+00  0.0000000E+00
 0.1514200E+00  0.0000000E+00
 0.1518400E+00  0.0000000E+00
 0.1522600E+00  0.0000000E+00
 0.1526800E+00  0.0000000E+00
 0.1531000E+00  0.0000000E+00
 0.1535200E+00  0.0000000E+00
 0.1539400E+00  0.0000000E+00
 0.1543600E+00  0.0000000E+00
 0.1547800E+00  0.0000000E+00
 0.1552000E+00  0.0000000E+00
 0.1556200E+00  0.0000000E+00
 0.1560400E+00  0.0000000E+00
 0.1564600E+00  0.0000000E+00
 0.1568800E+00  0.0000000E+00
 0.1573000E+00  0.0000000E+00
 0.1577200E+00  0.0000000E+00
 0.1581400E+00  0.0000000E+00
 0.1585600E+00  0.0000000E+00
 0.1589800E+00  0.0000000E+00
 0.1594000E+00  0.0000000E+00
 0.1598200E+00  0.0000000E+00
 0.1602400E+00  0.0000000E+00
 0.1606600E+00  0.0000000E+00
 0.1610800E+00  0.0000000E+00
 0.1615000E+00  0.0000000E+00
 0.1619200E+00  0.0000000E+00
 0.1623400E+00  0.0000000E+00
 0.1627600E+00  0.0000000E+00
 0.1631800E+00  0.0000000E+00
 0.1636000E+00  0.0000000E+00
 0.1640200E+00  0.0000000E+00
 0.1644400E+00  0.0000000E+00
 0.1648600E+00  0.0000000E+00
 0.1652800E+00  0.0000000E+00
 0.1657000E+00  0.0000000E+00
 0.1661200E+00  0.0000000E+00
 0.1665400E+00  0.0000000E+00
 0.1669600E+00  0.0000000E+00
 0.1673800E+00  0.0000000E+00
 0.1678000E+00  0.0000000E+00
 0.1682200E+00  0.0000000E+00
 0.1686400E+00  0.0000000E+00
 0.1690600E+00  0.0000000E+00
 0.1694800E+00  0.0000000E+00
 0.1699000E+00  0.0000000E+00
 0.1703200E+00  0.0000000E+00
 0.1707400E+00  0.0000000E+00
 0.1711600E+00 -0.0000000E+00
 0.1715800E+00 -0.0000000E+00
 0.1720000E+00 -0.0000000E+00
 0.1724200E+00  0.0000000E+00
 0.1728400E+00  0.0000000E+00
 0.1732600E+00  0.0000000E+00
 0.1736800E+00 -0.0000000E+00
 0.1741000E+00 -0.0000000E+00
 0.1745200E+00 -0.0000000E+00
 0.1749400E+00 -0.0000000E+00
 0.1753600E+00  0.0000000E+00
 0.1757800E+00  0.0000000E+00
 0.1762000E+00 -0.3109870E-37
 0.1766200E+00 -0.3114415E-37
 0.1770400E+00  0.0000000E+00
 0.1774600E+00  0.1013869E-36
 0.1778800E+00  0.1076764E-36
 0.1783000E+00 -0.1330366E-36
 0.1787200E+00 -0.4970088E-36
 0.1791400E+00 -0.8175398E-36
 0.1795600E+00 -0.6868862E-36
 0.1799800E+00  0.4099063E-36
 0.1804000E+00  0.1890322E-35
 0.1808200E+00  0.2196723E-35
 0.1812400E+00 -0.7240352E-37
 0.1816600E+00 -0.4332082E-35
 0.1820800E+00 -0.5713142E-35
 0.1825000E+00  0.4764378E-36
 0.1829200E+00  0.1172716E-34
 0.1833400E+00  0.2282945E-34
 0.1837600E+00  0.2315450E-34
 0.1841800E+00 -0.8309896E-35
 0.1846000E+00 -0.8831709E-34
 0.1850200E+00 -0.2186057E-33
 0.1854400E+00 -0.3842949E-33
 0.1858600E+00 -0.5279335E-33
 0.1862800E+00 -0.5816748E-33
 0.1867000E+00 -0.5120252E-33
 0.1871200E+00 -0.2972554E-33
 0.1875400E+00  0.9112989E-34
 0.1879600E+00  0.6806692E-33
 0.1883800E+00  0.1459783E-32
 0.1888000E+00  0.2334326E-32
 0.1892200E+00  0.3110452E-32
 0.1896400E+00  0.3526487E-32
 0.1900600E+00  0.3310455E-32
 0.1904800E+00  0.2234503E-32
 0.1909000E+00  0.1584080E-33
 0.1913200E+00 -0.2927011E-32
 0.1917400E+00 -0.6837934E-32
 0.1921600E+00 -0.1112441E-31
 0.1925800E+00 -0.1502733E-31
 0.1930000E+00 -0.1750647E-31
 0.1934200E+00 -0.1735827E-31
 0.1938400E+00 -0.1341307E-31
 0.1942600E+00 -0.4791153E-32
 0.1946800E+00  0.8810868E-32
 0.1951000E+00  0.2681535E-31
 0.1955200E+00  0.4747493E-31
 0.1959400E+00  0.6768903E-31
 0.1963600E+00  0.8302920E-31
 0.1967800E+00  0.8807817E-31
 0.1972000E+00  0.7714166E-31
 0.1976200E+00  0.4532301E-31
 0.1980400E+00 -0.1012473E-31
 0.1984600E+00 -0.8832473E-31
 0.1988800E+00 -0.1834068E-30
 0.1993000E+00 -0.2835408E-30
 0.1997200E+00 -0.3707366E-30
 0.2001400E+00 -0.4217922E-30
 0.2005600E+00 -0.4107095E-30
 0.2009800E+00 -0.3127163E-30
 0.2014000E+00 -0.1097414E-30
 0.2018200E+00  0.2031625E-30
 0.2022400E+00  0.6113403E-30
 0.2026600E+00  0.1075230E-29
 0.2030800E+00  0.1527727E-29
 0.2035000E+00  0.1875808E-29
 0.2039200E+00  0.2007842E-29
 0.2043400E+00  0.1807506E-29
 0.2047600E+00  0.1174285E-29
 0.2051800E+00  0.4924807E-31
 0.2056000E+00 -0.1556750E-29
 0.2060200E+00 -0.3536847E-29
 0.2064400E+00 -0.5669676E-29
 0.2068600E+00 -0.7615112E-29
 0.2072800E+00 -0.8930647E-29
 0.2077000E+00 -0.9113446E-29
 0.2081200E+00 -0.7670233E-29
 0.2085400E+00 -0.4212822E-29
 0.2089600E+00  0.1428498E-29
 0.2093800E+00  0.9087856E-29
 0.2098000E+00  0.1816303E-28
 0.2102200E+00  0.2755571E-28
 0.2106400E+00  0.3567941E-28
 0.2110600E+00  0.4055892E-28
 0.2114800E+00  0.4003824E-28
 0.2119000E+00  0.3209982E-28
 0.2123200E+00  0.1527968E-28
 0.2127400E+00 -0.1086022E-28
 0.2131600E+00 -0.4526560E-28
 0.2135800E+00 -0.8501414E-28
 0.2140000E+00 -0.1251306E-27
 0.2144200E+00 -0.1586955E-27
 0.2148400E+00 -0.1773344E-27
 0.2152600E+00 -0.1721421E-27
 0.2156800E+00 -0.1350366E-27
 0.2161000E+00 -0.6046341E-28
 0.2165200E+00  0.5271931E-28
 0.2169400E+00  0.1994341E-27
 0.2173600E+00  0.3669950E-27
 0.2177800E+00  0.5345202E-27
 0.2182000E+00  0.6735311E-27
 0.2186200E+00  0.7500500E-27
 0.2190400E+00  0.7283690E-27
 0.2194600E+00  0.5764377E-27
 0.2198800E+00  0.2725252E-27
 0.2203000E+00 -0.1875141E-27
 0.2207200E+00 -0.7833724E-27
 0.2211400E+00 -0.1465093E-26
 0.2215600E+00 -0.2150977E-26
 0.2219800E+00 -0.2729981E-26
 0.2224000E+00 -0.3069750E-26
 0.2228200E+00 -0.3030844E-26
 0.2232400E+00 -0.2486944E-26
 0.2236600E+00 -0.1349749E-26
 0.2240800E+00  0.4038919E-27
 0.2245000E+00  0.2706235E-26
 0.2249200E+00  0.5378851E-26
 0.2253400E+00  0.8123905E-26
 0.2257600E+00  0.1053150E-25
 0.2261800E+00  0.1210713E-25
 0.2266000E+00  0.1232144E-25
 0.2270200E+00  0.1068168E-25
 0.2274400E+00  0.6820529E-26
 0.2278600E+00  0.5942088E-27
 0.2282800E+00 -0.7822559E-26
 0.2287000E+00 -0.1786033E-25
 0.2291200E+00 -0.2851505E-25
 0.2295400E+00 -0.3836209E-25
 0.2299600E+00 -0.4563872E-25
 0.2303800E+00 -0.4840394E-25
 0.2308000E+00 -0.4477512E-25
 0.2312200E+00 -0.3322982E-25
 0.2316400E+00 -0.1294691E-25
 0.2320600E+00  0.1585151E-25
 0.2324800E+00  0.5160842E-25
 0.2329000E+00  0.9124856E-25
 0.2333200E+00  0.1301633E-24
 0.2337400E+00  0.1624161E-24
 0.2341600E+00  0.1812046E-24
 0.2345800E+00  0.1795869E-24
 0.2350000E+00  0.1514457E-24
 0.2354200E+00  0.9262087E-25
 0.2358400E+00  0.2094570E-26
 0.2362600E+00 -0.1169229E-24
 0.2366800E+00 -0.2561922E-24
 0.2371000E+00 -0.4021248E-24
 0.2375200E+00 -0.5361249E-24
 0.2379400E+00 -0.6357369E-24
 0.2383600E+00 -0.6766634E-24
 0.2387800E+00 -0.6356198E-24
 0.2392000E+00 -0.4938625E-24
 0.2396200E+00 -0.2410911E-24
 0.2400400E+00  0.1207089E-24
 0.2404600E+00  0.5740279E-24
 0.2408800E+00  0.1083806E-23
 0.2413000E+00  0.1597227E-23
 0.2417200E+00  0.2045862E-23
 0.2421400E+00  0.2350500E-23
 0.2425600E+00  0.2428768E-23
 0.2429800E+00  0.2205236E-23
 0.2434000E+00  0.1623377E-23
 0.2438200E+00  0.6582448E-24
 0.2442400E+00 -0.6715711E-24
 0.2446600E+00 -0.2294490E-23
 0.2450800E+00 -0.4080874E-23
 0.2455000E+00 -0.5844146E-23
 0.2459200E+00 -0.7349568E-23
 0.2463400E+00 -0.8331521E-23
 0.2467600E+00 -0.8519283E-23
 0.2471800E+00 -0.7670177E-23
 0.2476000E+00 -0.5607788E-23
 0.2480200E+00 -0.2261716E-23
 0.2484400E+00  0.2295750E-23
 0.2488600E+00  0.7821368E-23
 0.2492800E+00  0.1388672E-22
 0.2497000E+00  0.1988330E-22
 0.2501200E+00  0.2505101E-22
 0.2505400E+00  0.2853247E-22
 0.2509600E+00  0.2945276E-22
 0.2513800E+00  0.2702128E-22
 0.2518000E+00  0.2064869E-22
 0.2522200E+00  0.1006879E-22
 0.2526400E+00 -0.4548269E-23
 0.2530600E+00 -0.2250664E-22
 0.2534800E+00 -0.4253586E-22
 0.2539000E+00 -0.6279748E-22
 0.2543200E+00 -0.8095983E-22
 0.2547400E+00 -0.9434832E-22
 0.2551600E+00 -0.1001717E-21
 0.2555800E+00 -0.9581618E-22
 0.2560000E+00 -0.7918956E-22
 0.2564200E+00 -0.4908809E-22
 0.2568400E+00 -0.5549810E-23
 0.2572600E+00  0.4984859E-22
 0.2576800E+00  0.1137975E-21
 0.2581000E+00  0.1812077E-21
 0.2585200E+00  0.2453514E-21
 0.2589400E+00  0.2982164E-21
 0.2593600E+00  0.3310856E-21
 0.2597800E+00  0.3353283E-21
 0.2602000E+00  0.3033665E-21
 0.2606200E+00  0.2297510E-21
 0.2610400E+00  0.1122582E-21
 0.2614600E+00 -0.4710718E-22
 0.2618800E+00 -0.2413282E-21
 0.2623000E+00 -0.4579454E-21
 0.2627200E+00 -0.6791039E-21
 0.2631400E+00 -0.8821785E-21
 0.2635600E+00 -0.1041044E-20
 0.2639800E+00 -0.1128004E-20
 0.2644000E+00 -0.1116318E-20
 0.2648200E+00 -0.9832193E-21
 0.2652400E+00 -0.7132003E-21
 0.2656600E+00 -0.3013151E-21
 0.2660800E+00  0.2438518E-21
 0.2665000E+00  0.8979131E-21
 0.2669200E+00  0.1619491E-20
 0.2673400E+00  0.2350479E-20
 0.2677600E+00  0.3018038E-20
 0.2681800E+00  0.3538541E-20
 0.2686000E+00  0.3823477E-20
 0.2690200E+00  0.3787200E-20
 0.2694400E+00  0.3356155E-20
 0.2698600E+00  0.2479013E-20
 0.2702800E+00  0.1136923E-20
 0.2707000E+00 -0.6470889E-21
 0.2711200E+00 -0.2800684E-20
 0.2715400E+00 -0.5197888E-20
 0.2719600E+00 -0.7659019E-20
 0.2723800E+00 -0.9955800E-20
 0.2728000E+00 -0.1182235E-19
 0.2732200E+00 -0.1297232E-19
 0.2736400E+00 -0.1312188E-19
 0.2740600E+00 -0.1201775E-19
 0.2744800E+00 -0.9468619E-20
 0.2749000E+00 -0.5377934E-20
 0.2753200E+00  0.2250038E-21
 0.2757400E+00  0.7158720E-20
 0.2761600E+00  0.1507170E-19
 0.2765800E+00  0.2343654E-19
 0.2770000E+00  0.3155932E-19
 0.2774200E+00  0.3860681E-19
 0.2778400E+00  0.4365285E-19
 0.2782600E+00  0.4574410E-19
 0.2786800E+00  0.4398312E-19
 0.2791000E+00  0.3762521E-19
 0.2795200E+00  0.2618299E-19
 0.2799400E+00  0.9530871E-20
 0.2803600E+00 -0.1200022E-19
 0.2807800E+00 -0.3754877E-19
 0.2812000E+00 -0.6568054E-19
 0.2816200E+00 -0.9438953E-19
 0.2820400E+00 -0.1211513E-18
 0.2824600E+00 -0.1430358E-18
 0.2828800E+00 -0.1568821E-18
 0.2833000E+00 -0.1595338E-18
 0.2837200E+00 -0.1481269E-18
 0.2841400E+00 -0.1204160E-18
 0.2845600E+00 -0.7511762E-19
 0.2849800E+00 -0.1224458E-19
 0.2854000E+00  0.6660073E-19
 0.2858200E+00  0.1580097E-18
 0.2862400E+00  0.2566631E-18
 0.2866600E+00  0.3553726E-18
 0.2870800E+00  0.4452982E-18
 0.2875000E+00  0.5163583E-18
 0.2879200E+00  0.5578420E-18
 0.2883400E+00  0.5592113E-18
 0.2887600E+00  0.5110681E-18
 0.2891800E+00  0.4062343E-18
 0.2896000E+00  0.2408787E-18
 0.2900200E+00  0.1560291E-19
 0.2904400E+00 -0.2636172E-18
 0.2908600E+00 -0.5847467E-18
 0.2912800E+00 -0.9293777E-18
 0.2917000E+00 -0.1272894E-17
 0.2921200E+00 -0.1585203E-17
 0.2925400E+00 -0.1832102E-17
 0.2929600E+00 -0.1977289E-17
 0.2933800E+00 -0.1984996E-17
 0.2938000E+00 -0.1823158E-17
 0.2942200E+00 -0.1466960E-17
 0.2946400E+00 -0.9025506E-18
 0.2950600E+00 -0.1306457E-18
 0.2954800E+00  0.8303065E-18
 0.2959000E+00  0.1941750E-17
 0.2963200E+00  0.3143809E-17
 0.2967400E+00  0.4355590E-17
 0.2971600E+00  0.5477291E-17
 0.2975800E+00  0.6394347E-17
 0.2980000E+00  0.6983688E-17
 0.2984200E+00  0.7122063E-17
 0.2988400E+00  0.6696183E-17
 0.2992600E+00  0.5614251E-17
 0.2996800E+00  0.3818222E-17
 0.3001000E+00  0.1295958E-17
 0.3005200E+00 -0.1907714E-17
 0.3009400E+00 -0.5682207E-17
 0.3013600E+00 -0.9845798E-17
 0.3017800E+00 -0.1414485E-16
 0.3022000E+00 -0.1825869E-16
 0.3026200E+00 -0.2181085E-16
 0.3030400E+00 -0.2438733E-16
 0.3034600E+00 -0.2556168E-16
 0.3038800E+00 -0.2492651E-16
 0.3043000E+00 -0.2213018E-16
 0.3047200E+00 -0.1691696E-16
 0.3051400E+00 -0.9168184E-17
 0.3055600E+00  0.1058734E-17
 0.3059800E+00  0.1349676E-16
 0.3064000E+00  0.2764511E-16
 0.3068200E+00  0.4275830E-16
 0.3072400E+00  0.5785207E-16
 0.3076600E+00  0.7172917E-16
 0.3080800E+00  0.8302727E-16
 0.3085000E+00  0.9028978E-16
 0.3089200E+00  0.9205907E-16
 0.3093400E+00  0.8698940E-16
 0.3097600E+00  0.7397511E-16
 0.3101800E+00  0.5228736E-16
 0.3106000E+00  0.2171078E-16
 0.3110200E+00 -0.1733050E-16
 0.3114400E+00 -0.6366908E-16
 0.3118600E+00 -0.1153255E-15
 0.3122800E+00 -0.1694865E-15
 0.3127000E+00 -0.2225426E-15
 0.3131200E+00 -0.2701927E-15
 0.3135400E+00 -0.3076241E-15
 0.3139600E+00 -0.3297673E-15
 0.3143800E+00 -0.3316242E-15
 0.3148000E+00 -0.3086593E-15
 0.3152200E+00 -0.2572372E-15
 0.3156400E+00 -0.1750841E-15
 0.3160600E+00 -0.6174447E-16
 0.3164800E+00  0.8100320E-16
 0.3169000E+00  0.2488092E-15
 0.3173200E+00  0.4345357E-15
 0.3177400E+00  0.6282006E-15
 0.3181600E+00  0.8171182E-15
 0.3185800E+00  0.9862682E-15
 0.3190000E+00  0.1118909E-14
 0.3194200E+00  0.1197447E-14
 0.3198400E+00  0.1204540E-14
 0.3202600E+00  0.1124416E-14
 0.3206800E+00  0.9443443E-15
 0.3211000E+00  0.6561900E-15
 0.3215200E+00  0.2579543E-15
 0.3219400E+00 -0.2448111E-15
 0.3223600E+00 -0.8378416E-15
 0.3227800E+00 -0.1497385E-14
 0.3232000E+00 -0.2189942E-14
 0.3236200E+00 -0.2872657E-14
 0.3240400E+00 -0.3494437E-14
 0.3244600E+00 -0.3997901E-14
 0.3248800E+00 -0.4322148E-14
 0.3253000E+00 -0.4406349E-14
 0.3257200E+00 -0.4194052E-14
 0.3261400E+00 -0.3638048E-14
 0.3265600E+00 -0.2705576E-14
 0.3269800E+00 -0.1383566E-14
 0.3274000E+00  0.3164341E-15
 0.3278200E+00  0.2354055E-14
 0.3282400E+00  0.4657054E-14
 0.3286600E+00  0.7119855E-14
 0.3290800E+00  0.9604088E-14
 0.3295000E+00  0.1194150E-13
 0.3299200E+00  0.1393950E-13
 0.3303400E+00  0.1538945E-13
 0.3307600E+00  0.1607775E-13
 0.3311800E+00  0.1579938E-13
 0.3316000E+00  0.1437366E-13
 0.3320200E+00  0.1166139E-13
 0.3324400E+00  0.7582645E-14
 0.3328600E+00  0.2134010E-14
 0.3332800E+00 -0.4595821E-14
 0.3337000E+00 -0.1241362E-13
 0.3341200E+00 -0.2101375E-13
 0.3345400E+00 -0.2997616E-13
 0.3349600E+00 -0.3877175E-13
 0.3353800E+00 -0.4677588E-13
 0.3358000E+00 -0.5329096E-13
 0.3362200E+00 -0.5757822E-13
 0.3366400E+00 -0.5889845E-13
 0.3370600E+00 -0.5656063E-13
 0.3374800E+00 -0.4997700E-13
 0.3379000E+00 -0.3872194E-13
 0.3383200E+00 -0.2259184E-13
 0.3387400E+00 -0.1662060E-14
 0.3391600E+00  0.2366320E-13
 0.3395800E+00  0.5261260E-13