-0.8000000E-01  0.0000000E+00
-0.7958000E-01  0.0000000E+00
-0.7916000E-01  0.0000000E+00
-0.7874000E-01  0.0000000E+00
-0.7832000E-01  0.0000000E+00
-0.7790000E-01  0.0000000E+00
-0.7748000E-01  0.0000000E+00
-0.7706000E-01  0.0000000E+00
-0.7664000E-01  0.0000000E+00
-0.7622000E-01  0.0000000E+00
-0.7580000E-01  0.0000000E+00
-0.7538000E-01  0.0000000E+00
-0.7496000E-01  0.0000000E+00
-0.7454000E-01  0.0000000E+00
-0.7412000E-01  0.0000000E+00
-0.7370000E-01  0.0000000E+00
-0.7328000E-01  0.0000000E+00
-0.7286000E-01  0.0000000E+00
-0.7244000E-01  0.0000000E+00
-0.7202000E-01  0.0000000E+00
-0.7160000E-01  0.0000000E+00
-0.7118000E-01  0.0000000E+00
-0.7076000E-01  0.0000000E+00
-0.7034000E-01  0.0000000E+00
-0.6992000E-01  0.0000000E+00
-0.6950000E-01  0.0000000E+00
-0.6908000E-01  0.0000000E+00
-0.6866000E-01  0.0000000E+00
-0.6824000E-01  0.0000000E+00
-0.6782000E-01  0.0000000E+00
-0.6740000E-01  0.0000000E+00
-0.6698000E-01  0.0000000E+00
-0.6656000E-01  0.0000000E+00
-0.6614000E-01  0.0000000E+00
-0.6572000E-01  0.0000000E+00
-0.6530000E-01  0.0000000E+00
-0.6488000E-01  0.0000000E+00
-0.6446000E-01  0.0000000E+00
-0.6404000E-01  0.0000000E+00
-0.6362000E-01  0.0000000E+00
-0.6320000E-01  0.0000000E+00
-0.6278000E-01  0.0000000E+00
-0.6236000E-01  0.0000000E+00
-0.6194000E-01  0.0000000E+00
-0.6152000E-01  0.0000000E+00
-0.6110000E-01  0.0000000E+00
-0.6068000E-01  0.0000000E+00
-0.6026000E-01  0.0000000E+00
-0.5984000E-01  0.0000000E+00
-0.5942000E-01  0.0000000E+00
-0.5900000E-01  0.0000000E+00
-0.5858000E-01  0.0000000E+00
-0.5816000E-01  0.0000000E+00
-0.5774000E-01  0.0000000E+00
-0.5732000E-01  0.0000000E+00
-0.5690000E-01  0.0000000E+00
-0.5648000E-01  0.0000000E+00
-0.5606000E-01  0.0000000E+00
-0.5564000E-01  0.0000000E+00
-0.5522000E-01  0.0000000E+00
-0.5480000E-01  0.0000000E+00
-0.5438000E-01  0.0000000E+00
-0.5396000E-01  0.0000000E+00
-0.5354000E-01  0.0000000E+00
-0.5312000E-01  0.0000000E+00
-0.5270000E-01  0.0000000E+00
-0.5228000E-01  0.0000000E+00
-0.5186000E-01  0.0000000E+00
-0.5144000E-01  0.0000000E+00
-0.5102000E-01  0.0000000E+00
-0.5060000E-01  0.0000000E+00
-0.5018000E-01  0.0000000E+00
-0.4976000E-01  0.0000000E+00
-0.4934000E-01  0.0000000E+00
-0.4892000E-01  0.0000000E+00
-0.4850000E-01  0.0000000E+00
-0.4808000E-01  0.0000000E+00
-0.4766000E-01  0.0000000E+00
-0.4724000E-01  0.0000000E+00
-0.4682000E-01  0.0000000E+00
-0.4640000E-01  0.0000000E+00
-0.4598000E-01  0.0000000E+00
-0.4556000E-01  0.0000000E+00
-0.4514000E-01  0.0000000E+00
-0.4472000E-01  0.0000000E+00
-0.4430000E-01  0.0000000E+00
-0.4388000E-01  0.0000000E+00
-0.4346000E-01  0.0000000E+00
-0.4304000E-01  0.0000000E+00
-0.4262000E-01  0.0000000E+00
-0.4220000E-01  0.0000000E+00
-0.4178000E-01  0.0000000E+00
-0.4136000E-01  0.0000000E+00
-0.4094000E-01  0.0000000E+00
-0.4052000E-01  0.0000000E+00
-0.4010000E-01  0.0000000E+00
-0.3968000E-01  0.0000000E+00
-0.3926000E-01  0.0000000E+00
-0.3884000E-01  0.0000000E+00
-0.3842000E-01  0.0000000E+00
-0.3800000E-01  0.0000000E+00
-0.3758000E-01  0.0000000E+00
-0.3716000E-01  0.0000000E+00
-0.3674000E-01  0.0000000E+00
-0.3632000E-01  0.0000000E+00
-0.3590000E-01  0.0000000E+00
-0.3548000E-01  0.0000000E+00
-0.3506000E-01  0.0000000E+00
-0.3464000E-01  0.0000000E+00
-0.3422000E-01  0.0000000E+00
-0.3380000E-01  0.0000000E+00
-0.3338000E-01  0.0000000E+00
-0.3296000E-01  0.0000000E+00
-0.3254000E-01  0.0000000E+00
-0.3212000E-01  0.0000000E+00
-0.3170000E-01  0.0000000E+00
-0.3128000E-01  0.0000000E+00
-0.3086000E-01  0.0000000E+00
-0.3044000E-01  0.0000000E+00
-0.3002000E-01  0.0000000E+00
-0.2960000E-01  0.0000000E+00
-0.2918000E-01  0.0000000E+00
-0.2876000E-01  0.0000000E+00
-0.2834000E-01  0.0000000E+00
-0.2792000E-01  0.0000000E+00
-0.2750000E-01  0.0000000E+00
-0.2708000E-01  0.0000000E+00
-0.2666000E-01  0.0000000E+00
-0.2624000E-01  0.0000000E+00
-0.2582000E-01  0.0000000E+00
-0.2540000E-01  0.0000000E+00
-0.2498000E-01  0.0000000E+00
-0.2456000E-01  0.0000000E+00
-0.2414000E-01  0.0000000E+00
-0.2372000E-01  0.0000000E+00
-0.2330000E-01  0.0000000E+00
-0.2288000E-01  0.0000000E+00
-0.2246000E-01  0.0000000E+00
-0.2204000E-01  0.0000000E+00
-0.2162000E-01  0.0000000E+00
-0.2120000E-01  0.0000000E+00
-0.2078000E-01  0.0000000E+00
-0.2036000E-01  0.0000000E+00
-0.1994000E-01  0.0000000E+00
-0.1952000E-01  0.0000000E+00
-0.1910000E-01  0.0000000E+00
-0.1868000E-01  0.0000000E+00
-0.1826000E-01  0.0000000E+00
-0.1784000E-01  0.0000000E+00
-0.1742000E-01  0.0000000E+00
-0.1700000E-01  0.0000000E+00
-0.1658000E-01  0.0000000E+00
-0.1616000E-01  0.0000000E+00
-0.1574000E-01  0.0000000E+00
-0.1532000E-01  0.0000000E+00
-0.1490000E-01  0.0000000E+00
-0.1448000E-01  0.0000000E+00
-0.1406000E-01  0.0000000E+00
-0.1364000E-01  0.0000000E+00
-0.1322000E-01  0.0000000E+00
-0.1280000E-01  0.0000000E+00
-0.1238000E-01  0.0000000E+00
-0.1196000E-01  0.0000000E+00
-0.1154000E-01  0.0000000E+00
-0.1112000E-01  0.0000000E+00
-0.1070000E-01  0.0000000E+00
-0.1028000E-01  0.0000000E+00
-0.9860000E-02  0.0000000E+00
-0.9440000E-02  0.0000000E+00
-0.9020000E-02  0.0000000E+00
-0.8600000E-02  0.0000000E+00
-0.8180000E-02  0.0000000E+00
-0.7760000E-02  0.0000000E+00
-0.7340000E-02  0.0000000E+00
-0.6920000E-02  0.0000000E+00
-0.6500000E-02  0.0000000E+00
-0.6080000E-02  0.0000000E+00
-0.5660000E-02  0.0000000E+00
-0.5240000E-02  0.0000000E+00
-0.4820000E-02  0.0000000E+00
-0.4400000E-02  0.0000000E+00
-0.3980000E-02  0.0000000E+00
-0.3560000E-02  0.0000000E+00
-0.3140000E-02  0.0000000E+00
-0.2720000E-02  0.0000000E+00
-0.2300000E-02  0.0000000E+00
-0.1880000E-02  0.0000000E+00
-0.1460000E-02  0.0000000E+00
-0.1040000E-02  0.0000000E+00
-0.6200000E-03  0.0000000E+00
-0.2000000E-03  0.0000000E+00
 0.2200000E-03  0.0000000E+00
 0.6400000E-03  0.0000000E+00
 0.1060000E-02  0.0000000E+00
 0.1480000E-02  0.0000000E+00
 0.1900000E-02  0.0000000E+00
 0.2320000E-02  0.0000000E+00
 0.2740000E-02  0.0000000E+00
 0.3160000E-02  0.0000000E+00
 0.3580000E-02  0.0000000E+00
 0.4000000E-02  0.0000000E+00
 0.4420000E-02  0.0000000E+00
 0.4840000E-02  0.0000000E+00
 0.5260000E-02  0.0000000E+00
 0.5680000E-02  0.0000000E+00
 0.6100000E-02  0.0000000E+00
 0.6520000E-02  0.0000000E+00
 0.6940000E-02  0.0000000E+00
 0.7360000E-02  0.0000000E+00
 0.7780000E-02  0.0000000E+00
 0.8200000E-02  0.0000000E+00
 0.8620000E-02  0.0000000E+00
 0.9040000E-02  0.0000000E+00
 0.9460000E-02  0.0000000E+00
 0.9880000E-02  0.0000000E+00
 0.1030000E-01  0.0000000E+00
 0.1072000E-01  0.0000000E+00
 0.1114000E-01  0.0000000E+00
 0.1156000E-01  0.0000000E+00
 0.1198000E-01  0.0000000E+00
 0.1240000E-01  0.0000000E+00
 0.1282000E-01  0.0000000E+00
 0.1324000E-01  0.0000000E+00
 0.1366000E-01  0.0000000E+00
 0.1408000E-01  0.0000000E+00
 0.1450000E-01  0.0000000E+00
 0.1492000E-01  0.0000000E+00
 0.1534000E-01  0.0000000E+00
 0.1576000E-01  0.0000000E+00
 0.1618000E-01  0.0000000E+00
 0.1660000E-01  0.0000000E+00
 0.1702000E-01  0.0000000E+00
 0.1744000E-01  0.0000000E+00
 0.1786000E-01  0.0000000E+00
 0.1828000E-01  0.0000000E+00
 0.1870000E-01  0.0000000E+00
 0.1912000E-01  0.0000000E+00
 0.1954000E-01  0.0000000E+00
 0.1996000E-01  0.0000000E+00
 0.2038000E-01  0.0000000E+00
 0.2080000E-01  0.0000000E+00
 0.2122000E-01  0.0000000E+00
 0.2164000E-01  0.0000000E+00
 0.2206000E-01  0.0000000E+00
 0.2248000E-01  0.0000000E+00
 0.2290000E-01  0.0000000E+00
 0.2332000E-01  0.0000000E+00
 0.2374000E-01  0.0000000E+00
 0.2416000E-01  0.0000000E+00
 0.2458000E-01  0.0000000E+00
 0.2500000E-01  0.0000000E+00
 0.2542000E-01  0.0000000E+00
 0.2584000E-01  0.0000000E+00
 0.2626000E-01  0.0000000E+00
 0.2668000E-01  0.0000000E+00
 0.2710000E-01  0.0000000E+00
 0.2752000E-01  0.0000000E+00
 0.2794000E-01  0.0000000E+00
 0.2836000E-01  0.0000000E+00
 0.2878000E-01  0.0000000E+00
 0.2920000E-01  0.0000000E+00
 0.2962000E-01  0.0000000E+00
 0.3004000E-01  0.0000000E+00
 0.3046000E-01  0.0000000E+00
 0.3088000E-01  0.0000000E+00
 0.3130000E-01  0.0000000E+00
 0.3172000E-01  0.0000000E+00
 0.3214000E-01  0.0000000E+00
 0.3256000E-01  0.0000000E+00
 0.3298000E-01  0.0000000E+00
 0.3340000E-01  0.0000000E+00
 0.3382000E-01  0.0000000E+00
 0.3424000E-01  0.0000000E+00
 0.3466000E-01  0.0000000E+00
 0.3508000E-01  0.0000000E+00
 0.3550000E-01  0.0000000E+00
 0.3592000E-01  0.0000000E+00
 0.3634000E-01  0.0000000E+00
 0.3676000E-01  0.0000000E+00
 0.3718000E-01  0.0000000E+00
 0.3760000E-01  0.0000000E+00
 0.3802000E-01  0.0000000E+00
 0.3844000E-01  0.0000000E+00
 0.3886000E-01  0.0000000E+00
 0.3928000E-01  0.0000000E+00
 0.3970000E-01  0.0000000E+00
 0.4012000E-01  0.0000000E+00
 0.4054000E-01  0.0000000E+00
 0.4096000E-01  0.0000000E+00
 0.4138000E-01  0.0000000E+00
 0.4180000E-01  0.0000000E+00
 0.4222000E-01  0.0000000E+00
 0.4264000E-01  0.0000000E+00
 0.4306000E-01  0.0000000E+00
 0.4348000E-01  0.0000000E+00
 0.4390000E-01  0.0000000E+00
 0.4432000E-01  0.0000000E+00
 0.4474000E-01  0.0000000E+00
 0.4516000E-01  0.0000000E+00
 0.4558000E-01  0.0000000E+00
 0.4600000E-01  0.0000000E+00
 0.4642000E-01  0.0000000E+00
 0.4684000E-01  0.0000000E+00
 0.4726000E-01  0.0000000E+00
 0.4768000E-01  0.0000000E+00
 0.4810000E-01  0.0000000E+00
 0.4852000E-01  0.0000000E+00
 0.4894000E-01  0.0000000E+00
 0.4936000E-01  0.0000000E+00
 0.4978000E-01  0.0000000E+00
 0.5020000E-01  0.0000000E+00
 0.5062000E-01  0.0000000E+00
 0.5104000E-01  0.0000000E+00
 0.5146000E-01  0.0000000E+00
 0.5188000E-01  0.0000000E+00
 0.5230000E-01  0.0000000E+00
 0.5272000E-01  0.0000000E+00
 0.5314000E-01  0.0000000E+00
 0.5356000E-01  0.0000000E+00
 0.5398000E-01  0.0000000E+00
 0.5440000E-01  0.0000000E+00
 0.5482000E-01  0.0000000E+00
 0.5524000E-01  0.0000000E+00
 0.5566000E-01  0.0000000E+00
 0.5608000E-01  0.0000000E+00
 0.5650000E-01  0.0000000E+00
 0.5692000E-01  0.0000000E+00
 0.5734000E-01  0.0000000E+00
 0.5776000E-01  0.0000000E+00
 0.5818000E-01  0.0000000E+00
 0.5860000E-01  0.0000000E+00
 0.5902000E-01  0.0000000E+00
 0.5944000E-01  0.0000000E+00
 0.5986000E-01  0.0000000E+00
 0.6028000E-01  0.0000000E+00
 0.6070000E-01  0.0000000E+00
 0.6112000E-01  0.0000000E+00
 0.6154000E-01  0.0000000E+00
 0.6196000E-01  0.0000000E+00
 0.6238000E-01  0.0000000E+00
 0.6280000E-01  0.0000000E+00
 0.6322000E-01  0.0000000E+00
 0.6364000E-01  0.0000000E+00
 0.6406000E-01  0.0000000E+00
 0.6448000E-01  0.0000000E+00
 0.6490000E-01  0.0000000E+00
 0.6532000E-01  0.0000000E+00
 0.6574000E-01  0.0000000E+00
 0.6616000E-01  0.0000000E+00
 0.6658000E-01  0.0000000E+00
 0.6700000E-01  0.0000000E+00
 0.6742000E-01  0.0000000E+00
 0.6784000E-01  0.0000000E+00
 0.6826000E-01  0.0000000E+00
 0.6868000E-01  0.0000000E+00
 0.6910000E-01  0.0000000E+00
 0.6952000E-01  0.0000000E+00
 0.6994000E-01  0.0000000E+00
 0.7036000E-01  0.0000000E+00
 0.7078000E-01  0.0000000E+00
 0.7120000E-01  0.0000000E+00
 0.7162000E-01  0.0000000E+00
 0.7204000E-01  0.0000000E+00
 0.7246000E-01  0.0000000E+00
 0.7288000E-01  0.0000000E+00
 0.7330000E-01  0.0000000E+00
 0.7372000E-01  0.0000000E+00
 0.7414000E-01  0.0000000E+00
 0.7456000E-01  0.0000000E+00
 0.7498000E-01  0.0000000E+00
 0.7540000E-01  0.0000000E+00
 0.7582000E-01  0.0000000E+00
 0.7624000E-01  0.0000000E+00
 0.7666000E-01  0.0000000E+00
 0.7708000E-01  0.0000000E+00
 0.7750000E-01  0.0000000E+00
 0.7792000E-01  0.0000000E+00
 0.7834000E-01  0.0000000E+00
 0.7876000E-01  0.0000000E+00
 0.7918000E-01  0.0000000E+00
 0.7960000E-01  0.0000000E+00
 0.8002000E-01  0.0000000E+00
 0.8044000E-01  0.0000000E+00
 0.8086000E-01  0.0000000E+00
 0.8128000E-01  0.0000000E+00
 0.8170000E-01  0.0000000E+00
 0.8212000E-01  0.0000000E+00
 0.8254000E-01  0.0000000E+00
 0.8296000E-01  0.0000000E+00
 0.8338000E-01  0.0000000E+00
 0.8380000E-01  0.0000000E+00
 0.8422000E-01  0.0000000E+00
 0.8464000E-01  0.0000000E+00
 0.8506000E-01  0.0000000E+00
 0.8548000E-01  0.0000000E+00
 0.8590000E-01  0.0000000E+00
 0.8632000E-01  0.0000000E+00
 0.8674000E-01  0.0000000E+00
 0.8716000E-01  0.0000000E+00
 0.8758000E-01  0.0000000E+00
 0.8800000E-01  0.0000000E+00
 0.8842000E-01  0.0000000E+00
 0.8884000E-01  0.0000000E+00
 0.8926000E-01  0.0000000E+00
 0.8968000E-01  0.0000000E+00
 0.9010000E-01  0.0000000E+00
 0.9052000E-01  0.0000000E+00
 0.9094000E-01  0.0000000E+00
 0.9136000E-01  0.0000000E+00
 0.9178000E-01  0.0000000E+00
 0.9220000E-01  0.0000000E+00
 0.9262000E-01  0.0000000E+00
 0.9304000E-01  0.0000000E+00
 0.9346000E-01  0.0000000E+00
 0.9388000E-01  0.0000000E+00
 0.9430000E-01  0.0000000E+00
 0.9472000E-01  0.0000000E+00
 0.9514000E-01  0.0000000E+00
 0.9556000E-01  0.0000000E+00
 0.9598000E-01  0.0000000E+00
 0.9640000E-01  0.0000000E+00
 0.9682000E-01  0.0000000E+00
 0.9724000E-01  0.0000000E+00
 0.9766000E-01  0.0000000E+00
 0.9808000E-01  0.0000000E+00
 0.9850000E-01  0.0000000E+00
 0.9892000E-01  0.0000000E+00
 0.9934000E-01  0.0000000E+00
 0.9976000E-01  0.0000000E+00
 0.1001800E+00  0.0000000E+00
 0.1006000E+00  0.0000000E+00
 0.1010200E+00  0.0000000E+00
 0.1014400E+00  0.0000000E+00
 0.1018600E+00  0.0000000E+00
 0.1022800E+00  0.0000000E+00
 0.1027000E+00  0.0000000E+00
 0.1031200E+00  0.0000000E+00
 0.1035400E+00  0.0000000E+00
 0.1039600E+00  0.0000000E+00
 0.1043800E+00  0.0000000E+00
 0.1048000E+00  0.0000000E+00
 0.1052200E+00  0.0000000E+00
 0.1056400E+00  0.0000000E+00
 0.1060600E+00  0.0000000E+00
 0.1064800E+00  0.0000000E+00
 0.1069000E+00  0.0000000E+00
 0.1073200E+00  0.0000000E+00
 0.1077400E+00  0.0000000E+00
 0.1081600E+00  0.0000000E+00
 0.1085800E+00  0.0000000E+00
 0.1090000E+00  0.0000000E+00
 0.1094200E+00  0.0000000E+00
 0.1098400E+00  0.0000000E+00
 0.1102600E+00  0.0000000E+00
 0.1106800E+00  0.0000000E+00
 0.1111000E+00  0.0000000E+00
 0.1115200E+00  0.0000000E+00
 0.1119400E+00  0.0000000E+00
 0.1123600E+00  0.0000000E+00
 0.1127800E+00  0.0000000E+00
 0.1132000E+00  0.0000000E+00
 0.1136200E+00  0.0000000E+00
 0.1140400E+00  0.0000000E+00
 0.1144600E+00  0.0000000E+00
 0.1148800E+00  0.0000000E+00
 0.1153000E+00  0.0000000E+00
 0.1157200E+00  0.0000000E+00
 0.1161400E+00  0.0000000E+00
 0.1165600E+00  0.0000000E+00
 0.1169800E+00  0.0000000E+00
 0.1174000E+00  0.0000000E+00
 0.1178200E+00  0.0000000E+00
 0.1182400E+00  0.0000000E+00
 0.1186600E+00  0.0000000E+00
 0.1190800E+00  0.0000000E+00
 0.1195000E+00  0.0000000E+00
 0.1199200E+00  0.0000000E+00
 0.1203400E+00  0.0000000E+00
 0.1207600E+00  0.0000000E+00
 0.1211800E+00  0.0000000E+00
 0.1216000E+00  0.0000000E+00
 0.1220200E+00  0.0000000E+00
 0.1224400E+00  0.0000000E+00
 0.1228600E+00  0.0000000E+00
 0.1232800E+00  0.0000000E+00
 0.1237000E+00  0.0000000E+00
 0.1241200E+00  0.0000000E+00
 0.1245400E+00  0.0000000E+00
 0.1249600E+00  0.0000000E+00
 0.1253800E+00  0.0000000E+00
 0.1258000E+00  0.0000000E+00
 0.1262200E+00  0.0000000E+00
 0.1266400E+00  0.0000000E+00
 0.1270600E+00  0.0000000E+00
 0.1274800E+00  0.0000000E+00
 0.1279000E+00  0.0000000E+00
 0.1283200E+00  0.0000000E+00
 0.1287400E+00  0.0000000E+00
 0.1291600E+00  0.0000000E+00
 0.1295800E+00  0.0000000E+00
 0.1300000E+00  0.0000000E+00
 0.1304200E+00  0.0000000E+00
 0.1308400E+00  0.0000000E+00
 0.1312600E+00  0.0000000E+00
 0.1316800E+00  0.0000000E+00
 0.1321000E+00  0.0000000E+00
 0.1325200E+00  0.0000000E+00
 0.1329400E+00  0.0000000E+00
 0.1333600E+00  0.0000000E+00
 0.1337800E+00  0.0000000E+00
 0.1342000E+00  0.0000000E+00
 0.1346200E+00  0.0000000E+00
 0.1350400E+00  0.0000000E+00
 0.1354600E+00  0.0000000E+00
 0.1358800E+00  0.0000000E+00
 0.1363000E+00  0.0000000E+00
 0.1367200E+00  0.0000000E+00
 0.1371400E+00  0.0000000E+00
 0.1375600E+00  0.0000000E+00
 0.1379800E+00  0.0000000E+00
 0.1384000E+00  0.0000000E+00
 0.1388200E+00  0.0000000E+00
 0.1392400E+00  0.0000000E+00
 0.1396600E+00  0.0000000E+00
 0.1400800E+00  0.0000000E+00
 0.1405000E+00  0.0000000E+00
 0.1409200E+00  0.0000000E+00
 0.1413400E+00  0.0000000E+00
 0.1417600E+00  0.0000000E+00
 0.1421800E+00  0.0000000E+00
 0.1426000E+00  0.0000000E+00
 0.1430200E+00  0.0000000E+00
 0.1434400E+00  0.0000000E+00
 0.1438600E+00  0.0000000E+00
 0.1442800E+00  0.0000000E+00
 0.1447000E+00  0.0000000E+00
 0.1451200E+00  0.0000000E+00
 0.1455400E+00  0.0000000E+00
 0.1459600E+00  0.0000000E+00
 0.1463800E+00  0.0000000E+00
 0.1468000E+00  0.0000000E+00
 0.1472200E+00  0.0000000E+00
 0.1476400E+00  0.0000000E+00
 0.1480600E+00  0.0000000E+00
 0.1484800E+00  0.0000000E+00
 0.1489000E+00  0.0000000E+00
 0.1493200E+00  0.0000000E+00
 0.1497400E+00  0.0000000E+00
 0.1501600E+00  0.0000000E+00
 0.1505800E+00  0.0000000E+00
 0.1510000E+00  0.0000000E+00
 0.1514200E+00  0.0000000E+00
 0.1518400E+00  0.0000000E+00
 0.1522600E+00  0.0000000E+00
 0.1526800E+00  0.0000000E+00
 0.1531000E+00  0.0000000E+00
 0.1535200E+00  0.0000000E+00
 0.1539400E+00  0.0000000E+00
 0.1543600E+00  0.0000000E+00
 0.1547800E+00  0.0000000E+00
 0.1552000E+00  0.0000000E+00
 0.1556200E+00  0.0000000E+00
 0.1560400E+00  0.0000000E+00
 0.1564600E+00  0.0000000E+00
 0.1568800E+00  0.0000000E+00
 0.1573000E+00  0.0000000E+00
 0.1577200E+00  0.0000000E+00
 0.1581400E+00  0.0000000E+00
 0.1585600E+00  0.0000000E+00
 0.1589800E+00  0.0000000E+00
 0.1594000E+00  0.0000000E+00
 0.1598200E+00  0.0000000E+00
 0.1602400E+00  0.0000000E+00
 0.1606600E+00  0.0000000E+00
 0.1610800E+00  0.0000000E+00
 0.1615000E+00  0.0000000E+00
 0.1619200E+00  0.0000000E+00
 0.1623400E+00  0.0000000E+00
 0.1627600E+00  0.0000000E+00
 0.1631800E+00  0.0000000E+00
 0.1636000E+00  0.0000000E+00
 0.1640200E+00  0.0000000E+00
 0.1644400E+00  0.0000000E+00
 0.1648600E+00  0.0000000E+00
 0.1652800E+00  0.0000000E+00
 0.1657000E+00  0.0000000E+00
 0.1661200E+00  0.0000000E+00
 0.1665400E+00  0.0000000E+00
 0.1669600E+00  0.0000000E+00
 0.1673800E+00  0.0000000E+00
 0.1678000E+00  0.0000000E+00
 0.1682200E+00  0.0000000E+00
 0.1686400E+00  0.0000000E+00
 0.1690600E+00  0.0000000E+00
 0.1694800E+00  0.0000000E+00
 0.1699000E+00  0.0000000E+00
 0.1703200E+00  0.0000000E+00
 0.1707400E+00  0.0000000E+00
 0.1711600E+00  0.0000000E+00
 0.1715800E+00  0.0000000E+00
 0.1720000E+00  0.0000000E+00
 0.1724200E+00  0.0000000E+00
 0.1728400E+00 -0.0000000E+00
 0.1732600E+00  0.0000000E+00
 0.1736800E+00  0.3040910E-37
 0.1741000E+00  0.4694282E-37
 0.1745200E+00  0.1339736E-37
 0.1749400E+00 -0.4624895E-37
 0.1753600E+00 -0.8145579E-37
 0.1757800E+00 -0.1161561E-36
 0.1762000E+00 -0.8170012E-37
 0.1766200E+00 -0.0000000E+00
 0.1770400E+00 -0.6092609E-37
 0.1774600E+00 -0.3982313E-36
 0.1778800E+00 -0.7567084E-36
 0.1783000E+00 -0.1534515E-36
 0.1787200E+00  0.1217143E-35
 0.1791400E+00  0.2198788E-35
 0.1795600E+00  0.1047106E-35
 0.1799800E+00 -0.1819289E-35
 0.1804000E+00 -0.3696241E-35
 0.1808200E+00 -0.2086909E-35
 0.1812400E+00  0.4204323E-35
 0.1816600E+00  0.9612650E-35
 0.1820800E+00  0.4707487E-35
 0.1825000E+00 -0.1177543E-34
 0.1829200E+00 -0.2701966E-34
 0.1833400E+00 -0.2644117E-34
 0.1837600E+00 -0.2402667E-35
 0.1841800E+00  0.4813110E-34
 0.1846000E+00  0.1341316E-33
 0.1850200E+00  0.2736583E-33
 0.1854400E+00  0.4723247E-33
 0.1858600E+00  0.6858650E-33
 0.1862800E+00  0.8222203E-33
 0.1867000E+00  0.7834809E-33
 0.1871200E+00  0.4900067E-33
 0.1875400E+00 -0.1026108E-33
 0.1879600E+00 -0.9926129E-33
 0.1883800E+00 -0.2116162E-32
 0.1888000E+00 -0.3327642E-32
 0.1892200E+00 -0.4389363E-32
 0.1896400E+00 -0.4978061E-32
 0.1900600E+00 -0.4723834E-32
 0.1904800E+00 -0.3271917E-32
 0.1909000E+00 -0.3666719E-33
 0.1913200E+00  0.4042844E-32
 0.1917400E+00  0.9690461E-32
 0.1921600E+00  0.1590311E-31
 0.1925800E+00  0.2157132E-31
 0.1930000E+00  0.2520756E-31
 0.1934200E+00  0.2510204E-31
 0.1938400E+00  0.1957118E-31
 0.1942600E+00  0.7301157E-32
 0.1946800E+00 -0.1221659E-31
 0.1951000E+00 -0.3820064E-31
 0.1955200E+00 -0.6814438E-31
 0.1959400E+00 -0.9756236E-31
 0.1963600E+00 -0.1200564E-30
 0.1967800E+00 -0.1278097E-30
 0.1972000E+00 -0.1125765E-30
 0.1976200E+00 -0.6718028E-31
 0.1980400E+00  0.1254910E-31
 0.1984600E+00  0.1255976E-30
 0.1988800E+00  0.2636974E-30
 0.1993000E+00  0.4098488E-30
 0.1997200E+00  0.5379931E-30
 0.2001400E+00  0.6143736E-30
 0.2005600E+00  0.6010165E-30
 0.2009800E+00  0.4615185E-30
 0.2014000E+00  0.1689616E-30
 0.2018200E+00 -0.2847238E-30
 0.2022400E+00 -0.8792030E-30
 0.2026600E+00 -0.1557791E-29
 0.2030800E+00 -0.2223334E-29
 0.2035000E+00 -0.2740294E-29
 0.2039200E+00 -0.2945154E-29
 0.2043400E+00 -0.2666521E-29
 0.2047600E+00 -0.1754980E-29
 0.2051800E+00 -0.1208588E-30
 0.2056000E+00  0.2224165E-29
 0.2060200E+00  0.5128016E-29
 0.2064400E+00  0.8270167E-29
 0.2068600E+00  0.1115424E-28
 0.2072800E+00  0.1313078E-28
 0.2077000E+00  0.1345786E-28
 0.2081200E+00  0.1140295E-28
 0.2085400E+00  0.6383074E-29
 0.2089600E+00 -0.1867651E-29
 0.2093800E+00 -0.1312387E-28
 0.2098000E+00 -0.2651744E-28
 0.2102200E+00 -0.4044527E-28
 0.2106400E+00 -0.5257575E-28
 0.2110600E+00 -0.5999054E-28
 0.2114800E+00 -0.5948691E-28
 0.2119000E+00 -0.4804683E-28
 0.2123200E+00 -0.2345071E-28
 0.2127400E+00  0.1501990E-28
 0.2131600E+00  0.6588322E-28
 0.2135800E+00  0.1248876E-27
 0.2140000E+00  0.1847201E-27
 0.2144200E+00  0.2351469E-27
 0.2148400E+00  0.2637200E-27
 0.2152600E+00  0.2571318E-27
 0.2156800E+00  0.2032181E-27
 0.2161000E+00  0.9349319E-28
 0.2165200E+00 -0.7402698E-28
 0.2169400E+00 -0.2921008E-27
 0.2173600E+00 -0.5421383E-27
 0.2177800E+00 -0.7932575E-27
 0.2182000E+00 -0.1003100E-26
 0.2186200E+00 -0.1120883E-26
 0.2190400E+00 -0.1092971E-26
 0.2194600E+00 -0.8708822E-27
 0.2198800E+00 -0.4212645E-27
 0.2203000E+00  0.2631709E-27
 0.2207200E+00  0.1153236E-26
 0.2211400E+00  0.2175291E-26
 0.2215600E+00  0.3207852E-26
 0.2219800E+00  0.4084911E-26
 0.2224000E+00  0.4607700E-26
 0.2228200E+00  0.4565831E-26
 0.2232400E+00  0.3767508E-26
 0.2236600E+00  0.2076978E-26
 0.2240800E+00 -0.5444496E-27
 0.2245000E+00 -0.3999211E-26
 0.2249200E+00 -0.8023025E-26
 0.2253400E+00 -0.1217089E-25
 0.2257600E+00 -0.1582720E-25
 0.2261800E+00 -0.1824611E-25
 0.2266000E+00 -0.1862591E-25
 0.2270200E+00 -0.1621625E-25
 0.2274400E+00 -0.1045248E-25
 0.2278600E+00 -0.1104477E-26
 0.2282800E+00  0.1157837E-25
 0.2287000E+00  0.2674966E-25
 0.2291200E+00  0.4290290E-25
 0.2295400E+00  0.5788951E-25
 0.2299600E+00  0.6904065E-25
 0.2303800E+00  0.7340664E-25
 0.2308000E+00  0.6811418E-25
 0.2312200E+00  0.5082386E-25
 0.2316400E+00  0.2024989E-25
 0.2320600E+00 -0.2331673E-25
 0.2324800E+00 -0.7755856E-25
 0.2329000E+00 -0.1378448E-24
 0.2333200E+00 -0.1971986E-24
 0.2337400E+00 -0.2465998E-24
 0.2341600E+00 -0.2756792E-24
 0.2345800E+00 -0.2738187E-24
 0.2350000E+00 -0.2316190E-24
 0.2354200E+00 -0.1426286E-24
 0.2358400E+00 -0.5162266E-26
 0.2362600E+00  0.1760253E-24
 0.2366800E+00  0.3884945E-24
 0.2371000E+00  0.6116034E-24
 0.2375200E+00  0.8170021E-24
 0.2379400E+00  0.9703595E-24
 0.2383600E+00  0.1034429E-23
 0.2387800E+00  0.9734041E-24
 0.2392000E+00  0.7583270E-24
 0.2396200E+00  0.3730823E-24
 0.2400400E+00 -0.1796741E-24
 0.2404600E+00 -0.8734948E-24
 0.2408800E+00 -0.1654963E-23
 0.2413000E+00 -0.2443300E-23
 0.2417200E+00 -0.3133578E-23
 0.2421400E+00 -0.3604077E-23
 0.2425600E+00 -0.3727942E-23
 0.2429800E+00 -0.3388713E-23
 0.2434000E+00 -0.2498736E-23
 0.2438200E+00 -0.1018752E-23
 0.2442400E+00  0.1023590E-23
 0.2446600E+00  0.3519021E-23
 0.2450800E+00  0.6268656E-23
 0.2455000E+00  0.8985534E-23
 0.2459200E+00  0.1130797E-22
 0.2463400E+00  0.1282607E-22
 0.2467600E+00  0.1312142E-22
 0.2471800E+00  0.1181826E-22
 0.2476000E+00  0.8642631E-23
 0.2480200E+00  0.3483935E-23
 0.2484400E+00 -0.3548048E-23
 0.2488600E+00 -0.1207911E-22
 0.2492800E+00 -0.2144823E-22
 0.2497000E+00 -0.3071499E-22
 0.2501200E+00 -0.3870338E-22
 0.2505400E+00 -0.4408564E-22
 0.2509600E+00 -0.4550563E-22
 0.2513800E+00 -0.4173672E-22
 0.2518000E+00 -0.3186339E-22
 0.2522200E+00 -0.1547049E-22
 0.2526400E+00  0.7180351E-23
 0.2530600E+00  0.3501157E-22
 0.2534800E+00  0.6605290E-22
 0.2539000E+00  0.9745101E-22
 0.2543200E+00  0.1255852E-21
 0.2547400E+00  0.1463004E-21
 0.2551600E+00  0.1552588E-21
 0.2555800E+00  0.1483977E-21
 0.2560000E+00  0.1224647E-21
 0.2564200E+00  0.7558952E-22
 0.2568400E+00  0.7834616E-23
 0.2572600E+00 -0.7834151E-22
 0.2576800E+00 -0.1777810E-21
 0.2581000E+00 -0.2825538E-21
 0.2585200E+00 -0.3821756E-21
 0.2589400E+00 -0.4641615E-21
 0.2593600E+00 -0.5149286E-21
 0.2597800E+00 -0.5210310E-21
 0.2602000E+00 -0.4706681E-21
 0.2606200E+00 -0.3553650E-21
 0.2610400E+00 -0.1716845E-21
 0.2614600E+00  0.7720568E-22
 0.2618800E+00  0.3803095E-21
 0.2623000E+00  0.7181306E-21
 0.2627200E+00  0.1062746E-20
 0.2631400E+00  0.1378785E-20
 0.2635600E+00  0.1625419E-20
 0.2639800E+00  0.1759374E-20
 0.2644000E+00  0.1738895E-20
 0.2648200E+00  0.1528461E-20
 0.2652400E+00  0.1103932E-20
 0.2656600E+00  0.4577186E-21
 0.2660800E+00 -0.3965723E-21
 0.2665000E+00 -0.1420579E-20
 0.2669200E+00 -0.2549330E-20
 0.2673400E+00 -0.3691657E-20
 0.2677600E+00 -0.4733333E-20
 0.2681800E+00 -0.5543258E-20
 0.2686000E+00 -0.5982731E-20
 0.2690200E+00 -0.5917615E-20
 0.2694400E+00 -0.5232811E-20
 0.2698600E+00 -0.3848179E-20
 0.2702800E+00 -0.1734630E-20
 0.2707000E+00  0.1071102E-20
 0.2711200E+00  0.4454788E-20
 0.2715400E+00  0.8217917E-20
 0.2719600E+00  0.1207758E-19
 0.2723800E+00  0.1567453E-19
 0.2728000E+00  0.1859049E-19
 0.2732200E+00  0.2037511E-19
 0.2736400E+00  0.2058219E-19
 0.2740600E+00  0.1881382E-19
 0.2744800E+00  0.1476996E-19
 0.2749000E+00  0.8299979E-20
 0.2753200E+00 -0.5481498E-21
 0.2757400E+00 -0.1148643E-19
 0.2761600E+00 -0.2395861E-19
 0.2765800E+00 -0.3713096E-19
 0.2770000E+00 -0.4990709E-19
 0.2774200E+00 -0.6097088E-19
 0.2778400E+00 -0.6885986E-19
 0.2782600E+00 -0.7206905E-19
 0.2786800E+00 -0.6918243E-19
 0.2791000E+00 -0.5902614E-19
 0.2795200E+00 -0.4083393E-19
 0.2799400E+00 -0.1441267E-19
 0.2803600E+00  0.1970768E-19
 0.2807800E+00  0.6015666E-19
 0.2812000E+00  0.1046566E-18
 0.2816200E+00  0.1500240E-18
 0.2820400E+00  0.1922543E-18
 0.2824600E+00  0.2267006E-18
 0.2828800E+00  0.2483515E-18
 0.2833000E+00  0.2522047E-18
 0.2837200E+00  0.2337241E-18
 0.2841400E+00  0.1893581E-18
 0.2845600E+00  0.1170859E-18
 0.2849800E+00  0.1694873E-19
 0.2854000E+00 -0.1084839E-18
 0.2858200E+00 -0.2537691E-18
 0.2862400E+00 -0.4104245E-18
 0.2866600E+00 -0.5669952E-18
 0.2870800E+00 -0.7093993E-18
 0.2875000E+00 -0.8215828E-18
 0.2879200E+00 -0.8864946E-18
 0.2883400E+00 -0.8873674E-18
 0.2887600E+00 -0.8092587E-18
 0.2891800E+00 -0.6407755E-18
 0.2896000E+00 -0.3758730E-18
 0.2900200E+00 -0.1558787E-19
 0.2904400E+00  0.4304583E-18
 0.2908600E+00  0.9429651E-18
 0.2912800E+00  0.1492452E-17
 0.2917000E+00  0.2039524E-17
 0.2921200E+00  0.2536043E-17
 0.2925400E+00  0.2927314E-17
 0.2929600E+00  0.3155305E-17
 0.2933800E+00  0.3162869E-17
 0.2938000E+00  0.2898816E-17
 0.2942200E+00  0.2323599E-17
 0.2946400E+00  0.1415266E-17
 0.2950600E+00  0.1752365E-18
 0.2954800E+00 -0.1366623E-17
 0.2959000E+00 -0.3148186E-17
 0.2963200E+00 -0.5073132E-17
 0.2967400E+00 -0.7011425E-17
 0.2971600E+00 -0.8802716E-17
 0.2975800E+00 -0.1026300E-16
 0.2980000E+00 -0.1119469E-16
 0.2984200E+00 -0.1140000E-16
 0.2988400E+00 -0.1069726E-16
 0.2992600E+00 -0.8939491E-17
 0.2996800E+00 -0.6034109E-17
 0.3001000E+00 -0.1962530E-17
 0.3005200E+00  0.3202051E-17
 0.3009400E+00  0.9280480E-17
 0.3013600E+00  0.1597899E-16
 0.3017800E+00  0.2288798E-16
 0.3022000E+00  0.2948984E-16
 0.3026200E+00  0.3517720E-16
 0.3030400E+00  0.3928237E-16
 0.3034600E+00  0.4111787E-16
 0.3038800E+00  0.4002734E-16
 0.3043000E+00  0.3544488E-16
 0.3047200E+00  0.2695999E-16
 0.3051400E+00  0.1438400E-16
 0.3055600E+00 -0.2186657E-17
 0.3059800E+00 -0.2231632E-16
 0.3064000E+00 -0.4519101E-16
 0.3068200E+00 -0.6960078E-16
 0.3072400E+00 -0.9394933E-16
 0.3076600E+00 -0.1162959E-15
 0.3080800E+00 -0.1344330E-15
 0.3085000E+00 -0.1460015E-15
 0.3089200E+00 -0.1486416E-15
 0.3093400E+00 -0.1401763E-15
 0.3097600E+00 -0.1188198E-15
 0.3101800E+00 -0.8339932E-16
 0.3106000E+00 -0.3357713E-16
 0.3110200E+00  0.2994460E-16
 0.3114400E+00  0.1052553E-15
 0.3118600E+00  0.1891242E-15
 0.3122800E+00  0.2769655E-15
 0.3127000E+00  0.3628990E-15
 0.3131200E+00  0.4399217E-15
 0.3135400E+00  0.5002001E-15
 0.3139600E+00  0.5354870E-15
 0.3143800E+00  0.5376559E-15
 0.3148000E+00  0.4993388E-15
 0.3152200E+00  0.4146403E-15
 0.3156400E+00  0.2798905E-15
 0.3160600E+00  0.9439045E-16
 0.3164800E+00 -0.1389094E-15
 0.3169000E+00 -0.4128591E-15
 0.3173200E+00 -0.7157554E-15
 0.3177400E+00 -0.1031251E-14
 0.3181600E+00 -0.1338585E-14
 0.3185800E+00 -0.1613187E-14
 0.3190000E+00 -0.1827683E-14
 0.3194200E+00 -0.1953319E-14
 0.3198400E+00 -0.1961769E-14
 0.3202600E+00 -0.1827295E-14
 0.3206800E+00 -0.1529160E-14
 0.3211000E+00 -0.1054171E-14
 0.3215200E+00 -0.3992119E-15
 0.3219400E+00  0.4264436E-15
 0.3223600E+00  0.1399223E-14
 0.3227800E+00  0.2479986E-14
 0.3232000E+00  0.3613604E-14
 0.3236200E+00  0.4729601E-14
 0.3240400E+00  0.5744004E-14
 0.3244600E+00  0.6562538E-14
 0.3248800E+00  0.7085199E-14
 0.3253000E+00  0.7212152E-14
 0.3257200E+00  0.6850827E-14
 0.3261400E+00  0.5923929E-14
 0.3265600E+00  0.4378013E-14
 0.3269800E+00  0.2192113E-14
 0.3274000E+00 -0.6141382E-15
 0.3278200E+00 -0.3973585E-14
 0.3282400E+00 -0.7766522E-14
 0.3286600E+00 -0.1181830E-13
 0.3290800E+00 -0.1590022E-13
 0.3295000E+00 -0.1973437E-13
 0.3299200E+00 -0.2300278E-13
 0.3303400E+00 -0.2536115E-13
 0.3307600E+00 -0.2645716E-13
 0.3311800E+00 -0.2595292E-13
 0.3316000E+00 -0.2355098E-13
 0.3320200E+00 -0.1902275E-13
 0.3324400E+00 -0.1223787E-13
 0.3328600E+00 -0.3192841E-14
 0.3332800E+00  0.7963235E-14
 0.3337000E+00  0.2090807E-13
 0.3341200E+00  0.3513315E-13
 0.3345400E+00  0.4994054E-13
 0.3349600E+00  0.6445171E-13
 0.3353800E+00  0.7763010E-13
 0.3358000E+00  0.8831863E-13
 0.3362200E+00  0.9529253E-13
 0.3366400E+00  0.9732695E-13
 0.3370600E+00  0.9327801E-13
 0.3374800E+00  0.8217412E-13
 0.3379000E+00  0.6331409E-13
 0.3383200E+00  0.3636658E-13
 0.3387400E+00  0.1464816E-14
 0.3391600E+00 -0.4071039E-13
 0.3395800E+00 -0.8886708E-13