-0.8000000E-01  0.0000000E+00
-0.7958000E-01  0.0000000E+00
-0.7916000E-01  0.0000000E+00
-0.7874000E-01  0.0000000E+00
-0.7832000E-01  0.0000000E+00
-0.7790000E-01  0.0000000E+00
-0.7748000E-01  0.0000000E+00
-0.7706000E-01  0.0000000E+00
-0.7664000E-01  0.0000000E+00
-0.7622000E-01  0.0000000E+00
-0.7580000E-01  0.0000000E+00
-0.7538000E-01  0.0000000E+00
-0.7496000E-01  0.0000000E+00
-0.7454000E-01  0.0000000E+00
-0.7412000E-01  0.0000000E+00
-0.7370000E-01  0.0000000E+00
-0.7328000E-01  0.0000000E+00
-0.7286000E-01  0.0000000E+00
-0.7244000E-01  0.0000000E+00
-0.7202000E-01  0.0000000E+00
-0.7160000E-01  0.0000000E+00
-0.7118000E-01  0.0000000E+00
-0.7076000E-01  0.0000000E+00
-0.7034000E-01  0.0000000E+00
-0.6992000E-01  0.0000000E+00
-0.6950000E-01  0.0000000E+00
-0.6908000E-01  0.0000000E+00
-0.6866000E-01  0.0000000E+00
-0.6824000E-01  0.0000000E+00
-0.6782000E-01  0.0000000E+00
-0.6740000E-01  0.0000000E+00
-0.6698000E-01  0.0000000E+00
-0.6656000E-01  0.0000000E+00
-0.6614000E-01  0.0000000E+00
-0.6572000E-01  0.0000000E+00
-0.6530000E-01  0.0000000E+00
-0.6488000E-01  0.0000000E+00
-0.6446000E-01  0.0000000E+00
-0.6404000E-01  0.0000000E+00
-0.6362000E-01  0.0000000E+00
-0.6320000E-01  0.0000000E+00
-0.6278000E-01  0.0000000E+00
-0.6236000E-01  0.0000000E+00
-0.6194000E-01  0.0000000E+00
-0.6152000E-01  0.0000000E+00
-0.6110000E-01  0.0000000E+00
-0.6068000E-01  0.0000000E+00
-0.6026000E-01  0.0000000E+00
-0.5984000E-01  0.0000000E+00
-0.5942000E-01  0.0000000E+00
-0.5900000E-01  0.0000000E+00
-0.5858000E-01  0.0000000E+00
-0.5816000E-01  0.0000000E+00
-0.5774000E-01  0.0000000E+00
-0.5732000E-01  0.0000000E+00
-0.5690000E-01  0.0000000E+00
-0.5648000E-01  0.0000000E+00
-0.5606000E-01  0.0000000E+00
-0.5564000E-01  0.0000000E+00
-0.5522000E-01  0.0000000E+00
-0.5480000E-01  0.0000000E+00
-0.5438000E-01  0.0000000E+00
-0.5396000E-01  0.0000000E+00
-0.5354000E-01  0.0000000E+00
-0.5312000E-01  0.0000000E+00
-0.5270000E-01  0.0000000E+00
-0.5228000E-01  0.0000000E+00
-0.5186000E-01  0.0000000E+00
-0.5144000E-01  0.0000000E+00
-0.5102000E-01  0.0000000E+00
-0.5060000E-01  0.0000000E+00
-0.5018000E-01  0.0000000E+00
-0.4976000E-01  0.0000000E+00
-0.4934000E-01  0.0000000E+00
-0.4892000E-01  0.0000000E+00
-0.4850000E-01  0.0000000E+00
-0.4808000E-01  0.0000000E+00
-0.4766000E-01  0.0000000E+00
-0.4724000E-01  0.0000000E+00
-0.4682000E-01  0.0000000E+00
-0.4640000E-01  0.0000000E+00
-0.4598000E-01  0.0000000E+00
-0.4556000E-01  0.0000000E+00
-0.4514000E-01  0.0000000E+00
-0.4472000E-01  0.0000000E+00
-0.4430000E-01 -0.0000000E+00
-0.4388000E-01 -0.0000000E+00
-0.4346000E-01 -0.0000000E+00
-0.4304000E-01 -0.0000000E+00
-0.4262000E-01 -0.0000000E+00
-0.4220000E-01 -0.0000000E+00
-0.4178000E-01 -0.0000000E+00
-0.4136000E-01 -0.0000000E+00
-0.4094000E-01  0.2145442E-37
-0.4052000E-01  0.6413996E-37
-0.4010000E-01  0.1149865E-36
-0.3968000E-01  0.1621683E-36
-0.3926000E-01  0.1797684E-36
-0.3884000E-01  0.1027240E-36
-0.3842000E-01 -0.1435956E-36
-0.3800000E-01 -0.5931494E-36
-0.3758000E-01 -0.1207427E-35
-0.3716000E-01 -0.1797636E-35
-0.3674000E-01 -0.2093449E-35
-0.3632000E-01 -0.1660470E-35
-0.3590000E-01  0.5984658E-37
-0.3548000E-01  0.3453625E-35
-0.3506000E-01  0.8553898E-35
-0.3464000E-01  0.1468315E-34
-0.3422000E-01  0.2012450E-34
-0.3380000E-01  0.2189871E-34
-0.3338000E-01  0.1591408E-34
-0.3296000E-01 -0.2247939E-35
-0.3254000E-01 -0.3588473E-34
-0.3212000E-01 -0.8480856E-34
-0.3170000E-01 -0.1425451E-33
-0.3128000E-01 -0.1936975E-33
-0.3086000E-01 -0.2124612E-33
-0.3044000E-01 -0.1640014E-33
-0.3002000E-01 -0.1056913E-34
-0.2960000E-01  0.2763068E-33
-0.2918000E-01  0.6975606E-33
-0.2876000E-01  0.1204451E-32
-0.2834000E-01  0.1677381E-32
-0.2792000E-01  0.1914483E-32
-0.2750000E-01  0.1641489E-32
-0.2708000E-01  0.5552566E-33
-0.2666000E-01 -0.1589598E-32
-0.2624000E-01 -0.4850137E-32
-0.2582000E-01 -0.8934203E-32
-0.2540000E-01 -0.1304321E-31
-0.2498000E-01 -0.1577541E-31
-0.2456000E-01 -0.1516575E-31
-0.2414000E-01 -0.8944872E-32
-0.2372000E-01  0.4916501E-32
-0.2330000E-01  0.2736130E-31
-0.2288000E-01  0.5716967E-31
-0.2246000E-01  0.8984754E-31
-0.2204000E-01  0.1168168E-30
-0.2162000E-01  0.1253698E-30
-0.2120000E-01  0.9990907E-31
-0.2078000E-01  0.2493020E-31
-0.2036000E-01 -0.1100522E-30
-0.1994000E-01 -0.3039036E-30
-0.1952000E-01 -0.5365549E-30
-0.1910000E-01 -0.7627583E-30
-0.1868000E-01 -0.9094845E-30
-0.1826000E-01 -0.8800370E-30
-0.1784000E-01 -0.5678389E-30
-0.1742000E-01  0.1182172E-30
-0.1700000E-01  0.1217222E-29
-0.1658000E-01  0.2672366E-29
-0.1616000E-01  0.4288010E-29
-0.1574000E-01  0.5700642E-29
-0.1532000E-01  0.6380267E-29
-0.1490000E-01  0.5679834E-29
-0.1448000E-01  0.2946886E-29
-0.1406000E-01 -0.2297540E-29
-0.1364000E-01 -0.1012361E-28
-0.1322000E-01 -0.1993348E-28
-0.1280000E-01 -0.3023538E-28
-0.1238000E-01 -0.3853127E-28
-0.1196000E-01 -0.4141158E-28
-0.1154000E-01 -0.3494708E-28
-0.1112000E-01 -0.1543713E-28
-0.1070000E-01  0.1948758E-28
-0.1028000E-01  0.6950454E-28
-0.9860000E-02  0.1301959E-27
-0.9440000E-02  0.1919409E-27
-0.9020000E-02  0.2395462E-27
-0.8600000E-02  0.2530954E-27
-0.8180000E-02  0.2104415E-27
-0.7760000E-02  0.9156988E-28
-0.7340000E-02 -0.1152954E-27
-0.6920000E-02 -0.4064588E-27
-0.6500000E-02 -0.7556032E-27
-0.6080000E-02 -0.1108508E-26
-0.5660000E-02 -0.1381851E-26
-0.5240000E-02 -0.1468412E-26
-0.4820000E-02 -0.1250578E-26
-0.4400000E-02 -0.6230196E-27
-0.3980000E-02  0.4763787E-27
-0.3560000E-02  0.2030590E-26
-0.3140000E-02  0.3908496E-26
-0.2720000E-02  0.5839458E-26
-0.2300000E-02  0.7407747E-26
-0.1880000E-02  0.8077397E-26
-0.1460000E-02  0.7256003E-26
-0.1040000E-02  0.4401076E-26
-0.6200000E-03 -0.8353122E-27
-0.2000000E-03 -0.8438296E-26
 0.2200000E-03 -0.1786487E-25
 0.6400000E-03 -0.2791896E-25
 0.1060000E-02 -0.3671218E-25
 0.1480000E-02 -0.4175663E-25
 0.1900000E-02 -0.4022790E-25
 0.2320000E-02 -0.2941636E-25
 0.2740000E-02 -0.7352560E-26
 0.3160000E-02  0.2645004E-25
 0.3580000E-02  0.7024063E-25
 0.4000000E-02  0.1194167E-24
 0.4420000E-02  0.1662362E-24
 0.4840000E-02  0.2000520E-24
 0.5260000E-02  0.2082377E-24
 0.5680000E-02  0.1779042E-24
 0.6100000E-02  0.9838378E-25
 0.6520000E-02 -0.3570204E-25
 0.6940000E-02 -0.2211638E-24
 0.7360000E-02 -0.4433201E-24
 0.7780000E-02 -0.6741420E-24
 0.8200000E-02 -0.8722565E-24
 0.8620000E-02 -0.9855373E-24
 0.9040000E-02 -0.9568022E-24
 0.9460000E-02 -0.7327327E-24
 0.9880000E-02 -0.2755690E-24
 0.1030000E-01  0.4235680E-24
 0.1072000E-01  0.1331609E-23
 0.1114000E-01  0.2363261E-23
 0.1156000E-01  0.3376486E-23
 0.1198000E-01  0.4176738E-23
 0.1240000E-01  0.4532434E-23
 0.1282000E-01  0.4203027E-23
 0.1324000E-01  0.2979214E-23
 0.1366000E-01  0.7325225E-24
 0.1408000E-01 -0.2531217E-23
 0.1450000E-01 -0.6622614E-23
 0.1492000E-01 -0.1113392E-22
 0.1534000E-01 -0.1542996E-22
 0.1576000E-01 -0.1867566E-22
 0.1618000E-01 -0.1990822E-22
 0.1660000E-01 -0.1815741E-22
 0.1702000E-01 -0.1260991E-22
 0.1744000E-01 -0.2805303E-23
 0.1786000E-01  0.1115891E-22
 0.1828000E-01  0.2844470E-22
 0.1870000E-01  0.4735177E-22
 0.1912000E-01  0.6529796E-22
 0.1954000E-01  0.7893982E-22
 0.1996000E-01  0.8446086E-22
 0.2038000E-01  0.7803670E-22
 0.2080000E-01  0.5646001E-22
 0.2122000E-01  0.1787695E-22
 0.2164000E-01 -0.3744751E-22
 0.2206000E-01 -0.1064495E-21
 0.2248000E-01 -0.1828085E-21
 0.2290000E-01 -0.2568584E-21
 0.2332000E-01 -0.3160023E-21
 0.2374000E-01 -0.3457268E-21
 0.2416000E-01 -0.3312535E-21
 0.2458000E-01 -0.2597698E-21
 0.2500000E-01 -0.1230781E-21
 0.2542000E-01  0.7961495E-22
 0.2584000E-01  0.3391581E-21
 0.2626000E-01  0.6346314E-21
 0.2668000E-01  0.9327465E-21
 0.2710000E-01  0.1188942E-20
 0.2752000E-01  0.1350539E-20
 0.2794000E-01  0.1362110E-20
 0.2836000E-01  0.1172949E-20
 0.2878000E-01  0.7461413E-21
 0.2920000E-01  0.6839862E-22
 0.2962000E-01 -0.8405976E-21
 0.3004000E-01 -0.1920861E-20
 0.3046000E-01 -0.3068458E-20
 0.3088000E-01 -0.4137204E-20
 0.3130000E-01 -0.4947021E-20
 0.3172000E-01 -0.5299715E-20
 0.3214000E-01 -0.5002082E-20
 0.3256000E-01 -0.3895129E-20
 0.3298000E-01 -0.1887014E-20
 0.3340000E-01  0.1013928E-20
 0.3382000E-01  0.4670745E-20
 0.3424000E-01  0.8799335E-20
 0.3466000E-01  0.1296523E-19
 0.3508000E-01  0.1660048E-19
 0.3550000E-01  0.1904387E-19
 0.3592000E-01  0.1960542E-19
 0.3634000E-01  0.1765296E-19
 0.3676000E-01  0.1271488E-19
 0.3718000E-01  0.4589556E-20
 0.3760000E-01 -0.6551718E-20
 0.3802000E-01 -0.2008394E-19
 0.3844000E-01 -0.3488651E-19
 0.3886000E-01 -0.4935614E-19
 0.3928000E-01 -0.6148730E-19
 0.3970000E-01 -0.6902724E-19
 0.4012000E-01 -0.6970444E-19
 0.4054000E-01 -0.6151966E-19
 0.4096000E-01 -0.4307745E-19
 0.4138000E-01 -0.1392582E-19
 0.4180000E-01  0.2513786E-19
 0.4222000E-01  0.7184219E-19
 0.4264000E-01  0.1223471E-18
 0.4306000E-01  0.1713234E-18
 0.4348000E-01  0.2122386E-18
 0.4390000E-01  0.2378647E-18
 0.4432000E-01  0.2409965E-18
 0.4474000E-01  0.2153442E-18
 0.4516000E-01  0.1565305E-18
 0.4558000E-01  0.6309694E-19
 0.4600000E-01 -0.6260230E-19
 0.4642000E-01 -0.2137503E-18
 0.4684000E-01 -0.3787971E-18
 0.4726000E-01 -0.5416867E-18
 0.4768000E-01 -0.6826681E-18
 0.4810000E-01 -0.7797273E-18
 0.4852000E-01 -0.8106113E-18
 0.4894000E-01 -0.7553437E-18
 0.4936000E-01 -0.5990488E-18
 0.4978000E-01 -0.3348333E-18
 0.5020000E-01  0.3359174E-19
 0.5062000E-01  0.4898943E-18
 0.5104000E-01  0.1004069E-17
 0.5146000E-01  0.1532667E-17
 0.5188000E-01  0.2020557E-17
 0.5230000E-01  0.2404339E-17
 0.5272000E-01  0.2617397E-17
 0.5314000E-01  0.2596374E-17
 0.5356000E-01  0.2288687E-17
 0.5398000E-01  0.1660485E-17
 0.5440000E-01  0.7043181E-18
 0.5482000E-01 -0.5543426E-18
 0.5524000E-01 -0.2052644E-17
 0.5566000E-01 -0.3688803E-17
 0.5608000E-01 -0.5324217E-17
 0.5650000E-01 -0.6789748E-17
 0.5692000E-01 -0.7896353E-17
 0.5734000E-01 -0.8449889E-17
 0.5776000E-01 -0.8269430E-17
 0.5818000E-01 -0.7208010E-17
 0.5860000E-01 -0.5174242E-17
 0.5902000E-01 -0.2152929E-17
 0.5944000E-01  0.1777515E-17
 0.5986000E-01  0.6433070E-17
 0.6028000E-01  0.1151973E-16
 0.6070000E-01  0.1663862E-16
 0.6112000E-01  0.2130193E-16
 0.6154000E-01  0.2496035E-16
 0.6196000E-01  0.2704168E-16
 0.6238000E-01  0.2699936E-16
 0.6280000E-01  0.2436834E-16
 0.6322000E-01  0.1882495E-16
 0.6364000E-01  0.1024596E-16
 0.6406000E-01 -0.1238286E-17
 0.6448000E-01 -0.1520271E-16
 0.6490000E-01 -0.3090417E-16
 0.6532000E-01 -0.4728153E-16
 0.6574000E-01 -0.6298391E-16
 0.6616000E-01 -0.7643020E-16
 0.6658000E-01 -0.8590095E-16
 0.6700000E-01 -0.8966154E-16
 0.6742000E-01 -0.8611197E-16
 0.6784000E-01 -0.7395633E-16
 0.6826000E-01 -0.5238104E-16
 0.6868000E-01 -0.2122873E-16
 0.6910000E-01  0.1884818E-16
 0.6952000E-01  0.6627147E-16
 0.6994000E-01  0.1184764E-15
 0.7036000E-01  0.1719230E-15
 0.7078000E-01  0.2221931E-15
 0.7120000E-01  0.2641836E-15
 0.7162000E-01  0.2923991E-15
 0.7204000E-01  0.3013387E-15
 0.7246000E-01  0.2859671E-15
 0.7288000E-01  0.2422447E-15
 0.7330000E-01  0.1676849E-15
 0.7372000E-01  0.6189808E-16
 0.7414000E-01 -0.7292614E-16
 0.7456000E-01 -0.2316540E-15
 0.7498000E-01 -0.4060123E-15
 0.7540000E-01 -0.5846163E-15
 0.7582000E-01 -0.7532631E-15
 0.7624000E-01 -0.8955230E-15
 0.7666000E-01 -0.9936384E-15
 0.7708000E-01 -0.1029721E-14
 0.7750000E-01 -0.9872097E-15
 0.7792000E-01 -0.8525185E-15
 0.7834000E-01 -0.6167844E-15
 0.7876000E-01 -0.2775867E-15
 0.7918000E-01  0.1595023E-15
 0.7960000E-01  0.6797026E-15
 0.8002000E-01  0.1258306E-14
 0.8044000E-01  0.1860609E-14
 0.8086000E-01  0.2442639E-14
 0.8128000E-01  0.2952770E-14
 0.8170000E-01  0.3334272E-14
 0.8212000E-01  0.3528793E-14
 0.8254000E-01  0.3480664E-14
 0.8296000E-01  0.3141861E-14
 0.8338000E-01  0.2477378E-14
 0.8380000E-01  0.1470645E-14
 0.8422000E-01  0.1286104E-15
 0.8464000E-01 -0.1513993E-14
 0.8506000E-01 -0.3391682E-14
 0.8548000E-01 -0.5407025E-14
 0.8590000E-01 -0.7431654E-14
 0.8632000E-01 -0.9309864E-14
 0.8674000E-01 -0.1086500E-13
 0.8716000E-01 -0.1190871E-13
 0.8758000E-01 -0.1225294E-13
 0.8800000E-01 -0.1172421E-13
 0.8842000E-01 -0.1017977E-13
 0.8884000E-01 -0.7524520E-14
 0.8926000E-01 -0.3727764E-14
 0.8968000E-01  0.1161474E-14
 0.9010000E-01  0.7002083E-14
 0.9052000E-01  0.1355283E-13
 0.9094000E-01  0.2047016E-13
 0.9136000E-01  0.2731298E-13
 0.9178000E-01  0.3355569E-13
 0.9220000E-01  0.3860978E-13
 0.9262000E-01  0.4185440E-13
 0.9304000E-01  0.4267512E-13
 0.9346000E-01  0.4050997E-13
 0.9388000E-01  0.3490063E-13
 0.9430000E-01  0.2554628E-13
 0.9472000E-01  0.1235651E-13
 0.9514000E-01 -0.4500237E-14
 0.9556000E-01 -0.2455737E-13
 0.9598000E-01 -0.4702425E-13
 0.9640000E-01 -0.7077833E-13
 0.9682000E-01 -0.9437908E-13
 0.9724000E-01 -0.1161070E-12
 0.9766000E-01 -0.1340298E-12
 0.9808000E-01 -0.1460963E-12
 0.9850000E-01 -0.1502568E-12
 0.9892000E-01 -0.1446067E-12
 0.9934000E-01 -0.1275473E-12
 0.9976000E-01 -0.9795752E-13
 0.1001800E+00 -0.5536495E-13
 0.1006000E+00 -0.1052936E-15
 0.1010200E+00  0.6654245E-13
 0.1014400E+00  0.1422598E-12
 0.1018600E+00  0.2236443E-12
 0.1022800E+00  0.3062307E-12
 0.1027000E+00  0.3845875E-12
 0.1031200E+00  0.4524982E-12
 0.1035400E+00  0.5032282E-12
 0.1039600E+00  0.5298787E-12
 0.1043800E+00  0.5258181E-12
 0.1048000E+00  0.4851774E-12
 0.1052200E+00  0.4033898E-12
 0.1056400E+00  0.2777448E-12
 0.1060600E+00  0.1079256E-12
 0.1064800E+00 -0.1035112E-12
 0.1069000E+00 -0.3507523E-12
 0.1073200E+00 -0.6244875E-12
 0.1077400E+00 -0.9118501E-12
 0.1081600E+00 -0.1196579E-11
 0.1085800E+00 -0.1459431E-11
 0.1090000E+00 -0.1678864E-11
 0.1094200E+00 -0.1831990E-11
 0.1098400E+00 -0.1895798E-11
 0.1102600E+00 -0.1848614E-11
 0.1106800E+00 -0.1671736E-11
 0.1111000E+00 -0.1351194E-11
 0.1115200E+00 -0.8795310E-12
 0.1119400E+00 -0.2574992E-12
 0.1123600E+00  0.5044437E-12
 0.1127800E+00  0.1384977E-11
 0.1132000E+00  0.2351218E-11
 0.1136200E+00  0.3358632E-11
 0.1140400E+00  0.4351634E-11
 0.1144600E+00  0.5264997E-11
 0.1148800E+00  0.6026104E-11
 0.1153000E+00  0.6558067E-11
 0.1157200E+00  0.6783683E-11
 0.1161400E+00  0.6630116E-11
 0.1165600E+00  0.6034163E-11
 0.1169800E+00  0.4947891E-11
 0.1174000E+00  0.3344363E-11
 0.1178200E+00  0.1223125E-11
 0.1182400E+00 -0.1384919E-11
 0.1186600E+00 -0.4413624E-11
 0.1190800E+00 -0.7759141E-11
 0.1195000E+00 -0.1127927E-10
 0.1199200E+00 -0.1479495E-10
 0.1203400E+00 -0.1809421E-10
 0.1207600E+00 -0.2093878E-10
 0.1211800E+00 -0.2307336E-10
 0.1216000E+00 -0.2423760E-10
 0.1220200E+00 -0.2418048E-10
 0.1224400E+00 -0.2267659E-10
 0.1228600E+00 -0.1954392E-10
 0.1232800E+00 -0.1466218E-10
 0.1237000E+00 -0.7990763E-11
 0.1241200E+00  0.4145864E-12
 0.1245400E+00  0.1038788E-10
 0.1249600E+00  0.2164275E-10
 0.1253800E+00  0.3376740E-10
 0.1258000E+00  0.4622584E-10
 0.1262200E+00  0.5836622E-10
 0.1266400E+00  0.6943720E-10
 0.1270600E+00  0.7861273E-10
 0.1274800E+00  0.8502522E-10
 0.1279000E+00  0.8780664E-10
 0.1283200E+00  0.8613697E-10
 0.1287400E+00  0.7929785E-10
 0.1291600E+00  0.6673025E-10
 0.1295800E+00  0.4809281E-10
 0.1300000E+00  0.2331855E-10
 0.1304200E+00 -0.7333914E-11
 0.1308400E+00 -0.4323820E-10
 0.1312600E+00 -0.8337064E-10
 0.1316800E+00 -0.1262972E-09
 0.1321000E+00 -0.1701803E-09
 0.1325200E+00 -0.2128084E-09
 0.1329400E+00 -0.2516502E-09
 0.1333600E+00 -0.2839352E-09
 0.1337800E+00 -0.3067601E-09
 0.1342000E+00 -0.3172200E-09
 0.1346200E+00 -0.3125613E-09
 0.1350400E+00 -0.2903523E-09
 0.1354600E+00 -0.2486646E-09
 0.1358800E+00 -0.1862586E-09
 0.1363000E+00 -0.1027635E-09
 0.1367200E+00  0.1157586E-11
 0.1371400E+00  0.1236695E-09
 0.1375600E+00  0.2616632E-09
 0.1379800E+00  0.4107034E-09
 0.1384000E+00  0.5650337E-09
 0.1388200E+00  0.7176510E-09
 0.1392400E+00  0.8604541E-09
 0.1396600E+00  0.9844706E-09
 0.1400800E+00  0.1080164E-08
 0.1405000E+00  0.1137817E-08
 0.1409200E+00  0.1147989E-08
 0.1413400E+00  0.1102025E-08
 0.1417600E+00  0.9926137E-09
 0.1421800E+00  0.8143612E-09
 0.1426000E+00  0.5643691E-09
 0.1430200E+00  0.2427763E-09
 0.1434400E+00 -0.1467605E-09
 0.1438600E+00 -0.5966809E-09
 0.1442800E+00 -0.1095261E-08
 0.1447000E+00 -0.1626510E-08
 0.1451200E+00 -0.2170261E-08
 0.1455400E+00 -0.2702464E-08
 0.1459600E+00 -0.3195714E-08
 0.1463800E+00 -0.3620014E-08
 0.1468000E+00 -0.3943774E-08
 0.1472200E+00 -0.4135043E-08
 0.1476400E+00 -0.4162930E-08
 0.1480600E+00 -0.3999205E-08
 0.1484800E+00 -0.3620007E-08
 0.1489000E+00 -0.3007611E-08
 0.1493200E+00 -0.2152187E-08
 0.1497400E+00 -0.1053451E-08
 0.1501600E+00  0.2778603E-09
 0.1505800E+00  0.1818806E-08
 0.1510000E+00  0.3533408E-08
 0.1514200E+00  0.5372276E-08
 0.1518400E+00  0.7272799E-08
 0.1522600E+00  0.9159905E-08
 0.1526800E+00  0.1094750E-07
 0.1531000E+00  0.1254059E-07
 0.1535200E+00  0.1383809E-07
 0.1539400E+00  0.1473627E-07
 0.1543600E+00  0.1513285E-07
 0.1547800E+00  0.1493158E-07
 0.1552000E+00  0.1404720E-07
 0.1556200E+00  0.1241064E-07
 0.1560400E+00  0.9974295E-08
 0.1564600E+00  0.6717057E-08
 0.1568800E+00  0.2649025E-08
 0.1573000E+00 -0.2184487E-08
 0.1577200E+00 -0.7699798E-08
 0.1581400E+00 -0.1377291E-07
 0.1585600E+00 -0.2023884E-07
 0.1589800E+00 -0.2689259E-07
 0.1594000E+00 -0.3349180E-07
 0.1598200E+00 -0.3976132E-07
 0.1602400E+00 -0.4539955E-07
 0.1606600E+00 -0.5008684E-07
 0.1610800E+00 -0.5349550E-07
 0.1615000E+00 -0.5530150E-07
 0.1619200E+00 -0.5519752E-07
 0.1623400E+00 -0.5290705E-07
 0.1627600E+00 -0.4819904E-07
 0.1631800E+00 -0.4090271E-07
 0.1636000E+00 -0.3092184E-07
 0.1640200E+00 -0.1824822E-07
 0.1644400E+00 -0.2973237E-08
 0.1648600E+00  0.1470265E-07
 0.1652800E+00  0.3446325E-07
 0.1657000E+00  0.5587356E-07
 0.1661200E+00  0.7838067E-07
 0.1665400E+00  0.1013188E-06
 0.1669600E+00  0.1239191E-06
 0.1673800E+00  0.1453246E-06
 0.1678000E+00  0.1646097E-06
 0.1682200E+00  0.1808033E-06
 0.1686400E+00  0.1929190E-06
 0.1690600E+00  0.1999863E-06
 0.1694800E+00  0.2010863E-06
 0.1699000E+00  0.1953891E-06
 0.1703200E+00  0.1821936E-06
 0.1707400E+00  0.1609667E-06
 0.1711600E+00  0.1313808E-06
 0.1715800E+00  0.9334912E-07
 0.1720000E+00  0.4705828E-07
 0.1724200E+00 -0.7004528E-08
 0.1728400E+00 -0.6803158E-07
 0.1732600E+00 -0.1348799E-06
 0.1736800E+00 -0.2060663E-06
 0.1741000E+00 -0.2797715E-06
 0.1745200E+00 -0.3538508E-06
 0.1749400E+00 -0.4258563E-06
 0.1753600E+00 -0.4930689E-06
 0.1757800E+00 -0.5525383E-06
 0.1762000E+00 -0.6011274E-06
 0.1766200E+00 -0.6355678E-06
 0.1770400E+00 -0.6525179E-06
 0.1774600E+00 -0.6486229E-06
 0.1778800E+00 -0.6205756E-06
 0.1783000E+00 -0.5651750E-06
 0.1787200E+00 -0.4793820E-06
 0.1791400E+00 -0.3603695E-06
 0.1795600E+00 -0.2055650E-06
 0.1799800E+00 -0.1268098E-07
 0.1804000E+00  0.2202946E-06
 0.1808200E+00  0.4950820E-06
 0.1812400E+00  0.8131377E-06
 0.1816600E+00  0.1175710E-05
 0.1820800E+00  0.1583878E-05
 0.1825000E+00  0.2038647E-05
 0.1829200E+00  0.2541077E-05
 0.1833400E+00  0.3092390E-05
 0.1837600E+00  0.3694109E-05
 0.1841800E+00  0.4348256E-05
 0.1846000E+00  0.5057499E-05
 0.1850200E+00  0.5825359E-05
 0.1854400E+00  0.6656440E-05
 0.1858600E+00  0.7556634E-05
 0.1862800E+00  0.8533342E-05
 0.1867000E+00  0.9595698E-05
 0.1871200E+00  0.1075477E-04
 0.1875400E+00  0.1202383E-04
 0.1879600E+00  0.1341856E-04
 0.1883800E+00  0.1495723E-04
 0.1888000E+00  0.1666096E-04
 0.1892200E+00  0.1855382E-04
 0.1896400E+00  0.2066319E-04
 0.1900600E+00  0.2301974E-04
 0.1904800E+00  0.2565771E-04
 0.1909000E+00  0.2861507E-04
 0.1913200E+00  0.3193366E-04
 0.1917400E+00  0.3565935E-04
 0.1921600E+00  0.3984242E-04
 0.1925800E+00  0.4453759E-04
 0.1930000E+00  0.4980423E-04
 0.1934200E+00  0.5570664E-04
 0.1938400E+00  0.6231412E-04
 0.1942600E+00  0.6970169E-04
 0.1946800E+00  0.7794990E-04
 0.1951000E+00  0.8714542E-04
 0.1955200E+00  0.9738191E-04
 0.1959400E+00  0.1087603E-03
 0.1963600E+00  0.1213882E-03
 0.1967800E+00  0.1353818E-03
 0.1972000E+00  0.1508664E-03
 0.1976200E+00  0.1679762E-03
 0.1980400E+00  0.1868541E-03
 0.1984600E+00  0.2076551E-03
 0.1988800E+00  0.2305450E-03
 0.1993000E+00  0.2557005E-03
 0.1997200E+00  0.2833112E-03
 0.2001400E+00  0.3135810E-03
 0.2005600E+00  0.3467283E-03
 0.2009800E+00  0.3829837E-03
 0.2014000E+00  0.4225946E-03
 0.2018200E+00  0.4658236E-03
 0.2022400E+00  0.5129489E-03
 0.2026600E+00  0.5642654E-03
 0.2030800E+00  0.6200843E-03
 0.2035000E+00  0.6807345E-03
 0.2039200E+00  0.7465612E-03
 0.2043400E+00  0.8179256E-03
 0.2047600E+00  0.8952047E-03
 0.2051800E+00  0.9787928E-03
 0.2056000E+00  0.1069100E-02
 0.2060200E+00  0.1166548E-02
 0.2064400E+00  0.1271571E-02
 0.2068600E+00  0.1384615E-02
 0.2072800E+00  0.1506145E-02
 0.2077000E+00  0.1636628E-02
 0.2081200E+00  0.1776536E-02
 0.2085400E+00  0.1926352E-02
 0.2089600E+00  0.2086557E-02
 0.2093800E+00  0.2257633E-02
 0.2098000E+00  0.2440056E-02
 0.2102200E+00  0.2634301E-02
 0.2106400E+00  0.2840826E-02
 0.2110600E+00  0.3060079E-02
 0.2114800E+00  0.3292495E-02
 0.2119000E+00  0.3538474E-02
 0.2123200E+00  0.3798390E-02
 0.2127400E+00  0.4072575E-02
 0.2131600E+00  0.4361331E-02
 0.2135800E+00  0.4664916E-02
 0.2140000E+00  0.4983513E-02
 0.2144200E+00  0.5317260E-02
 0.2148400E+00  0.5666227E-02
 0.2152600E+00  0.6030433E-02
 0.2156800E+00  0.6409827E-02
 0.2161000E+00  0.6804214E-02
 0.2165200E+00  0.7213322E-02
 0.2169400E+00  0.7636789E-02
 0.2173600E+00  0.8074125E-02
 0.2177800E+00  0.8524676E-02
 0.2182000E+00  0.8987703E-02
 0.2186200E+00  0.9462340E-02
 0.2190400E+00  0.9947533E-02
 0.2194600E+00  0.1044205E-01
 0.2198800E+00  0.1094454E-01
 0.2203000E+00  0.1145347E-01
 0.2207200E+00  0.1196717E-01
 0.2211400E+00  0.1248371E-01
 0.2215600E+00  0.1300099E-01
 0.2219800E+00  0.1351672E-01
 0.2224000E+00  0.1402843E-01
 0.2228200E+00  0.1453346E-01
 0.2232400E+00  0.1502897E-01
 0.2236600E+00  0.1551180E-01
 0.2240800E+00  0.1597865E-01
 0.2245000E+00  0.1642604E-01
 0.2249200E+00  0.1685032E-01
 0.2253400E+00  0.1724763E-01
 0.2257600E+00  0.1761392E-01
 0.2261800E+00  0.1794502E-01
 0.2266000E+00  0.1823660E-01
 0.2270200E+00  0.1848416E-01
 0.2274400E+00  0.1868319E-01
 0.2278600E+00  0.1882893E-01
 0.2282800E+00  0.1891663E-01
 0.2287000E+00  0.1894142E-01
 0.2291200E+00  0.1889841E-01
 0.2295400E+00  0.1878268E-01
 0.2299600E+00  0.1858928E-01
 0.2303800E+00  0.1831345E-01
 0.2308000E+00  0.1795048E-01
 0.2312200E+00  0.1749584E-01
 0.2316400E+00  0.1694503E-01
 0.2320600E+00  0.1629376E-01
 0.2324800E+00  0.1553814E-01
 0.2329000E+00  0.1467451E-01
 0.2333200E+00  0.1369949E-01
 0.2337400E+00  0.1261004E-01
 0.2341600E+00  0.1140368E-01
 0.2345800E+00  0.1007815E-01
 0.2350000E+00  0.8631748E-02
 0.2354200E+00  0.7063531E-02
 0.2358400E+00  0.5372821E-02
 0.2362600E+00  0.3559610E-02
 0.2366800E+00  0.1624603E-02
 0.2371000E+00 -0.4309381E-03
 0.2375200E+00 -0.2604761E-02
 0.2379400E+00 -0.4894029E-02
 0.2383600E+00 -0.7295149E-02
 0.2387800E+00 -0.9803725E-02
 0.2392000E+00 -0.1241462E-01
 0.2396200E+00 -0.1512171E-01
 0.2400400E+00 -0.1791819E-01
 0.2404600E+00 -0.2079645E-01
 0.2408800E+00 -0.2374780E-01
 0.2413000E+00 -0.2676287E-01
 0.2417200E+00 -0.2983154E-01
 0.2421400E+00 -0.3294275E-01
 0.2425600E+00 -0.3608473E-01
 0.2429800E+00 -0.3924506E-01
 0.2434000E+00 -0.4241071E-01
 0.2438200E+00 -0.4556787E-01
 0.2442400E+00 -0.4870218E-01
 0.2446600E+00 -0.5179883E-01
 0.2450800E+00 -0.5484249E-01
 0.2455000E+00 -0.5781751E-01
 0.2459200E+00 -0.6070795E-01
 0.2463400E+00 -0.6349752E-01
 0.2467600E+00 -0.6616987E-01
 0.2471800E+00 -0.6870870E-01
 0.2476000E+00 -0.7109787E-01
 0.2480200E+00 -0.7332117E-01
 0.2484400E+00 -0.7536268E-01
 0.2488600E+00 -0.7720687E-01
 0.2492800E+00 -0.7883856E-01
 0.2497000E+00 -0.8024318E-01
 0.2501200E+00 -0.8140685E-01
 0.2505400E+00 -0.8231644E-01
 0.2509600E+00 -0.8295976E-01
 0.2513800E+00 -0.8332542E-01
 0.2518000E+00 -0.8340330E-01
 0.2522200E+00 -0.8318517E-01
 0.2526400E+00 -0.8266364E-01
 0.2530600E+00 -0.8183237E-01
 0.2534800E+00 -0.8068663E-01
 0.2539000E+00 -0.7922330E-01
 0.2543200E+00 -0.7744054E-01
 0.2547400E+00 -0.7533776E-01
 0.2551600E+00 -0.7291636E-01
 0.2555800E+00 -0.7017932E-01
 0.2560000E+00 -0.6713104E-01
 0.2564200E+00 -0.6377797E-01
 0.2568400E+00 -0.6012856E-01
 0.2572600E+00 -0.5619314E-01
 0.2576800E+00 -0.5198353E-01
 0.2581000E+00 -0.4751293E-01
 0.2585200E+00 -0.4279623E-01
 0.2589400E+00 -0.3784999E-01
 0.2593600E+00 -0.3269189E-01
 0.2597800E+00 -0.2734093E-01
 0.2602000E+00 -0.2181732E-01
 0.2606200E+00 -0.1614242E-01
 0.2610400E+00 -0.1033885E-01
 0.2614600E+00 -0.4430090E-02
 0.2618800E+00  0.1559416E-02
 0.2623000E+00  0.7604598E-02
 0.2627200E+00  0.1367994E-01
 0.2631400E+00  0.1975936E-01
 0.2635600E+00  0.2581630E-01
 0.2639800E+00  0.3182437E-01
 0.2644000E+00  0.3775743E-01
 0.2648200E+00  0.4358931E-01
 0.2652400E+00  0.4929443E-01
 0.2656600E+00  0.5484766E-01
 0.2660800E+00  0.6022448E-01
 0.2665000E+00  0.6540148E-01
 0.2669200E+00  0.7035623E-01
 0.2673400E+00  0.7506731E-01
 0.2677600E+00  0.7951406E-01
 0.2681800E+00  0.8367727E-01
 0.2686000E+00  0.8753967E-01
 0.2690200E+00  0.9108525E-01
 0.2694400E+00  0.9429964E-01
 0.2698600E+00  0.9717053E-01
 0.2702800E+00  0.9968700E-01
 0.2707000E+00  0.1018401E+00
 0.2711200E+00  0.1036228E+00
 0.2715400E+00  0.1050298E+00
 0.2719600E+00  0.1060576E+00
 0.2723800E+00  0.1067047E+00
 0.2728000E+00  0.1069718E+00
 0.2732200E+00  0.1068620E+00
 0.2736400E+00  0.1063795E+00
 0.2740600E+00  0.1055306E+00
 0.2744800E+00  0.1043231E+00
 0.2749000E+00  0.1027669E+00
 0.2753200E+00  0.1008732E+00
 0.2757400E+00  0.9865550E-01
 0.2761600E+00  0.9612802E-01
 0.2765800E+00  0.9330612E-01
 0.2770000E+00  0.9020639E-01
 0.2774200E+00  0.8684712E-01
 0.2778400E+00  0.8324729E-01
 0.2782600E+00  0.7942716E-01
 0.2786800E+00  0.7540745E-01
 0.2791000E+00  0.7120900E-01
 0.2795200E+00  0.6685350E-01
 0.2799400E+00  0.6236303E-01
 0.2803600E+00  0.5775965E-01
 0.2807800E+00  0.5306555E-01
 0.2812000E+00  0.4830285E-01
 0.2816200E+00  0.4349343E-01
 0.2820400E+00  0.3865888E-01
 0.2824600E+00  0.3382041E-01
 0.2828800E+00  0.2899843E-01
 0.2833000E+00  0.2421301E-01
 0.2837200E+00  0.1948380E-01
 0.2841400E+00  0.1482925E-01
 0.2845600E+00  0.1026653E-01
 0.2849800E+00  0.5812164E-02
 0.2854000E+00  0.1481574E-02
 0.2858200E+00 -0.2710861E-02
 0.2862400E+00 -0.6752295E-02
 0.2866600E+00 -0.1063121E-01
 0.2870800E+00 -0.1433696E-01
 0.2875000E+00 -0.1786026E-01
 0.2879200E+00 -0.2119292E-01
 0.2883400E+00 -0.2432773E-01
 0.2887600E+00 -0.2725894E-01
 0.2891800E+00 -0.2998186E-01
 0.2896000E+00 -0.3249291E-01
 0.2900200E+00 -0.3478989E-01
 0.2904400E+00 -0.3687183E-01
 0.2908600E+00 -0.3873887E-01
 0.2912800E+00 -0.4039225E-01
 0.2917000E+00 -0.4183438E-01
 0.2921200E+00 -0.4306857E-01
 0.2925400E+00 -0.4409898E-01
 0.2929600E+00 -0.4493065E-01
 0.2933800E+00 -0.4556919E-01
 0.2938000E+00 -0.4602086E-01
 0.2942200E+00 -0.4629290E-01
 0.2946400E+00 -0.4639297E-01
 0.2950600E+00 -0.4632898E-01
 0.2954800E+00 -0.4610949E-01
 0.2959000E+00 -0.4574334E-01
 0.2963200E+00 -0.4523957E-01
 0.2967400E+00 -0.4460746E-01
 0.2971600E+00 -0.4385630E-01
 0.2975800E+00 -0.4299540E-01
 0.2980000E+00 -0.4203419E-01
 0.2984200E+00 -0.4098209E-01
 0.2988400E+00 -0.3984850E-01
 0.2992600E+00 -0.3864273E-01
 0.2996800E+00 -0.3737416E-01
 0.3001000E+00 -0.3605200E-01
 0.3005200E+00 -0.3468513E-01
 0.3009400E+00 -0.3328215E-01
 0.3013600E+00 -0.3185119E-01
 0.3017800E+00 -0.3039996E-01
 0.3022000E+00 -0.2893569E-01
 0.3026200E+00 -0.2746509E-01
 0.3030400E+00 -0.2599428E-01
 0.3034600E+00 -0.2452908E-01
 0.3038800E+00 -0.2307503E-01
 0.3043000E+00 -0.2163734E-01
 0.3047200E+00 -0.2022101E-01
 0.3051400E+00 -0.1883068E-01
 0.3055600E+00 -0.1747064E-01
 0.3059800E+00 -0.1614483E-01
 0.3064000E+00 -0.1485669E-01
 0.3068200E+00 -0.1360918E-01
 0.3072400E+00 -0.1240457E-01
 0.3076600E+00 -0.1124464E-01
 0.3080800E+00 -0.1013082E-01
 0.3085000E+00 -0.9064163E-02
 0.3089200E+00 -0.8045360E-02
 0.3093400E+00 -0.7074903E-02
 0.3097600E+00 -0.6153123E-02
 0.3101800E+00 -0.5280229E-02
 0.3106000E+00 -0.4456168E-02
 0.3110200E+00 -0.3680644E-02
 0.3114400E+00 -0.2953139E-02
 0.3118600E+00 -0.2272970E-02
 0.3122800E+00 -0.1639269E-02
 0.3127000E+00 -0.1050952E-02
 0.3131200E+00 -0.5067671E-03
 0.3135400E+00 -0.5408696E-05
 0.3139600E+00  0.4544867E-03
 0.3143800E+00  0.8744220E-03
 0.3148000E+00  0.1255977E-02
 0.3152200E+00  0.1600849E-02
 0.3156400E+00  0.1910838E-02
 0.3160600E+00  0.2187813E-02
 0.3164800E+00  0.2433707E-02
 0.3169000E+00  0.2650493E-02
 0.3173200E+00  0.2840070E-02
 0.3177400E+00  0.3004255E-02
 0.3181600E+00  0.3144737E-02
 0.3185800E+00  0.3262964E-02
 0.3190000E+00  0.3360244E-02
 0.3194200E+00  0.3437865E-02
 0.3198400E+00  0.3497114E-02
 0.3202600E+00  0.3539250E-02
 0.3206800E+00  0.3565605E-02
 0.3211000E+00  0.3577614E-02
 0.3215200E+00  0.3576791E-02
 0.3219400E+00  0.3564664E-02
 0.3223600E+00  0.3542637E-02
 0.3227800E+00  0.3511996E-02
 0.3232000E+00  0.3473807E-02
 0.3236200E+00  0.3428844E-02
 0.3240400E+00  0.3377728E-02
 0.3244600E+00  0.3320940E-02
 0.3248800E+00  0.3258898E-02
 0.3253000E+00  0.3192070E-02
 0.3257200E+00  0.3121015E-02
 0.3261400E+00  0.3046401E-02
 0.3265600E+00  0.2969030E-02
 0.3269800E+00  0.2889795E-02
 0.3274000E+00  0.2809558E-02
 0.3278200E+00  0.2729064E-02
 0.3282400E+00  0.2648916E-02
 0.3286600E+00  0.2569519E-02
 0.3290800E+00  0.2491070E-02
 0.3295000E+00  0.2413612E-02
 0.3299200E+00  0.2337075E-02
 0.3303400E+00  0.2261339E-02
 0.3307600E+00  0.2186314E-02
 0.3311800E+00  0.2112005E-02
 0.3316000E+00  0.2038496E-02
 0.3320200E+00  0.1965907E-02
 0.3324400E+00  0.1894404E-02
 0.3328600E+00  0.1824189E-02
 0.3332800E+00  0.1755464E-02
 0.3337000E+00  0.1688359E-02
 0.3341200E+00  0.1623003E-02
 0.3345400E+00  0.1559491E-02
 0.3349600E+00  0.1497877E-02
 0.3353800E+00  0.1438213E-02
 0.3358000E+00  0.1380513E-02
 0.3362200E+00  0.1324774E-02
 0.3366400E+00  0.1270950E-02
 0.3370600E+00  0.1218936E-02
 0.3374800E+00  0.1168594E-02
 0.3379000E+00  0.1119751E-02
 0.3383200E+00  0.1072251E-02
 0.3387400E+00  0.1025975E-02
 0.3391600E+00  0.9808752E-03
 0.3395800E+00  0.9370341E-03