  -8.0000000000000000          0.0000000000000000     
  -7.9800000000000004          0.0000000000000000     
  -7.9600000000000000          0.0000000000000000     
  -7.9400000000000004          0.0000000000000000     
  -7.9199999999999999          0.0000000000000000     
  -7.9000000000000004          0.0000000000000000     
  -7.8799999999999999          0.0000000000000000     
  -7.8600000000000003          0.0000000000000000     
  -7.8399999999999999          0.0000000000000000     
  -7.8200000000000003          0.0000000000000000     
  -7.7999999999999998          0.0000000000000000     
  -7.7800000000000002          0.0000000000000000     
  -7.7599999999999998          0.0000000000000000     
  -7.7400000000000002          0.0000000000000000     
  -7.7199999999999998          0.0000000000000000     
  -7.7000000000000002          0.0000000000000000     
  -7.6799999999999997          0.0000000000000000     
  -7.6600000000000001          0.0000000000000000     
  -7.6399999999999997          0.0000000000000000     
  -7.6200000000000001          0.0000000000000000     
  -7.5999999999999996          0.0000000000000000     
  -7.5800000000000001          0.0000000000000000     
  -7.5599999999999996          0.0000000000000000     
  -7.5400000000000000          0.0000000000000000     
  -7.5199999999999996          0.0000000000000000     
  -7.5000000000000000          0.0000000000000000     
  -7.4800000000000004          0.0000000000000000     
  -7.4600000000000000          0.0000000000000000     
  -7.4399999999999995          0.0000000000000000     
  -7.4199999999999999          0.0000000000000000     
  -7.4000000000000004          0.0000000000000000     
  -7.3799999999999999          0.0000000000000000     
  -7.3600000000000003          0.0000000000000000     
  -7.3399999999999999          0.0000000000000000     
  -7.3200000000000003          0.0000000000000000     
  -7.2999999999999998          0.0000000000000000     
  -7.2800000000000002          0.0000000000000000     
  -7.2599999999999998          0.0000000000000000     
  -7.2400000000000002          0.0000000000000000     
  -7.2199999999999998          0.0000000000000000     
  -7.2000000000000002          0.0000000000000000     
  -7.1799999999999997          0.0000000000000000     
  -7.1600000000000001          0.0000000000000000     
  -7.1399999999999997          0.0000000000000000     
  -7.1200000000000001          0.0000000000000000     
  -7.0999999999999996          0.0000000000000000     
  -7.0800000000000001          0.0000000000000000     
  -7.0599999999999996          0.0000000000000000     
  -7.0400000000000000          0.0000000000000000     
  -7.0199999999999996          0.0000000000000000     
  -7.0000000000000000          0.0000000000000000     
  -6.9800000000000004          0.0000000000000000     
  -6.9600000000000000          0.0000000000000000     
  -6.9399999999999995          0.0000000000000000     
  -6.9199999999999999          0.0000000000000000     
  -6.9000000000000004          0.0000000000000000     
  -6.8799999999999999          0.0000000000000000     
  -6.8599999999999994          0.0000000000000000     
  -6.8399999999999999          0.0000000000000000     
  -6.8200000000000003          0.0000000000000000     
  -6.7999999999999998          0.0000000000000000     
  -6.7800000000000002          0.0000000000000000     
  -6.7599999999999998          0.0000000000000000     
  -6.7400000000000002          0.0000000000000000     
  -6.7199999999999998          0.0000000000000000     
  -6.7000000000000002          0.0000000000000000     
  -6.6799999999999997          0.0000000000000000     
  -6.6600000000000001          0.0000000000000000     
  -6.6399999999999997          0.0000000000000000     
  -6.6200000000000001          0.0000000000000000     
  -6.5999999999999996          0.0000000000000000     
  -6.5800000000000001          0.0000000000000000     
  -6.5600000000000005          0.0000000000000000     
  -6.5400000000000000          0.0000000000000000     
  -6.5199999999999996          0.0000000000000000     
  -6.5000000000000000          0.0000000000000000     
  -6.4800000000000004          0.0000000000000000     
  -6.4600000000000000          0.0000000000000000     
  -6.4399999999999995          0.0000000000000000     
  -6.4199999999999999          0.0000000000000000     
  -6.4000000000000004          0.0000000000000000     
  -6.3799999999999999          0.0000000000000000     
  -6.3599999999999994          0.0000000000000000     
  -6.3399999999999999          0.0000000000000000     
  -6.3200000000000003          0.0000000000000000     
  -6.2999999999999998          0.0000000000000000     
  -6.2800000000000002          0.0000000000000000     
  -6.2599999999999998          0.0000000000000000     
  -6.2400000000000002          0.0000000000000000     
  -6.2199999999999998          0.0000000000000000     
  -6.2000000000000002          0.0000000000000000     
  -6.1799999999999997          0.0000000000000000     
  -6.1600000000000001          0.0000000000000000     
  -6.1399999999999997          0.0000000000000000     
  -6.1200000000000001          0.0000000000000000     
  -6.0999999999999996          0.0000000000000000     
  -6.0800000000000001          0.0000000000000000     
  -6.0600000000000005          0.0000000000000000     
  -6.0400000000000000          0.0000000000000000     
  -6.0199999999999996          0.0000000000000000     
  -6.0000000000000000          0.0000000000000000     
  -5.9800000000000004          0.0000000000000000     
  -5.9600000000000000          0.0000000000000000     
  -5.9399999999999995          0.0000000000000000     
  -5.9199999999999999          0.0000000000000000     
  -5.9000000000000004          0.0000000000000000     
  -5.8799999999999999          0.0000000000000000     
  -5.8599999999999994          0.0000000000000000     
  -5.8399999999999999          0.0000000000000000     
  -5.8200000000000003          0.0000000000000000     
  -5.7999999999999998          0.0000000000000000     
  -5.7799999999999994          0.0000000000000000     
  -5.7599999999999998          0.0000000000000000     
  -5.7400000000000002          0.0000000000000000     
  -5.7199999999999998          0.0000000000000000     
  -5.6999999999999993          0.0000000000000000     
  -5.6799999999999997          0.0000000000000000     
  -5.6600000000000001          0.0000000000000000     
  -5.6400000000000006          0.0000000000000000     
  -5.6200000000000001          0.0000000000000000     
  -5.5999999999999996          0.0000000000000000     
  -5.5800000000000001          0.0000000000000000     
  -5.5600000000000005          0.0000000000000000     
  -5.5400000000000000          0.0000000000000000     
  -5.5199999999999996          0.0000000000000000     
  -5.5000000000000000          0.0000000000000000     
  -5.4800000000000004          0.0000000000000000     
  -5.4600000000000000          0.0000000000000000     
  -5.4399999999999995          0.0000000000000000     
  -5.4199999999999999          0.0000000000000000     
  -5.4000000000000004          0.0000000000000000     
  -5.3799999999999999          0.0000000000000000     
  -5.3599999999999994          0.0000000000000000     
  -5.3399999999999999          0.0000000000000000     
  -5.3200000000000003          0.0000000000000000     
  -5.2999999999999998          0.0000000000000000     
  -5.2799999999999994          0.0000000000000000     
  -5.2599999999999998          0.0000000000000000     
  -5.2400000000000002          0.0000000000000000     
  -5.2199999999999998          0.0000000000000000     
  -5.1999999999999993          0.0000000000000000     
  -5.1799999999999997          0.0000000000000000     
  -5.1600000000000001          0.0000000000000000     
  -5.1400000000000006          0.0000000000000000     
  -5.1200000000000001          0.0000000000000000     
  -5.0999999999999996          0.0000000000000000     
  -5.0800000000000001          0.0000000000000000     
  -5.0600000000000005          0.0000000000000000     
  -5.0400000000000000          0.0000000000000000     
  -5.0199999999999996          0.0000000000000000     
  -5.0000000000000000          0.0000000000000000     
  -4.9800000000000004          0.0000000000000000     
  -4.9600000000000000          0.0000000000000000     
  -4.9399999999999995          0.0000000000000000     
  -4.9199999999999999          0.0000000000000000     
  -4.9000000000000004          0.0000000000000000     
  -4.8799999999999999          0.0000000000000000     
  -4.8599999999999994          0.0000000000000000     
  -4.8399999999999999          0.0000000000000000     
  -4.8200000000000003          0.0000000000000000     
  -4.7999999999999998          0.0000000000000000     
  -4.7799999999999994          0.0000000000000000     
  -4.7599999999999998          0.0000000000000000     
  -4.7400000000000002          0.0000000000000000     
  -4.7199999999999998          0.0000000000000000     
  -4.6999999999999993          0.0000000000000000     
  -4.6799999999999997          0.0000000000000000     
  -4.6600000000000001          0.0000000000000000     
  -4.6400000000000006          0.0000000000000000     
  -4.6200000000000001          0.0000000000000000     
  -4.5999999999999996          0.0000000000000000     
  -4.5800000000000001          0.0000000000000000     
  -4.5600000000000005          0.0000000000000000     
  -4.5400000000000000          0.0000000000000000     
  -4.5199999999999996          0.0000000000000000     
  -4.5000000000000000          0.0000000000000000     
  -4.4800000000000004          0.0000000000000000     
  -4.4600000000000000          0.0000000000000000     
  -4.4399999999999995          0.0000000000000000     
  -4.4199999999999999          0.0000000000000000     
  -4.4000000000000004          0.0000000000000000     
  -4.3799999999999999          0.0000000000000000     
  -4.3599999999999994          0.0000000000000000     
  -4.3399999999999999          0.0000000000000000     
  -4.3200000000000003          0.0000000000000000     
  -4.2999999999999998          0.0000000000000000     
  -4.2799999999999994          0.0000000000000000     
  -4.2599999999999998          0.0000000000000000     
  -4.2400000000000002          0.0000000000000000     
  -4.2199999999999998          0.0000000000000000     
  -4.1999999999999993          0.0000000000000000     
  -4.1799999999999997          0.0000000000000000     
  -4.1600000000000001          0.0000000000000000     
  -4.1400000000000006          0.0000000000000000     
  -4.1200000000000001          0.0000000000000000     
  -4.0999999999999996          0.0000000000000000     
  -4.0800000000000001          0.0000000000000000     
  -4.0600000000000005          0.0000000000000000     
  -4.0400000000000000          0.0000000000000000     
  -4.0199999999999996          0.0000000000000000     
  -4.0000000000000000          0.0000000000000000     
  -3.9799999999999995          0.0000000000000000     
  -3.9600000000000000          0.0000000000000000     
  -3.9399999999999995          0.0000000000000000     
  -3.9199999999999999          0.0000000000000000     
  -3.9000000000000004          0.0000000000000000     
  -3.8799999999999999          0.0000000000000000     
  -3.8600000000000003          0.0000000000000000     
  -3.8399999999999999          0.0000000000000000     
  -3.8200000000000003          0.0000000000000000     
  -3.7999999999999998          0.0000000000000000     
  -3.7800000000000002          0.0000000000000000     
  -3.7599999999999998          0.0000000000000000     
  -3.7400000000000002          0.0000000000000000     
  -3.7199999999999998          0.0000000000000000     
  -3.7000000000000002          0.0000000000000000     
  -3.6799999999999997          0.0000000000000000     
  -3.6600000000000001          0.0000000000000000     
  -3.6399999999999997          0.0000000000000000     
  -3.6200000000000001          0.0000000000000000     
  -3.5999999999999996          0.0000000000000000     
  -3.5800000000000001          0.0000000000000000     
  -3.5599999999999996          0.0000000000000000     
  -3.5400000000000000          0.0000000000000000     
  -3.5199999999999996          0.0000000000000000     
  -3.5000000000000000          0.0000000000000000     
  -3.4799999999999995          0.0000000000000000     
  -3.4600000000000000          0.0000000000000000     
  -3.4399999999999995          0.0000000000000000     
  -3.4199999999999999          0.0000000000000000     
  -3.3999999999999995          0.0000000000000000     
  -3.3799999999999999          0.0000000000000000     
  -3.3600000000000003          0.0000000000000000     
  -3.3399999999999999          0.0000000000000000     
  -3.3200000000000003          0.0000000000000000     
  -3.2999999999999998          0.0000000000000000     
  -3.2800000000000002          0.0000000000000000     
  -3.2599999999999998          0.0000000000000000     
  -3.2400000000000002          0.0000000000000000     
  -3.2199999999999998          0.0000000000000000     
  -3.2000000000000002          0.0000000000000000     
  -3.1799999999999997          0.0000000000000000     
  -3.1600000000000001          0.0000000000000000     
  -3.1399999999999997          0.0000000000000000     
  -3.1200000000000001          0.0000000000000000     
  -3.0999999999999996          0.0000000000000000     
  -3.0800000000000001          0.0000000000000000     
  -3.0599999999999996          0.0000000000000000     
  -3.0400000000000000          0.0000000000000000     
  -3.0199999999999996          0.0000000000000000     
  -3.0000000000000000          0.0000000000000000     
  -2.9799999999999995          0.0000000000000000     
  -2.9600000000000000          0.0000000000000000     
  -2.9399999999999995          0.0000000000000000     
  -2.9199999999999999          0.0000000000000000     
  -2.8999999999999995          0.0000000000000000     
  -2.8799999999999999          0.0000000000000000     
  -2.8600000000000003          0.0000000000000000     
  -2.8399999999999999          0.0000000000000000     
  -2.8200000000000003          0.0000000000000000     
  -2.7999999999999998          0.0000000000000000     
  -2.7800000000000002          0.0000000000000000     
  -2.7599999999999998          0.0000000000000000     
  -2.7400000000000002          0.0000000000000000     
  -2.7199999999999998          0.0000000000000000     
  -2.7000000000000002          0.0000000000000000     
  -2.6799999999999997          0.0000000000000000     
  -2.6600000000000001          0.0000000000000000     
  -2.6399999999999997          0.0000000000000000     
  -2.6200000000000001          0.0000000000000000     
  -2.5999999999999996          0.0000000000000000     
  -2.5800000000000001          0.0000000000000000     
  -2.5599999999999996          0.0000000000000000     
  -2.5400000000000000          0.0000000000000000     
  -2.5199999999999996          0.0000000000000000     
  -2.5000000000000000          0.0000000000000000     
  -2.4799999999999995          0.0000000000000000     
  -2.4600000000000000          0.0000000000000000     
  -2.4399999999999995          0.0000000000000000     
  -2.4199999999999999          0.0000000000000000     
  -2.3999999999999995          0.0000000000000000     
  -2.3799999999999999          0.0000000000000000     
  -2.3600000000000003          0.0000000000000000     
  -2.3399999999999999          0.0000000000000000     
  -2.3200000000000003          0.0000000000000000     
  -2.2999999999999998          0.0000000000000000     
  -2.2800000000000002          0.0000000000000000     
  -2.2599999999999998          0.0000000000000000     
  -2.2400000000000002          0.0000000000000000     
  -2.2199999999999998          0.0000000000000000     
  -2.2000000000000002          0.0000000000000000     
  -2.1799999999999997          0.0000000000000000     
  -2.1600000000000001          0.0000000000000000     
  -2.1399999999999997          0.0000000000000000     
  -2.1200000000000001          0.0000000000000000     
  -2.0999999999999996          0.0000000000000000     
  -2.0800000000000001          0.0000000000000000     
  -2.0599999999999996          0.0000000000000000     
  -2.0400000000000000          0.0000000000000000     
  -2.0199999999999996          0.0000000000000000     
  -2.0000000000000000          0.0000000000000000     
  -1.9799999999999995          0.0000000000000000     
  -1.9600000000000000          0.0000000000000000     
  -1.9399999999999995          0.0000000000000000     
  -1.9199999999999999          0.0000000000000000     
  -1.8999999999999995          0.0000000000000000     
  -1.8799999999999999          0.0000000000000000     
  -1.8599999999999994          0.0000000000000000     
  -1.8399999999999999          0.0000000000000000     
  -1.8200000000000003          0.0000000000000000     
  -1.7999999999999998          0.0000000000000000     
  -1.7800000000000002          0.0000000000000000     
  -1.7599999999999998          0.0000000000000000     
  -1.7400000000000002          0.0000000000000000     
  -1.7199999999999998          0.0000000000000000     
  -1.7000000000000002          0.0000000000000000     
  -1.6799999999999997          0.0000000000000000     
  -1.6600000000000001          0.0000000000000000     
  -1.6399999999999997          0.0000000000000000     
  -1.6200000000000001          0.0000000000000000     
  -1.5999999999999996          0.0000000000000000     
  -1.5800000000000001          0.0000000000000000     
  -1.5599999999999996          0.0000000000000000     
  -1.5400000000000000          0.0000000000000000     
  -1.5199999999999996          0.0000000000000000     
  -1.5000000000000000          0.0000000000000000     
  -1.4799999999999995          0.0000000000000000     
  -1.4600000000000000          0.0000000000000000     
  -1.4399999999999995          0.0000000000000000     
  -1.4199999999999999          0.0000000000000000     
  -1.3999999999999995          0.0000000000000000     
  -1.3799999999999999          0.0000000000000000     
  -1.3599999999999994          0.0000000000000000     
  -1.3399999999999999          0.0000000000000000     
  -1.3200000000000003          0.0000000000000000     
  -1.2999999999999998          0.0000000000000000     
  -1.2800000000000002          0.0000000000000000     
  -1.2599999999999998          0.0000000000000000     
  -1.2400000000000002          0.0000000000000000     
  -1.2199999999999998          0.0000000000000000     
  -1.2000000000000002          0.0000000000000000     
  -1.1799999999999997          0.0000000000000000     
  -1.1600000000000001          0.0000000000000000     
  -1.1399999999999997          0.0000000000000000     
  -1.1200000000000001          0.0000000000000000     
  -1.0999999999999996          0.0000000000000000     
  -1.0800000000000001          0.0000000000000000     
  -1.0599999999999996          0.0000000000000000     
  -1.0400000000000000          0.0000000000000000     
  -1.0199999999999996          0.0000000000000000     
  -1.0000000000000000          0.0000000000000000     
 -0.97999999999999954          0.0000000000000000     
 -0.95999999999999996          0.0000000000000000     
 -0.93999999999999950          0.0000000000000000     
 -0.91999999999999993          0.0000000000000000     
 -0.89999999999999947          0.0000000000000000     
 -0.87999999999999989          0.0000000000000000     
 -0.85999999999999943          0.0000000000000000     
 -0.83999999999999986          0.0000000000000000     
 -0.82000000000000028          0.0000000000000000     
 -0.79999999999999982          0.0000000000000000     
 -0.78000000000000025          0.0000000000000000     
 -0.75999999999999979          0.0000000000000000     
 -0.74000000000000021          0.0000000000000000     
 -0.71999999999999975          0.0000000000000000     
 -0.70000000000000018          0.0000000000000000     
 -0.67999999999999972          0.0000000000000000     
 -0.66000000000000014          0.0000000000000000     
 -0.63999999999999968          0.0000000000000000     
 -0.62000000000000011          0.0000000000000000     
 -0.59999999999999964          0.0000000000000000     
 -0.58000000000000007          0.0000000000000000     
 -0.55999999999999961          0.0000000000000000     
 -0.54000000000000004          0.0000000000000000     
 -0.51999999999999957          0.0000000000000000     
 -0.50000000000000000          0.0000000000000000     
 -0.47999999999999954          0.0000000000000000     
 -0.45999999999999996          0.0000000000000000     
 -0.43999999999999950          0.0000000000000000     
 -0.41999999999999993          0.0000000000000000     
 -0.39999999999999947          0.0000000000000000     
 -0.37999999999999989          0.0000000000000000     
 -0.35999999999999943          0.0000000000000000     
 -0.33999999999999986          0.0000000000000000     
 -0.32000000000000028          0.0000000000000000     
 -0.29999999999999982          0.0000000000000000     
 -0.28000000000000025          0.0000000000000000     
 -0.25999999999999979          0.0000000000000000     
 -0.24000000000000021          0.0000000000000000     
 -0.21999999999999975          0.0000000000000000     
 -0.20000000000000018          0.0000000000000000     
 -0.17999999999999972          0.0000000000000000     
 -0.16000000000000014          0.0000000000000000     
 -0.13999999999999968          0.0000000000000000     
 -0.12000000000000011          0.0000000000000000     
  -9.9999999999999645E-002     0.0000000000000000     
  -8.0000000000000071E-002     0.0000000000000000     
  -5.9999999999999609E-002     0.0000000000000000     
  -4.0000000000000036E-002     0.0000000000000000     
  -1.9999999999999574E-002     0.0000000000000000     
   0.0000000000000000          0.0000000000000000     
   1.9999999999999574E-002     0.0000000000000000     
   4.0000000000000924E-002     0.0000000000000000     
   6.0000000000000497E-002     0.0000000000000000     
   8.0000000000000071E-002     0.0000000000000000     
   9.9999999999999645E-002     0.0000000000000000     
  0.12000000000000099          0.0000000000000000     
  0.14000000000000057          0.0000000000000000     
  0.16000000000000014          0.0000000000000000     
  0.17999999999999972          0.0000000000000000     
  0.19999999999999929          0.0000000000000000     
  0.22000000000000064          0.0000000000000000     
  0.24000000000000021          0.0000000000000000     
  0.25999999999999979          0.0000000000000000     
  0.27999999999999936          0.0000000000000000     
  0.30000000000000071          0.0000000000000000     
  0.32000000000000028          0.0000000000000000     
  0.33999999999999986          0.0000000000000000     
  0.35999999999999943          0.0000000000000000     
  0.38000000000000078          0.0000000000000000     
  0.40000000000000036          0.0000000000000000     
  0.41999999999999993          0.0000000000000000     
  0.43999999999999950          0.0000000000000000     
  0.46000000000000085          0.0000000000000000     
  0.48000000000000043          0.0000000000000000     
  0.50000000000000000          0.0000000000000000     
  0.51999999999999957          0.0000000000000000     
  0.54000000000000092          0.0000000000000000     
  0.56000000000000050          0.0000000000000000     
  0.58000000000000007          0.0000000000000000     
  0.59999999999999964          0.0000000000000000     
  0.62000000000000099          0.0000000000000000     
  0.64000000000000057          0.0000000000000000     
  0.66000000000000014          0.0000000000000000     
  0.67999999999999972          0.0000000000000000     
  0.70000000000000107          0.0000000000000000     
  0.72000000000000064          0.0000000000000000     
  0.74000000000000021          0.0000000000000000     
  0.75999999999999979          0.0000000000000000     
  0.77999999999999936          0.0000000000000000     
  0.80000000000000071          0.0000000000000000     
  0.82000000000000028          0.0000000000000000     
  0.83999999999999986          0.0000000000000000     
  0.85999999999999943          0.0000000000000000     
  0.88000000000000078          0.0000000000000000     
  0.90000000000000036          0.0000000000000000     
  0.91999999999999993          0.0000000000000000     
  0.93999999999999950          0.0000000000000000     
  0.96000000000000085          0.0000000000000000     
  0.98000000000000043          0.0000000000000000     
   1.0000000000000000          0.0000000000000000     
   1.0199999999999996          0.0000000000000000     
   1.0400000000000009          0.0000000000000000     
   1.0600000000000005          0.0000000000000000     
   1.0800000000000001          0.0000000000000000     
   1.0999999999999996          0.0000000000000000     
   1.1200000000000010          0.0000000000000000     
   1.1400000000000006          0.0000000000000000     
   1.1600000000000001          0.0000000000000000     
   1.1799999999999997          0.0000000000000000     
   1.2000000000000011          0.0000000000000000     
   1.2200000000000006          0.0000000000000000     
   1.2400000000000002          0.0000000000000000     
   1.2599999999999998          0.0000000000000000     
   1.2799999999999994          0.0000000000000000     
   1.3000000000000007          0.0000000000000000     
   1.3200000000000003          0.0000000000000000     
   1.3399999999999999          0.0000000000000000     
   1.3599999999999994          0.0000000000000000     
   1.3800000000000008          0.0000000000000000     
   1.4000000000000004          0.0000000000000000     
   1.4199999999999999          0.0000000000000000     
   1.4399999999999995          0.0000000000000000     
   1.4600000000000009          0.0000000000000000     
   1.4800000000000004          0.0000000000000000     
   1.5000000000000000          0.0000000000000000     
   1.5199999999999996          0.0000000000000000     
   1.5400000000000009          0.0000000000000000     
   1.5600000000000005          0.0000000000000000     
   1.5800000000000001          0.0000000000000000     
   1.5999999999999996          0.0000000000000000     
   1.6200000000000010          0.0000000000000000     
   1.6400000000000006          0.0000000000000000     
   1.6600000000000001          0.0000000000000000     
   1.6799999999999997          0.0000000000000000     
   1.7000000000000011          0.0000000000000000     
   1.7200000000000006          0.0000000000000000     
   1.7400000000000002          0.0000000000000000     
   1.7599999999999998          0.0000000000000000     
   1.7799999999999994          0.0000000000000000     
   1.8000000000000007          0.0000000000000000     
   1.8200000000000003          0.0000000000000000     
   1.8399999999999999          0.0000000000000000     
   1.8599999999999994          0.0000000000000000     
   1.8800000000000008          0.0000000000000000     
   1.9000000000000004          0.0000000000000000     
   1.9199999999999999          0.0000000000000000     
   1.9399999999999995          0.0000000000000000     
   1.9600000000000009          0.0000000000000000     
   1.9800000000000004          0.0000000000000000     
   2.0000000000000000          0.0000000000000000     
   2.0199999999999996          0.0000000000000000     
   2.0400000000000009          0.0000000000000000     
   2.0600000000000005          0.0000000000000000     
   2.0800000000000001          0.0000000000000000     
   2.0999999999999996          0.0000000000000000     
   2.1200000000000010          0.0000000000000000     
   2.1400000000000006          0.0000000000000000     
   2.1600000000000001          0.0000000000000000     
   2.1799999999999997          0.0000000000000000     
   2.2000000000000011          0.0000000000000000     
   2.2200000000000006          0.0000000000000000     
   2.2400000000000002          0.0000000000000000     
   2.2599999999999998          0.0000000000000000     
   2.2799999999999994          0.0000000000000000     
   2.3000000000000007          0.0000000000000000     
   2.3200000000000003          0.0000000000000000     
   2.3399999999999999          0.0000000000000000     
   2.3599999999999994          0.0000000000000000     
   2.3800000000000008          0.0000000000000000     
   2.4000000000000004          0.0000000000000000     
   2.4199999999999999          0.0000000000000000     
   2.4399999999999995          0.0000000000000000     
   2.4600000000000009          0.0000000000000000     
   2.4800000000000004          0.0000000000000000     
   2.5000000000000000          0.0000000000000000     
   2.5199999999999996          0.0000000000000000     
   2.5400000000000009          0.0000000000000000     
   2.5600000000000005          0.0000000000000000     
   2.5800000000000001          0.0000000000000000     
   2.5999999999999996          0.0000000000000000     
   2.6200000000000010          0.0000000000000000     
   2.6400000000000006          0.0000000000000000     
   2.6600000000000001          0.0000000000000000     
   2.6799999999999997          0.0000000000000000     
   2.7000000000000011          0.0000000000000000     
   2.7200000000000006          0.0000000000000000     
   2.7400000000000002          0.0000000000000000     
   2.7599999999999998          0.0000000000000000     
   2.7799999999999994          0.0000000000000000     
   2.8000000000000007          0.0000000000000000     
   2.8200000000000003          0.0000000000000000     
   2.8399999999999999          0.0000000000000000     
   2.8599999999999994          0.0000000000000000     
   2.8800000000000008          0.0000000000000000     