-0.8000000E+01  0.0000000E+00
-0.7980000E+01  0.0000000E+00
-0.7960000E+01  0.0000000E+00
-0.7940000E+01  0.0000000E+00
-0.7920000E+01  0.0000000E+00
-0.7900000E+01  0.0000000E+00
-0.7880000E+01  0.0000000E+00
-0.7860000E+01  0.0000000E+00
-0.7840000E+01  0.0000000E+00
-0.7820000E+01  0.0000000E+00
-0.7800000E+01  0.0000000E+00
-0.7780000E+01  0.0000000E+00
-0.7760000E+01  0.0000000E+00
-0.7740000E+01  0.0000000E+00
-0.7720000E+01  0.0000000E+00
-0.7700000E+01  0.0000000E+00
-0.7680000E+01  0.0000000E+00
-0.7660000E+01  0.0000000E+00
-0.7640000E+01  0.0000000E+00
-0.7620000E+01  0.0000000E+00
-0.7600000E+01  0.0000000E+00
-0.7580000E+01  0.0000000E+00
-0.7560000E+01  0.0000000E+00
-0.7540000E+01  0.0000000E+00
-0.7520000E+01  0.0000000E+00
-0.7500000E+01  0.0000000E+00
-0.7480000E+01  0.0000000E+00
-0.7460000E+01  0.0000000E+00
-0.7440000E+01  0.0000000E+00
-0.7420000E+01  0.0000000E+00
-0.7400000E+01  0.0000000E+00
-0.7380000E+01  0.0000000E+00
-0.7360000E+01  0.0000000E+00
-0.7340000E+01  0.0000000E+00
-0.7320000E+01  0.0000000E+00
-0.7300000E+01  0.0000000E+00
-0.7280000E+01  0.0000000E+00
-0.7260000E+01  0.0000000E+00
-0.7240000E+01  0.0000000E+00
-0.7220000E+01  0.0000000E+00
-0.7200000E+01  0.0000000E+00
-0.7180000E+01  0.0000000E+00
-0.7160000E+01  0.0000000E+00
-0.7140000E+01  0.0000000E+00
-0.7120000E+01  0.0000000E+00
-0.7100000E+01  0.0000000E+00
-0.7080000E+01  0.0000000E+00
-0.7060000E+01  0.0000000E+00
-0.7040000E+01  0.0000000E+00
-0.7020000E+01  0.0000000E+00
-0.7000000E+01  0.0000000E+00
-0.6980000E+01  0.0000000E+00
-0.6960000E+01  0.0000000E+00
-0.6940000E+01  0.0000000E+00
-0.6920000E+01  0.0000000E+00
-0.6900000E+01  0.0000000E+00
-0.6880000E+01  0.0000000E+00
-0.6860000E+01  0.0000000E+00
-0.6840000E+01  0.0000000E+00
-0.6820000E+01  0.0000000E+00
-0.6800000E+01  0.0000000E+00
-0.6780000E+01  0.0000000E+00
-0.6760000E+01  0.0000000E+00
-0.6740000E+01  0.0000000E+00
-0.6720000E+01  0.0000000E+00
-0.6700000E+01  0.0000000E+00
-0.6680000E+01  0.0000000E+00
-0.6660000E+01  0.0000000E+00
-0.6640000E+01  0.0000000E+00
-0.6620000E+01  0.0000000E+00
-0.6600000E+01  0.0000000E+00
-0.6580000E+01  0.0000000E+00
-0.6560000E+01  0.0000000E+00
-0.6540000E+01  0.0000000E+00
-0.6520000E+01  0.0000000E+00
-0.6500000E+01  0.0000000E+00
-0.6480000E+01  0.0000000E+00
-0.6460000E+01  0.0000000E+00
-0.6440000E+01  0.0000000E+00
-0.6420000E+01  0.0000000E+00
-0.6400000E+01  0.0000000E+00
-0.6380000E+01  0.0000000E+00
-0.6360000E+01  0.0000000E+00
-0.6340000E+01  0.0000000E+00
-0.6320000E+01  0.0000000E+00
-0.6300000E+01  0.0000000E+00
-0.6280000E+01  0.0000000E+00
-0.6260000E+01  0.0000000E+00
-0.6240000E+01  0.0000000E+00
-0.6220000E+01  0.0000000E+00
-0.6200000E+01  0.0000000E+00
-0.6180000E+01  0.0000000E+00
-0.6160000E+01  0.0000000E+00
-0.6140000E+01  0.0000000E+00
-0.6120000E+01  0.0000000E+00
-0.6100000E+01  0.0000000E+00
-0.6080000E+01  0.0000000E+00
-0.6060000E+01  0.0000000E+00
-0.6040000E+01  0.0000000E+00
-0.6020000E+01  0.0000000E+00
-0.6000000E+01  0.0000000E+00
-0.5980000E+01  0.0000000E+00
-0.5960000E+01  0.0000000E+00
-0.5940000E+01  0.0000000E+00
-0.5920000E+01  0.0000000E+00
-0.5900000E+01  0.0000000E+00
-0.5880000E+01  0.0000000E+00
-0.5860000E+01  0.0000000E+00
-0.5840000E+01  0.0000000E+00
-0.5820000E+01  0.0000000E+00
-0.5800000E+01  0.0000000E+00
-0.5780000E+01  0.0000000E+00
-0.5760000E+01  0.0000000E+00
-0.5740000E+01  0.0000000E+00
-0.5720000E+01  0.0000000E+00
-0.5700000E+01  0.0000000E+00
-0.5680000E+01  0.0000000E+00
-0.5660000E+01  0.0000000E+00
-0.5640000E+01  0.0000000E+00
-0.5620000E+01  0.0000000E+00
-0.5600000E+01  0.0000000E+00
-0.5580000E+01  0.0000000E+00
-0.5560000E+01  0.0000000E+00
-0.5540000E+01  0.0000000E+00
-0.5520000E+01  0.0000000E+00
-0.5500000E+01  0.0000000E+00
-0.5480000E+01  0.0000000E+00
-0.5460000E+01  0.0000000E+00
-0.5440000E+01  0.0000000E+00
-0.5420000E+01  0.0000000E+00
-0.5400000E+01  0.0000000E+00
-0.5380000E+01  0.0000000E+00
-0.5360000E+01  0.0000000E+00
-0.5340000E+01  0.0000000E+00
-0.5320000E+01  0.0000000E+00
-0.5300000E+01  0.0000000E+00
-0.5280000E+01  0.0000000E+00
-0.5260000E+01  0.0000000E+00
-0.5240000E+01  0.0000000E+00
-0.5220000E+01  0.0000000E+00
-0.5200000E+01  0.0000000E+00
-0.5180000E+01  0.0000000E+00
-0.5160000E+01  0.0000000E+00
-0.5140000E+01  0.0000000E+00
-0.5120000E+01  0.0000000E+00
-0.5100000E+01  0.0000000E+00
-0.5080000E+01  0.0000000E+00
-0.5060000E+01  0.0000000E+00
-0.5040000E+01  0.0000000E+00
-0.5020000E+01  0.0000000E+00
-0.5000000E+01  0.0000000E+00
-0.4980000E+01  0.0000000E+00
-0.4960000E+01  0.0000000E+00
-0.4940000E+01  0.0000000E+00
-0.4920000E+01  0.0000000E+00
-0.4900000E+01  0.0000000E+00
-0.4880000E+01  0.0000000E+00
-0.4860000E+01  0.0000000E+00
-0.4840000E+01  0.0000000E+00
-0.4820000E+01  0.0000000E+00
-0.4800000E+01  0.0000000E+00
-0.4780000E+01  0.0000000E+00
-0.4760000E+01  0.0000000E+00
-0.4740000E+01  0.0000000E+00
-0.4720000E+01  0.0000000E+00
-0.4700000E+01  0.0000000E+00
-0.4680000E+01  0.0000000E+00
-0.4660000E+01  0.0000000E+00
-0.4640000E+01  0.0000000E+00
-0.4620000E+01  0.0000000E+00
-0.4600000E+01  0.0000000E+00
-0.4580000E+01  0.0000000E+00
-0.4560000E+01  0.0000000E+00
-0.4540000E+01  0.0000000E+00
-0.4520000E+01  0.0000000E+00
-0.4500000E+01  0.0000000E+00
-0.4480000E+01  0.0000000E+00
-0.4460000E+01  0.0000000E+00
-0.4440000E+01  0.0000000E+00
-0.4420000E+01  0.0000000E+00
-0.4400000E+01  0.0000000E+00
-0.4380000E+01  0.0000000E+00
-0.4360000E+01  0.0000000E+00
-0.4340000E+01  0.0000000E+00
-0.4320000E+01  0.0000000E+00
-0.4300000E+01  0.0000000E+00
-0.4280000E+01  0.0000000E+00
-0.4260000E+01  0.0000000E+00
-0.4240000E+01  0.0000000E+00
-0.4220000E+01  0.0000000E+00
-0.4200000E+01  0.0000000E+00
-0.4180000E+01  0.0000000E+00
-0.4160000E+01  0.0000000E+00
-0.4140000E+01  0.0000000E+00
-0.4120000E+01  0.0000000E+00
-0.4100000E+01  0.0000000E+00
-0.4080000E+01  0.0000000E+00
-0.4060000E+01  0.0000000E+00
-0.4040000E+01  0.0000000E+00
-0.4020000E+01  0.0000000E+00
-0.4000000E+01  0.0000000E+00
-0.3980000E+01  0.0000000E+00
-0.3960000E+01  0.0000000E+00
-0.3940000E+01  0.0000000E+00
-0.3920000E+01  0.0000000E+00
-0.3900000E+01  0.0000000E+00
-0.3880000E+01  0.0000000E+00
-0.3860000E+01  0.0000000E+00
-0.3840000E+01  0.0000000E+00
-0.3820000E+01  0.0000000E+00
-0.3800000E+01  0.0000000E+00
-0.3780000E+01  0.0000000E+00
-0.3760000E+01  0.0000000E+00
-0.3740000E+01  0.0000000E+00
-0.3720000E+01  0.0000000E+00
-0.3700000E+01  0.0000000E+00
-0.3680000E+01  0.0000000E+00
-0.3660000E+01  0.0000000E+00
-0.3640000E+01  0.0000000E+00
-0.3620000E+01  0.0000000E+00
-0.3600000E+01  0.0000000E+00
-0.3580000E+01  0.0000000E+00
-0.3560000E+01  0.0000000E+00
-0.3540000E+01  0.0000000E+00
-0.3520000E+01  0.0000000E+00
-0.3500000E+01  0.0000000E+00
-0.3480000E+01  0.0000000E+00
-0.3460000E+01  0.0000000E+00
-0.3440000E+01  0.0000000E+00
-0.3420000E+01  0.0000000E+00
-0.3400000E+01  0.0000000E+00
-0.3380000E+01  0.0000000E+00
-0.3360000E+01  0.0000000E+00
-0.3340000E+01  0.0000000E+00
-0.3320000E+01  0.0000000E+00
-0.3300000E+01  0.0000000E+00
-0.3280000E+01  0.0000000E+00
-0.3260000E+01  0.0000000E+00
-0.3240000E+01  0.0000000E+00
-0.3220000E+01  0.0000000E+00
-0.3200000E+01  0.0000000E+00
-0.3180000E+01  0.0000000E+00
-0.3160000E+01  0.0000000E+00
-0.3140000E+01  0.0000000E+00
-0.3120000E+01  0.0000000E+00
-0.3100000E+01  0.0000000E+00
-0.3080000E+01  0.0000000E+00
-0.3060000E+01  0.0000000E+00
-0.3040000E+01  0.0000000E+00
-0.3020000E+01  0.0000000E+00
-0.3000000E+01  0.0000000E+00
-0.2980000E+01  0.0000000E+00
-0.2960000E+01  0.0000000E+00
-0.2940000E+01  0.0000000E+00
-0.2920000E+01  0.0000000E+00
-0.2900000E+01  0.0000000E+00
-0.2880000E+01  0.0000000E+00
-0.2860000E+01  0.0000000E+00
-0.2840000E+01  0.0000000E+00
-0.2820000E+01  0.0000000E+00
-0.2800000E+01  0.0000000E+00
-0.2780000E+01  0.0000000E+00
-0.2760000E+01  0.0000000E+00
-0.2740000E+01  0.0000000E+00
-0.2720000E+01  0.0000000E+00
-0.2700000E+01  0.0000000E+00
-0.2680000E+01  0.0000000E+00
-0.2660000E+01  0.0000000E+00
-0.2640000E+01  0.0000000E+00
-0.2620000E+01  0.0000000E+00
-0.2600000E+01  0.0000000E+00
-0.2580000E+01  0.0000000E+00
-0.2560000E+01  0.0000000E+00
-0.2540000E+01  0.0000000E+00
-0.2520000E+01  0.0000000E+00
-0.2500000E+01  0.0000000E+00
-0.2480000E+01  0.0000000E+00
-0.2460000E+01  0.0000000E+00
-0.2440000E+01  0.0000000E+00
-0.2420000E+01  0.0000000E+00
-0.2400000E+01  0.0000000E+00
-0.2380000E+01  0.0000000E+00
-0.2360000E+01  0.0000000E+00
-0.2340000E+01  0.0000000E+00
-0.2320000E+01  0.0000000E+00
-0.2300000E+01  0.0000000E+00
-0.2280000E+01  0.0000000E+00
-0.2260000E+01  0.0000000E+00
-0.2240000E+01  0.0000000E+00
-0.2220000E+01  0.0000000E+00
-0.2200000E+01  0.0000000E+00
-0.2180000E+01  0.0000000E+00
-0.2160000E+01  0.0000000E+00
-0.2140000E+01  0.0000000E+00
-0.2120000E+01  0.0000000E+00
-0.2100000E+01  0.0000000E+00
-0.2080000E+01  0.0000000E+00
-0.2060000E+01  0.0000000E+00
-0.2040000E+01  0.0000000E+00
-0.2020000E+01  0.0000000E+00
-0.2000000E+01  0.0000000E+00
-0.1980000E+01  0.0000000E+00
-0.1960000E+01  0.0000000E+00
-0.1940000E+01  0.0000000E+00
-0.1920000E+01  0.0000000E+00
-0.1900000E+01  0.0000000E+00
-0.1880000E+01  0.0000000E+00
-0.1860000E+01  0.0000000E+00
-0.1840000E+01  0.0000000E+00
-0.1820000E+01  0.0000000E+00
-0.1800000E+01  0.0000000E+00
-0.1780000E+01  0.0000000E+00
-0.1760000E+01  0.0000000E+00
-0.1740000E+01  0.0000000E+00
-0.1720000E+01  0.0000000E+00
-0.1700000E+01  0.0000000E+00
-0.1680000E+01  0.0000000E+00
-0.1660000E+01  0.0000000E+00
-0.1640000E+01  0.0000000E+00
-0.1620000E+01  0.0000000E+00
-0.1600000E+01  0.0000000E+00
-0.1580000E+01  0.0000000E+00
-0.1560000E+01  0.0000000E+00
-0.1540000E+01  0.0000000E+00
-0.1520000E+01  0.0000000E+00
-0.1500000E+01  0.0000000E+00
-0.1480000E+01  0.0000000E+00
-0.1460000E+01  0.0000000E+00
-0.1440000E+01  0.0000000E+00
-0.1420000E+01  0.0000000E+00
-0.1400000E+01  0.0000000E+00
-0.1380000E+01  0.0000000E+00
-0.1360000E+01  0.0000000E+00
-0.1340000E+01  0.0000000E+00
-0.1320000E+01  0.0000000E+00
-0.1300000E+01  0.0000000E+00
-0.1280000E+01  0.0000000E+00
-0.1260000E+01  0.0000000E+00
-0.1240000E+01  0.0000000E+00
-0.1220000E+01  0.0000000E+00
-0.1200000E+01  0.0000000E+00
-0.1180000E+01  0.0000000E+00
-0.1160000E+01  0.0000000E+00
-0.1140000E+01  0.0000000E+00
-0.1120000E+01  0.0000000E+00
-0.1100000E+01  0.0000000E+00
-0.1080000E+01  0.0000000E+00
-0.1060000E+01  0.0000000E+00
-0.1040000E+01  0.0000000E+00
-0.1020000E+01  0.0000000E+00
-0.1000000E+01  0.0000000E+00
-0.9800000E+00  0.0000000E+00
-0.9600000E+00  0.0000000E+00
-0.9400000E+00  0.0000000E+00
-0.9200000E+00  0.0000000E+00
-0.9000000E+00  0.0000000E+00
-0.8800000E+00  0.0000000E+00
-0.8600000E+00  0.0000000E+00
-0.8400000E+00  0.0000000E+00
-0.8200000E+00  0.0000000E+00
-0.8000000E+00  0.0000000E+00
-0.7800000E+00  0.0000000E+00
-0.7600000E+00  0.0000000E+00
-0.7400000E+00  0.0000000E+00
-0.7200000E+00  0.0000000E+00
-0.7000000E+00  0.0000000E+00
-0.6800000E+00  0.0000000E+00
-0.6600000E+00  0.0000000E+00
-0.6400000E+00  0.0000000E+00
-0.6200000E+00  0.0000000E+00
-0.6000000E+00  0.0000000E+00
-0.5800000E+00  0.0000000E+00
-0.5600000E+00  0.0000000E+00
-0.5400000E+00  0.0000000E+00
-0.5200000E+00  0.0000000E+00
-0.5000000E+00  0.0000000E+00
-0.4800000E+00  0.0000000E+00
-0.4600000E+00  0.0000000E+00
-0.4400000E+00  0.0000000E+00
-0.4200000E+00  0.0000000E+00
-0.4000000E+00  0.0000000E+00
-0.3800000E+00  0.0000000E+00
-0.3600000E+00  0.0000000E+00
-0.3400000E+00  0.0000000E+00
-0.3200000E+00  0.0000000E+00
-0.3000000E+00  0.0000000E+00
-0.2800000E+00  0.0000000E+00
-0.2600000E+00  0.0000000E+00
-0.2400000E+00  0.0000000E+00
-0.2200000E+00  0.0000000E+00
-0.2000000E+00  0.0000000E+00
-0.1800000E+00  0.0000000E+00
-0.1600000E+00  0.0000000E+00
-0.1400000E+00  0.0000000E+00
-0.1200000E+00  0.0000000E+00
-0.1000000E+00  0.0000000E+00
-0.8000000E-01  0.0000000E+00
-0.6000000E-01  0.0000000E+00
-0.4000000E-01  0.0000000E+00
-0.2000000E-01  0.0000000E+00
 0.0000000E+00  0.0000000E+00
 0.2000000E-01  0.0000000E+00
 0.4000000E-01  0.0000000E+00
 0.6000000E-01  0.0000000E+00
 0.8000000E-01  0.0000000E+00
 0.1000000E+00  0.0000000E+00
 0.1200000E+00  0.0000000E+00
 0.1400000E+00  0.0000000E+00
 0.1600000E+00  0.0000000E+00
 0.1800000E+00  0.0000000E+00
 0.2000000E+00  0.0000000E+00
 0.2200000E+00  0.0000000E+00
 0.2400000E+00  0.0000000E+00
 0.2600000E+00  0.0000000E+00
 0.2800000E+00  0.0000000E+00
 0.3000000E+00  0.0000000E+00
 0.3200000E+00  0.0000000E+00
 0.3400000E+00  0.0000000E+00
 0.3600000E+00  0.0000000E+00
 0.3800000E+00  0.0000000E+00
 0.4000000E+00  0.0000000E+00
 0.4200000E+00  0.0000000E+00
 0.4400000E+00  0.0000000E+00
 0.4600000E+00  0.0000000E+00
 0.4800000E+00  0.0000000E+00
 0.5000000E+00  0.0000000E+00
 0.5200000E+00  0.0000000E+00
 0.5400000E+00  0.0000000E+00
 0.5600000E+00  0.0000000E+00
 0.5800000E+00  0.0000000E+00
 0.6000000E+00  0.0000000E+00
 0.6200000E+00  0.0000000E+00
 0.6400000E+00  0.0000000E+00
 0.6600000E+00  0.0000000E+00
 0.6800000E+00  0.0000000E+00
 0.7000000E+00  0.0000000E+00
 0.7200000E+00  0.0000000E+00
 0.7400000E+00  0.0000000E+00
 0.7600000E+00  0.0000000E+00
 0.7800000E+00  0.0000000E+00
 0.8000000E+00  0.0000000E+00
 0.8200000E+00  0.0000000E+00
 0.8400000E+00  0.0000000E+00
 0.8600000E+00  0.0000000E+00
 0.8800000E+00  0.0000000E+00
 0.9000000E+00  0.0000000E+00
 0.9200000E+00  0.0000000E+00
 0.9400000E+00  0.0000000E+00
 0.9600000E+00  0.0000000E+00
 0.9800000E+00  0.0000000E+00
 0.1000000E+01  0.0000000E+00
 0.1020000E+01  0.0000000E+00
 0.1040000E+01  0.0000000E+00
 0.1060000E+01  0.0000000E+00
 0.1080000E+01  0.0000000E+00
 0.1100000E+01  0.0000000E+00
 0.1120000E+01  0.0000000E+00
 0.1140000E+01  0.0000000E+00
 0.1160000E+01  0.0000000E+00
 0.1180000E+01  0.0000000E+00
 0.1200000E+01  0.0000000E+00
 0.1220000E+01  0.0000000E+00
 0.1240000E+01  0.0000000E+00
 0.1260000E+01  0.0000000E+00
 0.1280000E+01  0.0000000E+00
 0.1300000E+01  0.0000000E+00
 0.1320000E+01  0.0000000E+00
 0.1340000E+01  0.0000000E+00
 0.1360000E+01  0.0000000E+00
 0.1380000E+01  0.0000000E+00
 0.1400000E+01  0.0000000E+00
 0.1420000E+01  0.0000000E+00
 0.1440000E+01  0.0000000E+00
 0.1460000E+01  0.0000000E+00
 0.1480000E+01  0.0000000E+00
 0.1500000E+01  0.0000000E+00
 0.1520000E+01  0.0000000E+00
 0.1540000E+01  0.0000000E+00
 0.1560000E+01  0.0000000E+00
 0.1580000E+01  0.0000000E+00
 0.1600000E+01  0.0000000E+00
 0.1620000E+01  0.0000000E+00
 0.1640000E+01  0.0000000E+00
 0.1660000E+01  0.0000000E+00
 0.1680000E+01  0.0000000E+00
 0.1700000E+01  0.0000000E+00
 0.1720000E+01  0.0000000E+00
 0.1740000E+01  0.0000000E+00
 0.1760000E+01  0.0000000E+00
 0.1780000E+01  0.0000000E+00
 0.1800000E+01  0.0000000E+00
 0.1820000E+01  0.0000000E+00
 0.1840000E+01  0.0000000E+00
 0.1860000E+01  0.0000000E+00
 0.1880000E+01  0.0000000E+00
 0.1900000E+01  0.0000000E+00
 0.1920000E+01  0.0000000E+00
 0.1940000E+01  0.0000000E+00
 0.1960000E+01  0.0000000E+00
 0.1980000E+01  0.0000000E+00
 0.2000000E+01  0.0000000E+00
 0.2020000E+01  0.0000000E+00
 0.2040000E+01  0.0000000E+00
 0.2060000E+01  0.0000000E+00
 0.2080000E+01  0.0000000E+00
 0.2100000E+01  0.0000000E+00
 0.2120000E+01  0.0000000E+00
 0.2140000E+01  0.0000000E+00
 0.2160000E+01  0.0000000E+00
 0.2180000E+01  0.0000000E+00
 0.2200000E+01  0.0000000E+00
 0.2220000E+01  0.0000000E+00
 0.2240000E+01  0.0000000E+00
 0.2260000E+01  0.0000000E+00
 0.2280000E+01  0.0000000E+00
 0.2300000E+01  0.0000000E+00
 0.2320000E+01  0.0000000E+00
 0.2340000E+01  0.0000000E+00
 0.2360000E+01  0.0000000E+00
 0.2380000E+01  0.0000000E+00
 0.2400000E+01  0.0000000E+00
 0.2420000E+01  0.0000000E+00
 0.2440000E+01  0.0000000E+00
 0.2460000E+01  0.0000000E+00
 0.2480000E+01  0.0000000E+00
 0.2500000E+01  0.0000000E+00
 0.2520000E+01  0.0000000E+00
 0.2540000E+01  0.0000000E+00
 0.2560000E+01  0.0000000E+00
 0.2580000E+01  0.0000000E+00
 0.2600000E+01  0.0000000E+00
 0.2620000E+01  0.0000000E+00
 0.2640000E+01  0.0000000E+00
 0.2660000E+01  0.0000000E+00
 0.2680000E+01  0.0000000E+00
 0.2700000E+01  0.0000000E+00
 0.2720000E+01  0.0000000E+00
 0.2740000E+01  0.0000000E+00
 0.2760000E+01  0.0000000E+00
 0.2780000E+01  0.0000000E+00
 0.2800000E+01  0.0000000E+00
 0.2820000E+01  0.0000000E+00
 0.2840000E+01  0.0000000E+00
 0.2860000E+01  0.0000000E+00
 0.2880000E+01  0.0000000E+00
 0.2900000E+01  0.0000000E+00
 0.2920000E+01  0.0000000E+00
 0.2940000E+01  0.0000000E+00
 0.2960000E+01  0.0000000E+00
 0.2980000E+01  0.0000000E+00
 0.3000000E+01  0.0000000E+00
 0.3020000E+01  0.0000000E+00
 0.3040000E+01  0.0000000E+00
 0.3060000E+01  0.0000000E+00
 0.3080000E+01  0.0000000E+00
 0.3100000E+01  0.0000000E+00
 0.3120000E+01  0.0000000E+00
 0.3140000E+01  0.0000000E+00
 0.3160000E+01  0.0000000E+00
 0.3180000E+01  0.0000000E+00
 0.3200000E+01  0.0000000E+00
 0.3220000E+01  0.0000000E+00
 0.3240000E+01  0.0000000E+00
 0.3260000E+01  0.0000000E+00
 0.3280000E+01  0.0000000E+00
 0.3300000E+01  0.0000000E+00
 0.3320000E+01  0.0000000E+00
 0.3340000E+01  0.0000000E+00
 0.3360000E+01  0.0000000E+00
 0.3380000E+01  0.0000000E+00
 0.3400000E+01  0.0000000E+00
 0.3420000E+01  0.0000000E+00
 0.3440000E+01  0.0000000E+00
 0.3460000E+01  0.0000000E+00
 0.3480000E+01  0.0000000E+00
 0.3500000E+01  0.0000000E+00
 0.3520000E+01  0.0000000E+00
 0.3540000E+01  0.0000000E+00
 0.3560000E+01  0.0000000E+00
 0.3580000E+01  0.0000000E+00
 0.3600000E+01  0.0000000E+00
 0.3620000E+01  0.0000000E+00
 0.3640000E+01  0.0000000E+00
 0.3660000E+01  0.0000000E+00
 0.3680000E+01  0.0000000E+00
 0.3700000E+01  0.0000000E+00
 0.3720000E+01  0.0000000E+00
 0.3740000E+01  0.0000000E+00
 0.3760000E+01  0.0000000E+00
 0.3780000E+01 -0.0000000E+00
 0.3800000E+01 -0.0000000E+00
 0.3820000E+01 -0.0000000E+00
 0.3840000E+01 -0.0000000E+00
 0.3860000E+01 -0.0000000E+00
 0.3880000E+01 -0.0000000E+00
 0.3900000E+01 -0.0000000E+00
 0.3920000E+01  0.0000000E+00
 0.3940000E+01  0.0000000E+00
 0.3960000E+01  0.0000000E+00
 0.3980000E+01  0.0000000E+00
 0.4000000E+01 -0.0000000E+00
 0.4020000E+01 -0.0000000E+00
 0.4040000E+01 -0.0000000E+00
 0.4060000E+01 -0.0000000E+00
 0.4080000E+01  0.2441115E-37
 0.4100000E+01  0.6558600E-37
 0.4120000E+01  0.1132663E-36
 0.4140000E+01  0.1296288E-36
 0.4160000E+01  0.9461525E-37
 0.4180000E+01 -0.1356481E-37
 0.4200000E+01 -0.1585571E-36
 0.4220000E+01 -0.2809763E-36
 0.4240000E+01 -0.2586199E-36
 0.4260000E+01 -0.0000000E+00
 0.4280000E+01  0.5400230E-36
 0.4300000E+01  0.1298985E-35
 0.4320000E+01  0.1891739E-35
 0.4340000E+01  0.2054290E-35
 0.4360000E+01  0.1161442E-35
 0.4380000E+01 -0.1018463E-35
 0.4400000E+01 -0.3990188E-35
 0.4420000E+01 -0.6145764E-35
 0.4440000E+01 -0.5625039E-35
 0.4460000E+01 -0.1382280E-35
 0.4480000E+01  0.5746214E-35
 0.4500000E+01  0.1302059E-34
 0.4520000E+01  0.1424104E-34
 0.4540000E+01  0.6079298E-35
 0.4560000E+01 -0.9736905E-35
 0.4580000E+01 -0.2775945E-34
 0.4600000E+01 -0.3736247E-34
 0.4620000E+01 -0.2853276E-34
 0.4640000E+01  0.2351155E-35
 0.4660000E+01  0.4747678E-34
 0.4680000E+01  0.8781832E-34
 0.4700000E+01  0.9825182E-34
 0.4720000E+01  0.5942052E-34
 0.4740000E+01 -0.3016676E-34
 0.4760000E+01 -0.1458267E-33
 0.4780000E+01 -0.2384936E-33
 0.4800000E+01 -0.2500360E-33
 0.4820000E+01 -0.1389026E-33
 0.4840000E+01  0.9210140E-34
 0.4860000E+01  0.3785481E-33
 0.4880000E+01  0.6004929E-33
 0.4900000E+01  0.6186678E-33
 0.4920000E+01  0.3356685E-33
 0.4940000E+01 -0.2376581E-33
 0.4960000E+01 -0.9410775E-33
 0.4980000E+01 -0.1480535E-32
 0.5000000E+01 -0.1517040E-32
 0.5020000E+01 -0.8157698E-33
 0.5040000E+01  0.5924835E-33
 0.5060000E+01  0.2312790E-32
 0.5080000E+01  0.3626616E-32
 0.5100000E+01  0.3710333E-32
 0.5120000E+01  0.1999160E-32
 0.5140000E+01 -0.1423053E-32
 0.5160000E+01 -0.5591200E-32
 0.5180000E+01 -0.8765460E-32
 0.5200000E+01 -0.8966561E-32
 0.5220000E+01 -0.4853391E-32
 0.5240000E+01  0.3349650E-32
 0.5260000E+01  0.1331435E-31
 0.5280000E+01  0.2088639E-31
 0.5300000E+01  0.2137724E-31
 0.5320000E+01  0.1164769E-31
 0.5340000E+01 -0.7721320E-32
 0.5360000E+01 -0.3120370E-31
 0.5380000E+01 -0.4903294E-31
 0.5400000E+01 -0.5026639E-31
 0.5420000E+01 -0.2765160E-31
 0.5440000E+01  0.1736906E-31
 0.5460000E+01  0.7190661E-31
 0.5480000E+01  0.1133596E-30
 0.5500000E+01  0.1165534E-30
 0.5520000E+01  0.6492811E-31
 0.5540000E+01 -0.3808555E-31
 0.5560000E+01 -0.1629486E-30
 0.5580000E+01 -0.2581559E-30
 0.5600000E+01 -0.2665850E-30
 0.5620000E+01 -0.1508307E-30
 0.5640000E+01  0.8127121E-31
 0.5660000E+01  0.3631684E-30
 0.5680000E+01  0.5792206E-30
 0.5700000E+01  0.6015245E-30
 0.5720000E+01  0.3464743E-30
 0.5740000E+01 -0.1686885E-30
 0.5760000E+01 -0.7964387E-30
 0.5780000E+01 -0.1280814E-29
 0.5800000E+01 -0.1339089E-29
 0.5820000E+01 -0.7863398E-30
 0.5840000E+01  0.3407503E-30
 0.5860000E+01  0.1720128E-29
 0.5880000E+01  0.2792881E-29
 0.5900000E+01  0.2941773E-29
 0.5920000E+01  0.1762074E-29
 0.5940000E+01 -0.6705188E-30
 0.5960000E+01 -0.3662887E-29
 0.5980000E+01 -0.6010188E-29
 0.6000000E+01 -0.6380856E-29
 0.6020000E+01 -0.3898280E-29
 0.6040000E+01  0.1285743E-29
 0.6060000E+01  0.7699144E-29
 0.6080000E+01  0.1277593E-28
 0.6100000E+01  0.1367587E-28
 0.6120000E+01  0.8519477E-29
 0.6140000E+01 -0.2397597E-29
 0.6160000E+01 -0.1598776E-28
 0.6180000E+01 -0.2684850E-28
 0.6200000E+01 -0.2898668E-28
 0.6220000E+01 -0.1841146E-28
 0.6240000E+01  0.4319852E-29
 0.6260000E+01  0.3280879E-28
 0.6280000E+01  0.5580584E-28
 0.6300000E+01  0.6079564E-28
 0.6320000E+01  0.3938300E-28
 0.6340000E+01 -0.7422803E-29
 0.6360000E+01 -0.6651886E-28
 0.6380000E+01 -0.1147337E-27
 0.6400000E+01 -0.1261977E-27
 0.6420000E+01 -0.8341343E-28
 0.6440000E+01  0.1188338E-28
 0.6460000E+01  0.1331767E-27
 0.6480000E+01  0.2332536E-27
 0.6500000E+01  0.2591885E-27
 0.6520000E+01  0.1748601E-27
 0.6540000E+01 -0.1694769E-28
 0.6560000E+01 -0.2632014E-27
 0.6580000E+01 -0.4687450E-27
 0.6600000E+01 -0.5264304E-27
 0.6620000E+01 -0.3624421E-27
 0.6640000E+01  0.1918270E-28
 0.6660000E+01  0.5135767E-27
 0.6680000E+01  0.9310233E-27
 0.6700000E+01  0.1056907E-26
 0.6720000E+01  0.7420013E-27
 0.6740000E+01 -0.8764587E-29
 0.6760000E+01 -0.9902507E-27
 0.6780000E+01 -0.1828206E-26
 0.6800000E+01 -0.2097340E-26
 0.6820000E+01 -0.1499361E-26
 0.6840000E+01 -0.3811361E-28
 0.6860000E+01  0.1889103E-26
 0.6880000E+01  0.3551536E-26
 0.6900000E+01  0.4115272E-26
 0.6920000E+01  0.2990790E-26
 0.6940000E+01  0.1749902E-27
 0.6960000E+01 -0.3569812E-26
 0.6980000E+01 -0.6830749E-26
 0.7000000E+01 -0.7989385E-26
 0.7020000E+01 -0.5893573E-26
 0.7040000E+01 -0.5186219E-27
 0.7060000E+01  0.6685796E-26
 0.7080000E+01  0.1301399E-25
 0.7100000E+01  0.1535619E-25
 0.7120000E+01  0.1148483E-25
 0.7140000E+01  0.1319827E-26
 0.7160000E+01 -0.1240659E-25
 0.7180000E+01 -0.2456190E-25
 0.7200000E+01 -0.2922954E-25
 0.7220000E+01 -0.2214774E-25
 0.7240000E+01 -0.3106657E-26
 0.7260000E+01  0.2279138E-25
 0.7280000E+01  0.4590381E-25
 0.7300000E+01  0.5508544E-25
 0.7320000E+01  0.4226784E-25
 0.7340000E+01  0.6954745E-26
 0.7360000E+01 -0.4141538E-25
 0.7380000E+01 -0.8490481E-25
 0.7400000E+01 -0.1027318E-24
 0.7420000E+01 -0.7978462E-25
 0.7440000E+01 -0.1496488E-25
 0.7460000E+01  0.7443332E-25
 0.7480000E+01  0.1553737E-24
 0.7500000E+01  0.1895074E-24
 0.7520000E+01  0.1488435E-24
 0.7540000E+01  0.3107423E-25
 0.7560000E+01 -0.1324048E-24
 0.7580000E+01 -0.2813546E-24
 0.7600000E+01 -0.3457467E-24
 0.7620000E+01 -0.2743212E-24
 0.7640000E+01 -0.6243757E-25
 0.7660000E+01  0.2334083E-24
 0.7680000E+01  0.5044426E-24
 0.7700000E+01  0.6241042E-24
 0.7720000E+01  0.4995740E-24
 0.7740000E+01  0.1218661E-24
 0.7760000E+01 -0.4082094E-24
 0.7780000E+01 -0.8960923E-24
 0.7800000E+01 -0.1115339E-23
 0.7820000E+01 -0.8997007E-24
 0.7840000E+01 -0.2322948E-24
 0.7860000E+01  0.7084903E-24
 0.7880000E+01  0.1577866E-23
 0.7900000E+01  0.1974605E-23
 0.7920000E+01  0.1603997E-23
 0.7940000E+01  0.4350176E-24
 0.7960000E+01 -0.1219393E-23
 0.7980000E+01 -0.2753864E-23
 0.8000000E+01 -0.3464225E-23
 0.8020000E+01 -0.2833141E-23
 0.8040000E+01 -0.8044064E-24
 0.8060000E+01  0.2078077E-23
 0.8080000E+01  0.4761449E-23
 0.8100000E+01  0.6021602E-23
 0.8120000E+01  0.4959001E-23
 0.8140000E+01  0.1472739E-23
 0.8160000E+01 -0.3501219E-23
 0.8180000E+01 -0.8149612E-23
 0.8200000E+01 -0.1036505E-22
 0.8220000E+01 -0.8598253E-23
 0.8240000E+01 -0.2669367E-23
 0.8260000E+01  0.5827544E-23
 0.8280000E+01  0.1380085E-22
 0.8300000E+01  0.1765828E-22
 0.8320000E+01  0.1475728E-22
 0.8340000E+01  0.4779956E-23
 0.8360000E+01 -0.9586721E-23
 0.8380000E+01 -0.2312425E-22
 0.8400000E+01 -0.2976981E-22
 0.8420000E+01 -0.2506008E-22
 0.8440000E+01 -0.8438740E-23
 0.8460000E+01  0.1561012E-22
 0.8480000E+01  0.3836409E-22
 0.8500000E+01  0.4968938E-22
 0.8520000E+01  0.4211882E-22
 0.8540000E+01  0.1468813E-22
 0.8560000E+01 -0.2519216E-22
 0.8580000E+01 -0.6308025E-22
 0.8600000E+01 -0.8219308E-22
 0.8620000E+01 -0.7014732E-22
 0.8640000E+01 -0.2527999E-22
 0.8660000E+01  0.4028300E-22
 0.8680000E+01  0.1028495E-21
 0.8700000E+01  0.1348647E-21
 0.8720000E+01  0.1159512E-21
 0.8740000E+01  0.4323523E-22
 0.8760000E+01 -0.6365425E-22
 0.8780000E+01 -0.1662098E-21
 0.8800000E+01 -0.2195690E-21
 0.8820000E+01 -0.1904298E-21
 0.8840000E+01 -0.7378421E-22
 0.8860000E+01  0.9897527E-22
 0.8880000E+01  0.2658690E-21
 0.8900000E+01  0.3544706E-21
 0.8920000E+01  0.3107069E-21
 0.8940000E+01  0.1257633E-21
 0.8960000E+01 -0.1508237E-21
 0.8980000E+01 -0.4203192E-21
 0.9000000E+01 -0.5668156E-21
 0.9020000E+01 -0.5030932E-21
 0.9040000E+01 -0.2135374E-21
 0.9060000E+01  0.2247869E-21
 0.9080000E+01  0.6562623E-21
 0.9100000E+01  0.8970583E-21
 0.9120000E+01  0.8074608E-21
 0.9140000E+01  0.3597988E-21
 0.9160000E+01 -0.3277471E-21
 0.9180000E+01 -0.1012489E-20
 0.9200000E+01 -0.1405448E-20
 0.9220000E+01 -0.1284357E-20
 0.9240000E+01 -0.6003764E-21
 0.9260000E+01  0.4678373E-21
 0.9280000E+01  0.1545628E-20
 0.9300000E+01  0.2182480E-20
 0.9320000E+01  0.2026991E-20
 0.9340000E+01  0.9933597E-21
 0.9360000E+01 -0.6522925E-21
 0.9380000E+01 -0.2337153E-20
 0.9400000E+01 -0.3364117E-20
 0.9420000E+01 -0.3180395E-20
 0.9440000E+01 -0.1635695E-20
 0.9460000E+01  0.8800904E-21
 0.9480000E+01  0.3499554E-20
 0.9500000E+01  0.5151390E-20
 0.9520000E+01  0.4969297E-20
 0.9540000E+01  0.2690238E-20
 0.9560000E+01 -0.1125858E-20
 0.9580000E+01 -0.5178729E-20
 0.9600000E+01 -0.7832914E-20
 0.9620000E+01 -0.7735036E-20
 0.9640000E+01 -0.4425104E-20
 0.9660000E+01  0.1312606E-20
 0.9680000E+01  0.7550630E-20
 0.9700000E+01  0.1180962E-19
 0.9720000E+01  0.1198216E-19
 0.9740000E+01  0.7266539E-20
 0.9760000E+01 -0.1272748E-20
 0.9780000E+01 -0.1081347E-19
 0.9800000E+01 -0.1762518E-19
 0.9820000E+01 -0.1843950E-19
 0.9840000E+01 -0.1186919E-19
 0.9860000E+01  0.6971521E-21
 0.9880000E+01  0.1518100E-19
 0.9900000E+01  0.2601375E-19
 0.9920000E+01  0.2815085E-19
 0.9940000E+01  0.1921753E-19
 0.9960000E+01  0.9337759E-21
 0.9980000E+01 -0.2088413E-19
 0.1000000E+02 -0.3798741E-19
 0.1002000E+02 -0.4262970E-19
 0.1004000E+02 -0.3079590E-19
 0.1006000E+02 -0.4464639E-20
 0.1008000E+02  0.2817564E-19
 0.1010000E+02  0.5498907E-19
 0.1012000E+02  0.6413428E-19
 0.1014000E+02  0.4890325E-19
 0.1016000E+02  0.1130181E-19
 0.1018000E+02 -0.3728534E-19
 0.1020000E+02 -0.7910320E-19
 0.1022000E+02 -0.9611223E-19
 0.1024000E+02 -0.7721569E-19
 0.1026000E+02 -0.2390936E-19
 0.1028000E+02  0.4818591E-19
 0.1030000E+02  0.1132181E-18
 0.1032000E+02  0.1437727E-18
 0.1034000E+02  0.1216361E-18
 0.1036000E+02  0.4668478E-19
 0.1038000E+02 -0.5998649E-19
 0.1040000E+02 -0.1609265E-18
 0.1042000E+02 -0.2145797E-18
 0.1044000E+02 -0.1912675E-18
 0.1046000E+02 -0.8712262E-19
 0.1048000E+02  0.6995459E-19
 0.1050000E+02  0.2260606E-18
 0.1052000E+02  0.3184554E-18
 0.1054000E+02  0.2991948E-18
 0.1056000E+02  0.1568643E-18
 0.1058000E+02 -0.7261384E-19
 0.1060000E+02 -0.3122901E-18
 0.1062000E+02 -0.4680055E-18
 0.1064000E+02 -0.4631640E-18
 0.1066000E+02 -0.2724009E-18
 0.1068000E+02  0.5953229E-19
 0.1070000E+02  0.4237587E-18
 0.1072000E+02  0.6799902E-18
 0.1074000E+02  0.7074121E-18
 0.1076000E+02  0.4564288E-18
 0.1078000E+02 -0.1934726E-19
 0.1080000E+02 -0.5670836E-18
 0.1082000E+02 -0.9792391E-18
 0.1084000E+02 -0.1067634E-17
 0.1086000E+02 -0.7423460E-18
 0.1088000E+02 -0.6451887E-19
 0.1090000E+02  0.7526319E-18
 0.1092000E+02  0.1403861E-17
 0.1094000E+02  0.1599214E-17
 0.1096000E+02  0.1183415E-17
 0.1098000E+02  0.2212389E-18
 0.1100000E+02 -0.9913973E-18
 0.1102000E+02 -0.2007736E-17
 0.1104000E+02 -0.2384982E-17
 0.1106000E+02 -0.1863708E-17
 0.1108000E+02 -0.5035080E-18
 0.1110000E+02  0.1287384E-17
 0.1112000E+02  0.2858416E-17
 0.1114000E+02  0.3538930E-17
 0.1116000E+02  0.2905830E-17
 0.1118000E+02  0.9959841E-18
 0.1120000E+02 -0.1631960E-17
 0.1122000E+02 -0.4036594E-17
 0.1124000E+02 -0.5210839E-17
 0.1126000E+02 -0.4478267E-17
 0.1128000E+02 -0.1821204E-17
 0.1130000E+02  0.2003685E-17
 0.1132000E+02  0.5644282E-17
 0.1134000E+02  0.7602324E-17
 0.1136000E+02  0.6815352E-17
 0.1138000E+02  0.3157050E-17
 0.1140000E+02 -0.2360166E-17
 0.1142000E+02 -0.7810770E-17
 0.1144000E+02 -0.1098770E-16
 0.1146000E+02 -0.1024923E-16
 0.1148000E+02 -0.5272412E-17
 0.1150000E+02  0.2607332E-17
 0.1152000E+02  0.1067377E-16
 0.1154000E+02  0.1570993E-16
 0.1156000E+02  0.1521892E-16
 0.1158000E+02  0.8544272E-17
 0.1160000E+02 -0.2579812E-17
 0.1162000E+02 -0.1436002E-16
 0.1164000E+02 -0.2215945E-16
 0.1166000E+02 -0.2224089E-16
 0.1168000E+02 -0.1341256E-16
 0.1170000E+02  0.2105423E-17
 0.1172000E+02  0.1906354E-16
 0.1174000E+02  0.3084875E-16
 0.1176000E+02  0.3195243E-16
 0.1178000E+02  0.2036112E-16
 0.1180000E+02 -0.1110641E-17
 0.1182000E+02 -0.2524338E-16
 0.1184000E+02 -0.4268198E-16
 0.1186000E+02 -0.4540530E-16
 0.1188000E+02 -0.3016768E-16
 0.1190000E+02 -0.5131020E-18
 0.1192000E+02  0.3366443E-16
 0.1194000E+02  0.5919633E-16
 0.1196000E+02  0.6449039E-16
 0.1198000E+02  0.4445085E-16