-0.8000000E+01  0.0000000E+00
-0.7980000E+01  0.0000000E+00
-0.7960000E+01  0.0000000E+00
-0.7940000E+01  0.0000000E+00
-0.7920000E+01  0.0000000E+00
-0.7900000E+01  0.0000000E+00
-0.7880000E+01  0.0000000E+00
-0.7860000E+01  0.0000000E+00
-0.7840000E+01  0.0000000E+00
-0.7820000E+01  0.0000000E+00
-0.7800000E+01  0.0000000E+00
-0.7780000E+01  0.0000000E+00
-0.7760000E+01  0.0000000E+00
-0.7740000E+01  0.0000000E+00
-0.7720000E+01  0.0000000E+00
-0.7700000E+01  0.0000000E+00
-0.7680000E+01  0.0000000E+00
-0.7660000E+01  0.0000000E+00
-0.7640000E+01  0.0000000E+00
-0.7620000E+01  0.0000000E+00
-0.7600000E+01  0.0000000E+00
-0.7580000E+01  0.0000000E+00
-0.7560000E+01  0.0000000E+00
-0.7540000E+01  0.0000000E+00
-0.7520000E+01  0.0000000E+00
-0.7500000E+01  0.0000000E+00
-0.7480000E+01  0.0000000E+00
-0.7460000E+01  0.0000000E+00
-0.7440000E+01  0.0000000E+00
-0.7420000E+01  0.0000000E+00
-0.7400000E+01  0.0000000E+00
-0.7380000E+01  0.0000000E+00
-0.7360000E+01  0.0000000E+00
-0.7340000E+01  0.0000000E+00
-0.7320000E+01  0.0000000E+00
-0.7300000E+01  0.0000000E+00
-0.7280000E+01  0.0000000E+00
-0.7260000E+01  0.0000000E+00
-0.7240000E+01  0.0000000E+00
-0.7220000E+01  0.0000000E+00
-0.7200000E+01  0.0000000E+00
-0.7180000E+01  0.0000000E+00
-0.7160000E+01  0.0000000E+00
-0.7140000E+01  0.0000000E+00
-0.7120000E+01  0.0000000E+00
-0.7100000E+01  0.0000000E+00
-0.7080000E+01  0.0000000E+00
-0.7060000E+01  0.0000000E+00
-0.7040000E+01  0.0000000E+00
-0.7020000E+01  0.0000000E+00
-0.7000000E+01  0.0000000E+00
-0.6980000E+01  0.0000000E+00
-0.6960000E+01  0.0000000E+00
-0.6940000E+01  0.0000000E+00
-0.6920000E+01  0.0000000E+00
-0.6900000E+01  0.0000000E+00
-0.6880000E+01  0.0000000E+00
-0.6860000E+01  0.0000000E+00
-0.6840000E+01  0.0000000E+00
-0.6820000E+01  0.0000000E+00
-0.6800000E+01  0.0000000E+00
-0.6780000E+01  0.0000000E+00
-0.6760000E+01  0.0000000E+00
-0.6740000E+01  0.0000000E+00
-0.6720000E+01  0.0000000E+00
-0.6700000E+01  0.0000000E+00
-0.6680000E+01  0.0000000E+00
-0.6660000E+01  0.0000000E+00
-0.6640000E+01  0.0000000E+00
-0.6620000E+01  0.0000000E+00
-0.6600000E+01  0.0000000E+00
-0.6580000E+01  0.0000000E+00
-0.6560000E+01  0.0000000E+00
-0.6540000E+01  0.0000000E+00
-0.6520000E+01  0.0000000E+00
-0.6500000E+01  0.0000000E+00
-0.6480000E+01  0.0000000E+00
-0.6460000E+01  0.0000000E+00
-0.6440000E+01  0.0000000E+00
-0.6420000E+01  0.0000000E+00
-0.6400000E+01  0.0000000E+00
-0.6380000E+01  0.0000000E+00
-0.6360000E+01  0.0000000E+00
-0.6340000E+01  0.0000000E+00
-0.6320000E+01  0.0000000E+00
-0.6300000E+01  0.0000000E+00
-0.6280000E+01  0.0000000E+00
-0.6260000E+01  0.0000000E+00
-0.6240000E+01  0.0000000E+00
-0.6220000E+01  0.0000000E+00
-0.6200000E+01  0.0000000E+00
-0.6180000E+01  0.0000000E+00
-0.6160000E+01  0.0000000E+00
-0.6140000E+01  0.0000000E+00
-0.6120000E+01  0.0000000E+00
-0.6100000E+01  0.0000000E+00
-0.6080000E+01  0.0000000E+00
-0.6060000E+01  0.0000000E+00
-0.6040000E+01  0.0000000E+00
-0.6020000E+01  0.0000000E+00
-0.6000000E+01  0.0000000E+00
-0.5980000E+01  0.0000000E+00
-0.5960000E+01  0.0000000E+00
-0.5940000E+01  0.0000000E+00
-0.5920000E+01  0.0000000E+00
-0.5900000E+01  0.0000000E+00
-0.5880000E+01  0.0000000E+00
-0.5860000E+01  0.0000000E+00
-0.5840000E+01  0.0000000E+00
-0.5820000E+01  0.0000000E+00
-0.5800000E+01  0.0000000E+00
-0.5780000E+01  0.0000000E+00
-0.5760000E+01  0.0000000E+00
-0.5740000E+01  0.0000000E+00
-0.5720000E+01  0.0000000E+00
-0.5700000E+01  0.0000000E+00
-0.5680000E+01  0.0000000E+00
-0.5660000E+01  0.0000000E+00
-0.5640000E+01  0.0000000E+00
-0.5620000E+01  0.0000000E+00
-0.5600000E+01  0.0000000E+00
-0.5580000E+01  0.0000000E+00
-0.5560000E+01  0.0000000E+00
-0.5540000E+01  0.0000000E+00
-0.5520000E+01  0.0000000E+00
-0.5500000E+01  0.0000000E+00
-0.5480000E+01  0.0000000E+00
-0.5460000E+01  0.0000000E+00
-0.5440000E+01  0.0000000E+00
-0.5420000E+01  0.0000000E+00
-0.5400000E+01  0.0000000E+00
-0.5380000E+01  0.0000000E+00
-0.5360000E+01  0.0000000E+00
-0.5340000E+01  0.0000000E+00
-0.5320000E+01  0.0000000E+00
-0.5300000E+01  0.0000000E+00
-0.5280000E+01  0.0000000E+00
-0.5260000E+01  0.0000000E+00
-0.5240000E+01  0.0000000E+00
-0.5220000E+01  0.0000000E+00
-0.5200000E+01  0.0000000E+00
-0.5180000E+01  0.0000000E+00
-0.5160000E+01  0.0000000E+00
-0.5140000E+01  0.0000000E+00
-0.5120000E+01  0.0000000E+00
-0.5100000E+01  0.0000000E+00
-0.5080000E+01  0.0000000E+00
-0.5060000E+01  0.0000000E+00
-0.5040000E+01  0.0000000E+00
-0.5020000E+01  0.0000000E+00
-0.5000000E+01  0.0000000E+00
-0.4980000E+01  0.0000000E+00
-0.4960000E+01  0.0000000E+00
-0.4940000E+01  0.0000000E+00
-0.4920000E+01  0.0000000E+00
-0.4900000E+01  0.0000000E+00
-0.4880000E+01  0.0000000E+00
-0.4860000E+01  0.0000000E+00
-0.4840000E+01  0.0000000E+00
-0.4820000E+01  0.0000000E+00
-0.4800000E+01  0.0000000E+00
-0.4780000E+01  0.0000000E+00
-0.4760000E+01  0.0000000E+00
-0.4740000E+01  0.0000000E+00
-0.4720000E+01  0.0000000E+00
-0.4700000E+01  0.0000000E+00
-0.4680000E+01  0.0000000E+00
-0.4660000E+01  0.0000000E+00
-0.4640000E+01  0.0000000E+00
-0.4620000E+01  0.0000000E+00
-0.4600000E+01  0.0000000E+00
-0.4580000E+01  0.0000000E+00
-0.4560000E+01  0.0000000E+00
-0.4540000E+01  0.0000000E+00
-0.4520000E+01  0.0000000E+00
-0.4500000E+01  0.0000000E+00
-0.4480000E+01  0.0000000E+00
-0.4460000E+01  0.0000000E+00
-0.4440000E+01  0.0000000E+00
-0.4420000E+01  0.0000000E+00
-0.4400000E+01  0.0000000E+00
-0.4380000E+01  0.0000000E+00
-0.4360000E+01  0.0000000E+00
-0.4340000E+01  0.0000000E+00
-0.4320000E+01  0.0000000E+00
-0.4300000E+01  0.0000000E+00
-0.4280000E+01  0.0000000E+00
-0.4260000E+01  0.0000000E+00
-0.4240000E+01  0.0000000E+00
-0.4220000E+01  0.0000000E+00
-0.4200000E+01  0.0000000E+00
-0.4180000E+01  0.0000000E+00
-0.4160000E+01  0.0000000E+00
-0.4140000E+01  0.0000000E+00
-0.4120000E+01  0.0000000E+00
-0.4100000E+01  0.0000000E+00
-0.4080000E+01  0.0000000E+00
-0.4060000E+01  0.0000000E+00
-0.4040000E+01  0.0000000E+00
-0.4020000E+01  0.0000000E+00
-0.4000000E+01  0.0000000E+00
-0.3980000E+01  0.0000000E+00
-0.3960000E+01  0.0000000E+00
-0.3940000E+01  0.0000000E+00
-0.3920000E+01  0.0000000E+00
-0.3900000E+01  0.0000000E+00
-0.3880000E+01  0.0000000E+00
-0.3860000E+01  0.0000000E+00
-0.3840000E+01  0.0000000E+00
-0.3820000E+01  0.0000000E+00
-0.3800000E+01  0.0000000E+00
-0.3780000E+01  0.0000000E+00
-0.3760000E+01  0.0000000E+00
-0.3740000E+01  0.0000000E+00
-0.3720000E+01  0.0000000E+00
-0.3700000E+01  0.0000000E+00
-0.3680000E+01  0.0000000E+00
-0.3660000E+01  0.0000000E+00
-0.3640000E+01  0.0000000E+00
-0.3620000E+01  0.0000000E+00
-0.3600000E+01  0.0000000E+00
-0.3580000E+01  0.0000000E+00
-0.3560000E+01  0.0000000E+00
-0.3540000E+01  0.0000000E+00
-0.3520000E+01  0.0000000E+00
-0.3500000E+01  0.0000000E+00
-0.3480000E+01  0.0000000E+00
-0.3460000E+01  0.0000000E+00
-0.3440000E+01  0.0000000E+00
-0.3420000E+01  0.0000000E+00
-0.3400000E+01  0.0000000E+00
-0.3380000E+01  0.0000000E+00
-0.3360000E+01  0.0000000E+00
-0.3340000E+01  0.0000000E+00
-0.3320000E+01  0.0000000E+00
-0.3300000E+01  0.0000000E+00
-0.3280000E+01  0.0000000E+00
-0.3260000E+01  0.0000000E+00
-0.3240000E+01  0.0000000E+00
-0.3220000E+01  0.0000000E+00
-0.3200000E+01  0.0000000E+00
-0.3180000E+01  0.0000000E+00
-0.3160000E+01  0.0000000E+00
-0.3140000E+01  0.0000000E+00
-0.3120000E+01  0.0000000E+00
-0.3100000E+01  0.0000000E+00
-0.3080000E+01  0.0000000E+00
-0.3060000E+01  0.0000000E+00
-0.3040000E+01  0.0000000E+00
-0.3020000E+01  0.0000000E+00
-0.3000000E+01  0.0000000E+00
-0.2980000E+01  0.0000000E+00
-0.2960000E+01  0.0000000E+00
-0.2940000E+01  0.0000000E+00
-0.2920000E+01  0.0000000E+00
-0.2900000E+01  0.0000000E+00
-0.2880000E+01  0.0000000E+00
-0.2860000E+01  0.0000000E+00
-0.2840000E+01  0.0000000E+00
-0.2820000E+01  0.0000000E+00
-0.2800000E+01  0.0000000E+00
-0.2780000E+01  0.0000000E+00
-0.2760000E+01  0.0000000E+00
-0.2740000E+01  0.0000000E+00
-0.2720000E+01  0.0000000E+00
-0.2700000E+01  0.0000000E+00
-0.2680000E+01  0.0000000E+00
-0.2660000E+01  0.0000000E+00
-0.2640000E+01  0.0000000E+00
-0.2620000E+01  0.0000000E+00
-0.2600000E+01  0.0000000E+00
-0.2580000E+01  0.0000000E+00
-0.2560000E+01  0.0000000E+00
-0.2540000E+01  0.0000000E+00
-0.2520000E+01  0.0000000E+00
-0.2500000E+01  0.0000000E+00
-0.2480000E+01  0.0000000E+00
-0.2460000E+01  0.0000000E+00
-0.2440000E+01  0.0000000E+00
-0.2420000E+01  0.0000000E+00
-0.2400000E+01  0.0000000E+00
-0.2380000E+01  0.0000000E+00
-0.2360000E+01  0.0000000E+00
-0.2340000E+01  0.0000000E+00
-0.2320000E+01  0.0000000E+00
-0.2300000E+01  0.0000000E+00
-0.2280000E+01  0.0000000E+00
-0.2260000E+01  0.0000000E+00
-0.2240000E+01  0.0000000E+00
-0.2220000E+01  0.0000000E+00
-0.2200000E+01  0.0000000E+00
-0.2180000E+01  0.0000000E+00
-0.2160000E+01  0.0000000E+00
-0.2140000E+01  0.0000000E+00
-0.2120000E+01  0.0000000E+00
-0.2100000E+01  0.0000000E+00
-0.2080000E+01  0.0000000E+00
-0.2060000E+01  0.0000000E+00
-0.2040000E+01  0.0000000E+00
-0.2020000E+01  0.0000000E+00
-0.2000000E+01  0.0000000E+00
-0.1980000E+01  0.0000000E+00
-0.1960000E+01  0.0000000E+00
-0.1940000E+01  0.0000000E+00
-0.1920000E+01  0.0000000E+00
-0.1900000E+01  0.0000000E+00
-0.1880000E+01  0.0000000E+00
-0.1860000E+01  0.0000000E+00
-0.1840000E+01  0.0000000E+00
-0.1820000E+01  0.0000000E+00
-0.1800000E+01  0.0000000E+00
-0.1780000E+01  0.0000000E+00
-0.1760000E+01  0.0000000E+00
-0.1740000E+01  0.0000000E+00
-0.1720000E+01  0.0000000E+00
-0.1700000E+01  0.0000000E+00
-0.1680000E+01  0.0000000E+00
-0.1660000E+01  0.0000000E+00
-0.1640000E+01  0.0000000E+00
-0.1620000E+01  0.0000000E+00
-0.1600000E+01  0.0000000E+00
-0.1580000E+01  0.0000000E+00
-0.1560000E+01  0.0000000E+00
-0.1540000E+01  0.0000000E+00
-0.1520000E+01  0.0000000E+00
-0.1500000E+01  0.0000000E+00
-0.1480000E+01  0.0000000E+00
-0.1460000E+01  0.0000000E+00
-0.1440000E+01  0.0000000E+00
-0.1420000E+01  0.0000000E+00
-0.1400000E+01  0.0000000E+00
-0.1380000E+01  0.0000000E+00
-0.1360000E+01  0.0000000E+00
-0.1340000E+01  0.0000000E+00
-0.1320000E+01  0.0000000E+00
-0.1300000E+01  0.0000000E+00
-0.1280000E+01  0.0000000E+00
-0.1260000E+01  0.0000000E+00
-0.1240000E+01  0.0000000E+00
-0.1220000E+01  0.0000000E+00
-0.1200000E+01  0.0000000E+00
-0.1180000E+01  0.0000000E+00
-0.1160000E+01  0.0000000E+00
-0.1140000E+01  0.0000000E+00
-0.1120000E+01  0.0000000E+00
-0.1100000E+01  0.0000000E+00
-0.1080000E+01  0.0000000E+00
-0.1060000E+01  0.0000000E+00
-0.1040000E+01  0.0000000E+00
-0.1020000E+01  0.0000000E+00
-0.1000000E+01  0.0000000E+00
-0.9800000E+00  0.0000000E+00
-0.9600000E+00  0.0000000E+00
-0.9400000E+00  0.0000000E+00
-0.9200000E+00  0.0000000E+00
-0.9000000E+00  0.0000000E+00
-0.8800000E+00  0.0000000E+00
-0.8600000E+00  0.0000000E+00
-0.8400000E+00  0.0000000E+00
-0.8200000E+00  0.0000000E+00
-0.8000000E+00  0.0000000E+00
-0.7800000E+00  0.0000000E+00
-0.7600000E+00  0.0000000E+00
-0.7400000E+00  0.0000000E+00
-0.7200000E+00  0.0000000E+00
-0.7000000E+00  0.0000000E+00
-0.6800000E+00  0.0000000E+00
-0.6600000E+00  0.0000000E+00
-0.6400000E+00  0.0000000E+00
-0.6200000E+00  0.0000000E+00
-0.6000000E+00  0.0000000E+00
-0.5800000E+00  0.0000000E+00
-0.5600000E+00  0.0000000E+00
-0.5400000E+00  0.0000000E+00
-0.5200000E+00  0.0000000E+00
-0.5000000E+00  0.0000000E+00
-0.4800000E+00  0.0000000E+00
-0.4600000E+00  0.0000000E+00
-0.4400000E+00  0.0000000E+00
-0.4200000E+00  0.0000000E+00
-0.4000000E+00  0.0000000E+00
-0.3800000E+00  0.0000000E+00
-0.3600000E+00  0.0000000E+00
-0.3400000E+00  0.0000000E+00
-0.3200000E+00  0.0000000E+00
-0.3000000E+00  0.0000000E+00
-0.2800000E+00  0.0000000E+00
-0.2600000E+00  0.0000000E+00
-0.2400000E+00  0.0000000E+00
-0.2200000E+00  0.0000000E+00
-0.2000000E+00  0.0000000E+00
-0.1800000E+00  0.0000000E+00
-0.1600000E+00  0.0000000E+00
-0.1400000E+00  0.0000000E+00
-0.1200000E+00  0.0000000E+00
-0.1000000E+00  0.0000000E+00
-0.8000000E-01  0.0000000E+00
-0.6000000E-01  0.0000000E+00
-0.4000000E-01  0.0000000E+00
-0.2000000E-01  0.0000000E+00
 0.0000000E+00  0.0000000E+00
 0.2000000E-01  0.0000000E+00
 0.4000000E-01  0.0000000E+00
 0.6000000E-01  0.0000000E+00
 0.8000000E-01  0.0000000E+00
 0.1000000E+00  0.0000000E+00
 0.1200000E+00  0.0000000E+00
 0.1400000E+00  0.0000000E+00
 0.1600000E+00  0.0000000E+00
 0.1800000E+00  0.0000000E+00
 0.2000000E+00  0.0000000E+00
 0.2200000E+00  0.0000000E+00
 0.2400000E+00  0.0000000E+00
 0.2600000E+00  0.0000000E+00
 0.2800000E+00  0.0000000E+00
 0.3000000E+00  0.0000000E+00
 0.3200000E+00  0.0000000E+00
 0.3400000E+00  0.0000000E+00
 0.3600000E+00  0.0000000E+00
 0.3800000E+00  0.0000000E+00
 0.4000000E+00  0.0000000E+00
 0.4200000E+00  0.0000000E+00
 0.4400000E+00  0.0000000E+00
 0.4600000E+00  0.0000000E+00
 0.4800000E+00  0.0000000E+00
 0.5000000E+00  0.0000000E+00
 0.5200000E+00  0.0000000E+00
 0.5400000E+00  0.0000000E+00
 0.5600000E+00  0.0000000E+00
 0.5800000E+00  0.0000000E+00
 0.6000000E+00  0.0000000E+00
 0.6200000E+00  0.0000000E+00
 0.6400000E+00  0.0000000E+00
 0.6600000E+00  0.0000000E+00
 0.6800000E+00  0.0000000E+00
 0.7000000E+00  0.0000000E+00
 0.7200000E+00  0.0000000E+00
 0.7400000E+00  0.0000000E+00
 0.7600000E+00  0.0000000E+00
 0.7800000E+00  0.0000000E+00
 0.8000000E+00  0.0000000E+00
 0.8200000E+00  0.0000000E+00
 0.8400000E+00  0.0000000E+00
 0.8600000E+00  0.0000000E+00
 0.8800000E+00  0.0000000E+00
 0.9000000E+00  0.0000000E+00
 0.9200000E+00  0.0000000E+00
 0.9400000E+00  0.0000000E+00
 0.9600000E+00  0.0000000E+00
 0.9800000E+00  0.0000000E+00
 0.1000000E+01  0.0000000E+00
 0.1020000E+01  0.0000000E+00
 0.1040000E+01  0.0000000E+00
 0.1060000E+01  0.0000000E+00
 0.1080000E+01  0.0000000E+00
 0.1100000E+01  0.0000000E+00
 0.1120000E+01  0.0000000E+00
 0.1140000E+01  0.0000000E+00
 0.1160000E+01  0.0000000E+00
 0.1180000E+01  0.0000000E+00
 0.1200000E+01  0.0000000E+00
 0.1220000E+01  0.0000000E+00
 0.1240000E+01  0.0000000E+00
 0.1260000E+01  0.0000000E+00
 0.1280000E+01  0.0000000E+00
 0.1300000E+01  0.0000000E+00
 0.1320000E+01  0.0000000E+00
 0.1340000E+01  0.0000000E+00
 0.1360000E+01  0.0000000E+00
 0.1380000E+01  0.0000000E+00
 0.1400000E+01  0.0000000E+00
 0.1420000E+01  0.0000000E+00
 0.1440000E+01  0.0000000E+00
 0.1460000E+01  0.0000000E+00
 0.1480000E+01  0.0000000E+00
 0.1500000E+01  0.0000000E+00
 0.1520000E+01  0.0000000E+00
 0.1540000E+01  0.0000000E+00
 0.1560000E+01  0.0000000E+00
 0.1580000E+01  0.0000000E+00
 0.1600000E+01  0.0000000E+00
 0.1620000E+01  0.0000000E+00
 0.1640000E+01  0.0000000E+00
 0.1660000E+01  0.0000000E+00
 0.1680000E+01  0.0000000E+00
 0.1700000E+01  0.0000000E+00
 0.1720000E+01  0.0000000E+00
 0.1740000E+01  0.0000000E+00
 0.1760000E+01  0.0000000E+00
 0.1780000E+01  0.0000000E+00
 0.1800000E+01  0.0000000E+00
 0.1820000E+01  0.0000000E+00
 0.1840000E+01  0.0000000E+00
 0.1860000E+01  0.0000000E+00
 0.1880000E+01  0.0000000E+00
 0.1900000E+01  0.0000000E+00
 0.1920000E+01  0.0000000E+00
 0.1940000E+01  0.0000000E+00
 0.1960000E+01  0.0000000E+00
 0.1980000E+01  0.0000000E+00
 0.2000000E+01  0.0000000E+00
 0.2020000E+01  0.0000000E+00
 0.2040000E+01  0.0000000E+00
 0.2060000E+01  0.0000000E+00
 0.2080000E+01  0.0000000E+00
 0.2100000E+01  0.0000000E+00
 0.2120000E+01  0.0000000E+00
 0.2140000E+01  0.0000000E+00
 0.2160000E+01  0.0000000E+00
 0.2180000E+01  0.0000000E+00
 0.2200000E+01  0.0000000E+00
 0.2220000E+01  0.0000000E+00
 0.2240000E+01  0.0000000E+00
 0.2260000E+01  0.0000000E+00
 0.2280000E+01  0.0000000E+00
 0.2300000E+01  0.0000000E+00
 0.2320000E+01  0.0000000E+00
 0.2340000E+01  0.0000000E+00
 0.2360000E+01  0.0000000E+00
 0.2380000E+01  0.0000000E+00
 0.2400000E+01  0.0000000E+00
 0.2420000E+01  0.0000000E+00
 0.2440000E+01  0.0000000E+00
 0.2460000E+01  0.0000000E+00
 0.2480000E+01  0.0000000E+00
 0.2500000E+01  0.0000000E+00
 0.2520000E+01  0.0000000E+00
 0.2540000E+01  0.0000000E+00
 0.2560000E+01  0.0000000E+00
 0.2580000E+01  0.0000000E+00
 0.2600000E+01  0.0000000E+00
 0.2620000E+01  0.0000000E+00
 0.2640000E+01  0.0000000E+00
 0.2660000E+01  0.0000000E+00
 0.2680000E+01  0.0000000E+00
 0.2700000E+01  0.0000000E+00
 0.2720000E+01  0.0000000E+00
 0.2740000E+01  0.0000000E+00
 0.2760000E+01  0.0000000E+00
 0.2780000E+01  0.0000000E+00
 0.2800000E+01  0.0000000E+00
 0.2820000E+01  0.0000000E+00
 0.2840000E+01  0.0000000E+00
 0.2860000E+01  0.0000000E+00
 0.2880000E+01  0.0000000E+00
 0.2900000E+01  0.0000000E+00
 0.2920000E+01  0.0000000E+00
 0.2940000E+01  0.0000000E+00
 0.2960000E+01  0.0000000E+00
 0.2980000E+01  0.0000000E+00
 0.3000000E+01  0.0000000E+00
 0.3020000E+01  0.0000000E+00
 0.3040000E+01  0.0000000E+00
 0.3060000E+01  0.0000000E+00
 0.3080000E+01  0.0000000E+00
 0.3100000E+01  0.0000000E+00
 0.3120000E+01  0.0000000E+00
 0.3140000E+01  0.0000000E+00
 0.3160000E+01  0.0000000E+00
 0.3180000E+01  0.0000000E+00
 0.3200000E+01  0.0000000E+00
 0.3220000E+01  0.0000000E+00
 0.3240000E+01  0.0000000E+00
 0.3260000E+01  0.0000000E+00
 0.3280000E+01  0.0000000E+00
 0.3300000E+01  0.0000000E+00
 0.3320000E+01  0.0000000E+00
 0.3340000E+01  0.0000000E+00
 0.3360000E+01  0.0000000E+00
 0.3380000E+01  0.0000000E+00
 0.3400000E+01  0.0000000E+00
 0.3420000E+01  0.0000000E+00
 0.3440000E+01  0.0000000E+00
 0.3460000E+01  0.0000000E+00
 0.3480000E+01  0.0000000E+00
 0.3500000E+01  0.0000000E+00
 0.3520000E+01  0.0000000E+00
 0.3540000E+01  0.0000000E+00
 0.3560000E+01  0.0000000E+00
 0.3580000E+01  0.0000000E+00
 0.3600000E+01  0.0000000E+00
 0.3620000E+01  0.0000000E+00
 0.3640000E+01  0.0000000E+00
 0.3660000E+01  0.0000000E+00
 0.3680000E+01  0.0000000E+00
 0.3700000E+01  0.0000000E+00
 0.3720000E+01  0.0000000E+00
 0.3740000E+01  0.0000000E+00
 0.3760000E+01  0.0000000E+00
 0.3780000E+01  0.0000000E+00
 0.3800000E+01  0.0000000E+00
 0.3820000E+01  0.0000000E+00
 0.3840000E+01  0.0000000E+00
 0.3860000E+01  0.0000000E+00
 0.3880000E+01  0.0000000E+00
 0.3900000E+01 -0.0000000E+00
 0.3920000E+01 -0.0000000E+00
 0.3940000E+01 -0.0000000E+00
 0.3960000E+01 -0.0000000E+00
 0.3980000E+01 -0.0000000E+00
 0.4000000E+01 -0.0000000E+00
 0.4020000E+01  0.0000000E+00
 0.4040000E+01  0.0000000E+00
 0.4060000E+01 -0.2269758E-37
 0.4080000E+01 -0.8284427E-37
 0.4100000E+01 -0.1841121E-36
 0.4120000E+01 -0.2770063E-36
 0.4140000E+01 -0.3782708E-36
 0.4160000E+01 -0.4671270E-36
 0.4180000E+01 -0.5150019E-36
 0.4200000E+01 -0.1633872E-36
 0.4220000E+01  0.2748159E-36
 0.4240000E+01  0.8056139E-36
 0.4260000E+01  0.1393121E-35
 0.4280000E+01  0.1643990E-35
 0.4300000E+01  0.1280348E-35
 0.4320000E+01  0.3027549E-36
 0.4340000E+01 -0.1229726E-35
 0.4360000E+01 -0.2631454E-35
 0.4380000E+01 -0.3668856E-35
 0.4400000E+01 -0.3366026E-35
 0.4420000E+01 -0.1690829E-35
 0.4440000E+01  0.2357881E-36
 0.4460000E+01  0.2031569E-35
 0.4480000E+01  0.2961818E-35
 0.4500000E+01  0.3134003E-35
 0.4520000E+01  0.2991404E-35
 0.4540000E+01  0.2106616E-35
 0.4560000E+01  0.1422438E-35
 0.4580000E+01  0.7463388E-36
 0.4600000E+01 -0.4510048E-36
 0.4620000E+01 -0.3389232E-35
 0.4640000E+01 -0.8334144E-35
 0.4660000E+01 -0.1472443E-34
 0.4680000E+01 -0.1964233E-34
 0.4700000E+01 -0.2030287E-34
 0.4720000E+01 -0.1310124E-34
 0.4740000E+01  0.4335062E-35
 0.4760000E+01  0.3129794E-34
 0.4780000E+01  0.6172418E-34
 0.4800000E+01  0.8507995E-34
 0.4820000E+01  0.8795304E-34
 0.4840000E+01  0.5898534E-34
 0.4860000E+01 -0.5471259E-35
 0.4880000E+01 -0.9669972E-34
 0.4900000E+01 -0.1915050E-33
 0.4920000E+01 -0.2554191E-33
 0.4940000E+01 -0.2520862E-33
 0.4960000E+01 -0.1571316E-33
 0.4980000E+01  0.2769001E-34
 0.5000000E+01  0.2657075E-33
 0.5020000E+01  0.4881144E-33
 0.5040000E+01  0.6099201E-33
 0.5060000E+01  0.5582654E-33
 0.5080000E+01  0.3039535E-33
 0.5100000E+01 -0.1154846E-33
 0.5120000E+01 -0.5932967E-33
 0.5140000E+01 -0.9781921E-33
 0.5160000E+01 -0.1122767E-32
 0.5180000E+01 -0.9409124E-33
 0.5200000E+01 -0.4516087E-33
 0.5220000E+01  0.2130043E-33
 0.5240000E+01  0.8465536E-33
 0.5260000E+01  0.1246345E-32
 0.5280000E+01  0.1301560E-32
 0.5300000E+01  0.1050648E-32
 0.5320000E+01  0.6714403E-33
 0.5340000E+01  0.3922835E-33
 0.5360000E+01  0.3511635E-33
 0.5380000E+01  0.4671736E-33
 0.5400000E+01  0.4047753E-33
 0.5420000E+01 -0.3099578E-33
 0.5440000E+01 -0.2023202E-32
 0.5460000E+01 -0.4623897E-32
 0.5480000E+01 -0.7309912E-32
 0.5500000E+01 -0.8627215E-32
 0.5520000E+01 -0.6892740E-32
 0.5540000E+01 -0.9603604E-33
 0.5560000E+01  0.8903715E-32
 0.5580000E+01  0.2042524E-31
 0.5600000E+01  0.2942128E-31
 0.5620000E+01  0.3084517E-31
 0.5640000E+01  0.2067842E-31
 0.5660000E+01 -0.1864405E-32
 0.5680000E+01 -0.3269939E-31
 0.5700000E+01 -0.6275314E-31
 0.5720000E+01 -0.7996058E-31
 0.5740000E+01 -0.7324338E-31
 0.5760000E+01 -0.3740557E-31
 0.5780000E+01  0.2287112E-31
 0.5800000E+01  0.9193139E-31
 0.5820000E+01  0.1462985E-30
 0.5840000E+01  0.1619731E-30
 0.5860000E+01  0.1239416E-30
 0.5880000E+01  0.3444255E-31
 0.5900000E+01 -0.8386938E-31
 0.5920000E+01 -0.1925320E-30
 0.5940000E+01 -0.2496114E-30
 0.5960000E+01 -0.2262869E-30
 0.5980000E+01 -0.1214214E-30
 0.6000000E+01  0.3283565E-31
 0.6020000E+01  0.1790560E-30
 0.6040000E+01  0.2557239E-30
 0.6060000E+01  0.2249492E-30
 0.6080000E+01  0.9522711E-31
 0.6100000E+01 -0.7295319E-31
 0.6120000E+01 -0.1859698E-30
 0.6140000E+01 -0.1579375E-30
 0.6160000E+01  0.4033112E-31
 0.6180000E+01  0.3463621E-30
 0.6200000E+01  0.6071126E-30
 0.6220000E+01  0.6274873E-30
 0.6240000E+01  0.2581139E-30
 0.6260000E+01 -0.5075969E-30
 0.6280000E+01 -0.1471510E-29
 0.6300000E+01 -0.2246282E-29
 0.6320000E+01 -0.2367933E-29
 0.6340000E+01 -0.1485881E-29
 0.6360000E+01  0.4317365E-30
 0.6380000E+01  0.2966759E-29
 0.6400000E+01  0.5277814E-29
 0.6420000E+01  0.6324069E-29
 0.6440000E+01  0.5248328E-29
 0.6460000E+01  0.1799485E-29
 0.6480000E+01 -0.3378489E-29
 0.6500000E+01 -0.8755114E-29
 0.6520000E+01 -0.1229974E-28
 0.6540000E+01 -0.1218329E-28
 0.6560000E+01 -0.7579017E-29
 0.6580000E+01  0.7543190E-30
 0.6600000E+01  0.1041121E-28
 0.6620000E+01  0.1795544E-28
 0.6640000E+01  0.2011306E-28
 0.6660000E+01  0.1516593E-28
 0.6680000E+01  0.3989243E-29
 0.6700000E+01 -0.9801953E-29
 0.6720000E+01 -0.2086870E-28
 0.6740000E+01 -0.2414737E-28
 0.6760000E+01 -0.1717050E-28
 0.6780000E+01 -0.1739944E-29
 0.6800000E+01  0.1596543E-28
 0.6820000E+01  0.2728727E-28
 0.6840000E+01  0.2462959E-28
 0.6860000E+01  0.5439305E-29
 0.6880000E+01 -0.2510129E-28
 0.6900000E+01 -0.5427491E-28
 0.6920000E+01 -0.6564592E-28
 0.6940000E+01 -0.4577416E-28
 0.6960000E+01  0.8405465E-29
 0.6980000E+01  0.8469146E-28
 0.7000000E+01  0.1561376E-27
 0.7020000E+01  0.1883297E-27
 0.7040000E+01  0.1521644E-27
 0.7060000E+01  0.3813447E-28
 0.7080000E+01 -0.1335970E-27
 0.7100000E+01 -0.3127721E-27
 0.7120000E+01 -0.4310202E-27
 0.7140000E+01 -0.4244848E-27
 0.7160000E+01 -0.2604557E-27
 0.7180000E+01  0.4189760E-28
 0.7200000E+01  0.4064937E-27
 0.7220000E+01  0.7165981E-27
 0.7240000E+01  0.8505180E-27
 0.7260000E+01  0.7265557E-27
 0.7280000E+01  0.3412031E-27
 0.7300000E+01 -0.2159196E-27
 0.7320000E+01 -0.7805901E-27
 0.7340000E+01 -0.1164463E-26
 0.7360000E+01 -0.1222593E-26
 0.7380000E+01 -0.9134037E-27
 0.7400000E+01 -0.3253246E-27
 0.7420000E+01  0.3461291E-27
 0.7440000E+01  0.8687784E-27
 0.7460000E+01  0.1068660E-26
 0.7480000E+01  0.9113568E-27
 0.7500000E+01  0.5304934E-27
 0.7520000E+01  0.1801858E-27
 0.7540000E+01  0.1181605E-27
 0.7560000E+01  0.4601266E-27
 0.7580000E+01  0.1069408E-26
 0.7600000E+01  0.1546029E-26
 0.7620000E+01  0.1350342E-26
 0.7640000E+01  0.4365946E-28
 0.7660000E+01 -0.2431064E-26
 0.7680000E+01 -0.5547027E-26
 0.7700000E+01 -0.8189476E-26
 0.7720000E+01 -0.8918774E-26
 0.7740000E+01 -0.6474980E-26
 0.7760000E+01 -0.3875335E-27
 0.7780000E+01  0.8531079E-26
 0.7800000E+01  0.1804662E-25
 0.7820000E+01  0.2488346E-25
 0.7840000E+01  0.2562844E-25
 0.7860000E+01  0.1795900E-25
 0.7880000E+01  0.1819302E-26
 0.7900000E+01 -0.1990956E-25
 0.7920000E+01 -0.4162137E-25
 0.7940000E+01 -0.5621883E-25
 0.7960000E+01 -0.5716760E-25
 0.7980000E+01 -0.4082660E-25
 0.8000000E+01 -0.8296218E-26
 0.8020000E+01  0.3395568E-25
 0.8040000E+01  0.7514066E-25
 0.8060000E+01  0.1028150E-24
 0.8080000E+01  0.1065318E-24
 0.8100000E+01  0.8140262E-25
 0.8120000E+01  0.3035768E-25
 0.8140000E+01 -0.3582372E-25
 0.8160000E+01 -0.1009827E-24
 0.8180000E+01 -0.1479733E-24
 0.8200000E+01 -0.1636566E-24
 0.8220000E+01 -0.1428297E-24
 0.8240000E+01 -0.8967322E-25
 0.8260000E+01 -0.1611999E-25
 0.8280000E+01  0.6228942E-25
 0.8300000E+01  0.1314450E-24
 0.8320000E+01  0.1824802E-24
 0.8340000E+01  0.2126102E-24
 0.8360000E+01  0.2224924E-24
 0.8380000E+01  0.2113244E-24
 0.8400000E+01  0.1724123E-24
 0.8420000E+01  0.9246071E-25
 0.8440000E+01 -0.4314587E-25
 0.8460000E+01 -0.2392816E-24
 0.8480000E+01 -0.4777028E-24
 0.8500000E+01 -0.7075948E-24
 0.8520000E+01 -0.8470536E-24
 0.8540000E+01 -0.8003128E-24
 0.8560000E+01 -0.4902544E-24
 0.8580000E+01  0.1013242E-24
 0.8600000E+01  0.8995368E-24
 0.8620000E+01  0.1724923E-23
 0.8640000E+01  0.2317944E-23
 0.8660000E+01  0.2402893E-23
 0.8680000E+01  0.1780241E-23
 0.8700000E+01  0.4217896E-24
 0.8720000E+01 -0.1465886E-23
 0.8740000E+01 -0.3442451E-23
 0.8760000E+01 -0.4917077E-23
 0.8780000E+01 -0.5306067E-23
 0.8800000E+01 -0.4227661E-23
 0.8820000E+01 -0.1674189E-23
 0.8840000E+01  0.1903774E-23
 0.8860000E+01  0.5649291E-23
 0.8880000E+01  0.8496029E-23
 0.8900000E+01  0.9469323E-23
 0.8920000E+01  0.8005757E-23
 0.8940000E+01  0.4184729E-23
 0.8960000E+01 -0.1219614E-23
 0.8980000E+01 -0.6906064E-23
 0.9000000E+01 -0.1139963E-22
 0.9020000E+01 -0.1348468E-22
 0.9040000E+01 -0.1257195E-22
 0.9060000E+01 -0.8865340E-23
 0.9080000E+01 -0.3261142E-23
 0.9100000E+01  0.2985599E-23
 0.9120000E+01  0.8693966E-23
 0.9140000E+01  0.1310337E-22
 0.9160000E+01  0.1597260E-22
 0.9180000E+01  0.1737594E-22
 0.9200000E+01  0.1729157E-22
 0.9220000E+01  0.1521086E-22
 0.9240000E+01  0.1004525E-22
 0.9260000E+01  0.5242774E-24
 0.9280000E+01 -0.1393088E-22
 0.9300000E+01 -0.3214358E-22
 0.9320000E+01 -0.5042969E-22
 0.9340000E+01 -0.6270602E-22
 0.9360000E+01 -0.6180660E-22
 0.9380000E+01 -0.4192281E-22
 0.9400000E+01 -0.1544656E-23
 0.9420000E+01  0.5415969E-22
 0.9440000E+01  0.1127101E-21
 0.9460000E+01  0.1562700E-21
 0.9480000E+01  0.1662464E-21
 0.9500000E+01  0.1295595E-21
 0.9520000E+01  0.4469578E-22
 0.9540000E+01 -0.7474574E-22
 0.9560000E+01 -0.2009077E-21
 0.9580000E+01 -0.2976169E-21
 0.9600000E+01 -0.3303764E-21
 0.9620000E+01 -0.2776871E-21
 0.9640000E+01 -0.1400085E-21
 0.9660000E+01  0.5709513E-22
 0.9680000E+01  0.2675209E-21
 0.9700000E+01  0.4363025E-21
 0.9720000E+01  0.5151897E-21
 0.9740000E+01  0.4771990E-21
 0.9760000E+01  0.3251460E-21
 0.9780000E+01  0.9100867E-22
 0.9800000E+01 -0.1738121E-21
 0.9820000E+01 -0.4138321E-21
 0.9840000E+01 -0.5846536E-21
 0.9860000E+01 -0.6622017E-21
 0.9880000E+01 -0.6427717E-21
 0.9900000E+01 -0.5348279E-21
 0.9920000E+01 -0.3476525E-21
 0.9940000E+01 -0.8408890E-22
 0.9960000E+01  0.2566275E-21
 0.9980000E+01  0.6646725E-21
 0.1000000E+02  0.1099380E-20
 0.1002000E+02  0.1473867E-20
 0.1004000E+02  0.1657133E-20
 0.1006000E+02  0.1501986E-20
 0.1008000E+02  0.8973743E-21
 0.1010000E+02 -0.1685648E-21
 0.1012000E+02 -0.1558377E-20
 0.1014000E+02 -0.2974199E-20
 0.1016000E+02 -0.4003845E-20
 0.1018000E+02 -0.4224382E-20
 0.1020000E+02 -0.3340903E-20
 0.1022000E+02 -0.1318905E-20
 0.1024000E+02  0.1538918E-20
 0.1026000E+02  0.4611016E-20
 0.1028000E+02  0.7083595E-20
 0.1030000E+02  0.8162660E-20
 0.1032000E+02  0.7314928E-20
 0.1034000E+02  0.4462955E-20
 0.1036000E+02  0.6588894E-22
 0.1038000E+02 -0.4951569E-20
 0.1040000E+02 -0.9412135E-20
 0.1042000E+02 -0.1218358E-19
 0.1044000E+02 -0.1247378E-19
 0.1046000E+02 -0.1003552E-19
 0.1048000E+02 -0.5223690E-20
 0.1050000E+02  0.1101553E-20
 0.1052000E+02  0.7781630E-20
 0.1054000E+02  0.1360095E-19
 0.1056000E+02  0.1748962E-19
 0.1058000E+02  0.1864706E-19
 0.1060000E+02  0.1659456E-19
 0.1062000E+02  0.1120350E-19
 0.1064000E+02  0.2752920E-20
 0.1066000E+02 -0.7962372E-20
 0.1068000E+02 -0.1951293E-19
 0.1070000E+02 -0.2980413E-19
 0.1072000E+02 -0.3625465E-19
 0.1074000E+02 -0.3626346E-19
 0.1076000E+02 -0.2793991E-19
 0.1078000E+02 -0.1093551E-19
 0.1080000E+02  0.1289837E-19
 0.1082000E+02  0.3933448E-19
 0.1084000E+02  0.6229694E-19
 0.1086000E+02  0.7511597E-19
 0.1088000E+02  0.7227984E-19
 0.1090000E+02  0.5123047E-19
 0.1092000E+02  0.1364919E-19
 0.1094000E+02 -0.3424319E-19
 0.1096000E+02 -0.8259716E-19
 0.1098000E+02 -0.1199324E-18
 0.1100000E+02 -0.1357669E-18
 0.1102000E+02 -0.1232218E-18
 0.1104000E+02 -0.8094996E-19
 0.1106000E+02 -0.1393322E-19
 0.1108000E+02  0.6700241E-19
 0.1110000E+02  0.1468043E-18
 0.1112000E+02  0.2086118E-18
 0.1114000E+02  0.2366055E-18
 0.1116000E+02  0.2189784E-18
 0.1118000E+02  0.1507686E-18
 0.1120000E+02  0.3623888E-19
 0.1122000E+02 -0.1096983E-18
 0.1124000E+02 -0.2617281E-18
 0.1126000E+02 -0.3868183E-18
 0.1128000E+02 -0.4497934E-18
 0.1130000E+02 -0.4214708E-18
 0.1132000E+02 -0.2879368E-18
 0.1134000E+02 -0.5847538E-19
 0.1136000E+02  0.2308488E-18
 0.1138000E+02  0.5204802E-18
 0.1140000E+02  0.7384407E-18
 0.1142000E+02  0.8176283E-18
 0.1144000E+02  0.7152513E-18
 0.1146000E+02  0.4286589E-18
 0.1148000E+02  0.1938155E-20
 0.1150000E+02 -0.4801726E-18
 0.1152000E+02 -0.9107046E-18
 0.1154000E+02 -0.1186666E-17
 0.1156000E+02 -0.1235453E-17
 0.1158000E+02 -0.1033330E-17
 0.1160000E+02 -0.6103186E-18
 0.1162000E+02 -0.4054519E-19
 0.1164000E+02  0.5776413E-18
 0.1166000E+02  0.1143868E-17
 0.1168000E+02  0.1572153E-17
 0.1170000E+02  0.1796984E-17
 0.1172000E+02  0.1770397E-17
 0.1174000E+02  0.1457048E-17
 0.1176000E+02  0.8364532E-18
 0.1178000E+02 -0.8140047E-19
 0.1180000E+02 -0.1228745E-17
 0.1182000E+02 -0.2452512E-17
 0.1184000E+02 -0.3505042E-17
 0.1186000E+02 -0.4071103E-17
 0.1188000E+02 -0.3839308E-17
 0.1190000E+02 -0.2608180E-17
 0.1192000E+02 -0.3974418E-18
 0.1194000E+02  0.2478155E-17
 0.1196000E+02  0.5414123E-17
 0.1198000E+02  0.7623644E-17