  -2.4000000000000000E-002     0.0000000000000000     
  -2.3869999999999999E-002     0.0000000000000000     
  -2.3740000000000001E-002     0.0000000000000000     
  -2.3609999999999999E-002     0.0000000000000000     
  -2.3480000000000001E-002     0.0000000000000000     
  -2.3349999999999999E-002     0.0000000000000000     
  -2.3220000000000001E-002     0.0000000000000000     
  -2.3089999999999999E-002     0.0000000000000000     
  -2.2960000000000001E-002     0.0000000000000000     
  -2.2830000000000000E-002     0.0000000000000000     
  -2.2700000000000001E-002     0.0000000000000000     
  -2.2570000000000000E-002     0.0000000000000000     
  -2.2440000000000002E-002     0.0000000000000000     
  -2.2310000000000000E-002     0.0000000000000000     
  -2.2180000000000002E-002     0.0000000000000000     
  -2.2050000000000000E-002     0.0000000000000000     
  -2.1920000000000002E-002     0.0000000000000000     
  -2.1790000000000000E-002     0.0000000000000000     
  -2.1660000000000002E-002     0.0000000000000000     
  -2.1530000000000001E-002     0.0000000000000000     
  -2.1400000000000002E-002     0.0000000000000000     
  -2.1270000000000001E-002     0.0000000000000000     
  -2.1139999999999999E-002     0.0000000000000000     
  -2.1010000000000001E-002     0.0000000000000000     
  -2.0880000000000003E-002     0.0000000000000000     
  -2.0750000000000001E-002     0.0000000000000000     
  -2.0619999999999999E-002     0.0000000000000000     
  -2.0490000000000001E-002     0.0000000000000000     
  -2.0360000000000000E-002     0.0000000000000000     
  -2.0230000000000001E-002     0.0000000000000000     
  -2.0100000000000000E-002     0.0000000000000000     
  -1.9970000000000002E-002     0.0000000000000000     
  -1.9840000000000000E-002     0.0000000000000000     
  -1.9710000000000002E-002     0.0000000000000000     
  -1.9580000000000000E-002     0.0000000000000000     
  -1.9450000000000002E-002     0.0000000000000000     
  -1.9320000000000000E-002     0.0000000000000000     
  -1.9190000000000002E-002     0.0000000000000000     
  -1.9060000000000001E-002     0.0000000000000000     
  -1.8930000000000002E-002     0.0000000000000000     
  -1.8800000000000001E-002     0.0000000000000000     
  -1.8669999999999999E-002     0.0000000000000000     
  -1.8540000000000001E-002     0.0000000000000000     
  -1.8410000000000003E-002     0.0000000000000000     
  -1.8280000000000001E-002     0.0000000000000000     
  -1.8149999999999999E-002     0.0000000000000000     
  -1.8020000000000001E-002     0.0000000000000000     
  -1.7890000000000003E-002     0.0000000000000000     
  -1.7760000000000001E-002     0.0000000000000000     
  -1.7630000000000000E-002     0.0000000000000000     
  -1.7500000000000002E-002     0.0000000000000000     
  -1.7370000000000000E-002     0.0000000000000000     
  -1.7240000000000002E-002     0.0000000000000000     
  -1.7110000000000000E-002     0.0000000000000000     
  -1.6980000000000002E-002     0.0000000000000000     
  -1.6850000000000000E-002     0.0000000000000000     
  -1.6720000000000002E-002     0.0000000000000000     
  -1.6590000000000001E-002     0.0000000000000000     
  -1.6460000000000002E-002     0.0000000000000000     
  -1.6330000000000001E-002     0.0000000000000000     
  -1.6199999999999999E-002     0.0000000000000000     
  -1.6070000000000001E-002     0.0000000000000000     
  -1.5940000000000003E-002     0.0000000000000000     
  -1.5810000000000001E-002     0.0000000000000000     
  -1.5679999999999999E-002     0.0000000000000000     
  -1.5550000000000001E-002     0.0000000000000000     
  -1.5420000000000001E-002     0.0000000000000000     
  -1.5290000000000002E-002     0.0000000000000000     
  -1.5160000000000002E-002     0.0000000000000000     
  -1.5030000000000002E-002     0.0000000000000000     
  -1.4900000000000002E-002     0.0000000000000000     
  -1.4770000000000002E-002     0.0000000000000000     
  -1.4640000000000002E-002     0.0000000000000000     
  -1.4510000000000002E-002     0.0000000000000000     
  -1.4380000000000002E-002     0.0000000000000000     
  -1.4250000000000001E-002     0.0000000000000000     
  -1.4120000000000001E-002     0.0000000000000000     
  -1.3990000000000001E-002     0.0000000000000000     
  -1.3860000000000001E-002     0.0000000000000000     
  -1.3730000000000001E-002     0.0000000000000000     
  -1.3600000000000001E-002     0.0000000000000000     
  -1.3470000000000001E-002     0.0000000000000000     
  -1.3340000000000001E-002     0.0000000000000000     
  -1.3210000000000001E-002     0.0000000000000000     
  -1.3080000000000001E-002     0.0000000000000000     
  -1.2950000000000001E-002     0.0000000000000000     
  -1.2820000000000002E-002     0.0000000000000000     
  -1.2690000000000002E-002     0.0000000000000000     
  -1.2560000000000002E-002     0.0000000000000000     
  -1.2430000000000002E-002     0.0000000000000000     
  -1.2300000000000002E-002     0.0000000000000000     
  -1.2170000000000002E-002     0.0000000000000000     
  -1.2040000000000002E-002     0.0000000000000000     
  -1.1910000000000002E-002     0.0000000000000000     
  -1.1780000000000002E-002     0.0000000000000000     
  -1.1650000000000002E-002     0.0000000000000000     
  -1.1520000000000002E-002     0.0000000000000000     
  -1.1390000000000001E-002     0.0000000000000000     
  -1.1260000000000001E-002     0.0000000000000000     
  -1.1130000000000001E-002     0.0000000000000000     
  -1.1000000000000001E-002     0.0000000000000000     
  -1.0870000000000001E-002     0.0000000000000000     
  -1.0740000000000001E-002     0.0000000000000000     
  -1.0610000000000001E-002     0.0000000000000000     
  -1.0480000000000001E-002     0.0000000000000000     
  -1.0350000000000002E-002     0.0000000000000000     
  -1.0220000000000002E-002     0.0000000000000000     
  -1.0090000000000002E-002     0.0000000000000000     
  -9.9600000000000018E-003     0.0000000000000000     
  -9.8300000000000019E-003     0.0000000000000000     
  -9.7000000000000020E-003     0.0000000000000000     
  -9.5700000000000021E-003     0.0000000000000000     
  -9.4400000000000022E-003     0.0000000000000000     
  -9.3100000000000023E-003     0.0000000000000000     
  -9.1800000000000024E-003     0.0000000000000000     
  -9.0500000000000025E-003     0.0000000000000000     
  -8.9200000000000026E-003     0.0000000000000000     
  -8.7900000000000027E-003     0.0000000000000000     
  -8.6600000000000010E-003     0.0000000000000000     
  -8.5300000000000011E-003     0.0000000000000000     
  -8.4000000000000012E-003     0.0000000000000000     
  -8.2700000000000030E-003     0.0000000000000000     
  -8.1400000000000014E-003     0.0000000000000000     
  -8.0100000000000032E-003     0.0000000000000000     
  -7.8800000000000016E-003     0.0000000000000000     
  -7.7500000000000034E-003     0.0000000000000000     
  -7.6200000000000018E-003     0.0000000000000000     
  -7.4900000000000036E-003     0.0000000000000000     
  -7.3600000000000020E-003     0.0000000000000000     
  -7.2300000000000003E-003     0.0000000000000000     
  -7.1000000000000021E-003     0.0000000000000000     
  -6.9700000000000005E-003     0.0000000000000000     
  -6.8400000000000023E-003     0.0000000000000000     
  -6.7100000000000007E-003     0.0000000000000000     
  -6.5800000000000025E-003     0.0000000000000000     
  -6.4500000000000009E-003     0.0000000000000000     
  -6.3200000000000027E-003     0.0000000000000000     
  -6.1900000000000011E-003     0.0000000000000000     
  -6.0600000000000029E-003     0.0000000000000000     
  -5.9300000000000012E-003     0.0000000000000000     
  -5.8000000000000031E-003     0.0000000000000000     
  -5.6700000000000014E-003     0.0000000000000000     
  -5.5400000000000033E-003     0.0000000000000000     
  -5.4100000000000016E-003     0.0000000000000000     
  -5.2800000000000034E-003     0.0000000000000000     
  -5.1500000000000018E-003     0.0000000000000000     
  -5.0200000000000036E-003     0.0000000000000000     
  -4.8900000000000020E-003     0.0000000000000000     
  -4.7600000000000038E-003     0.0000000000000000     
  -4.6300000000000022E-003     0.0000000000000000     
  -4.5000000000000005E-003     0.0000000000000000     
  -4.3700000000000024E-003     0.0000000000000000     
  -4.2400000000000007E-003     0.0000000000000000     
  -4.1100000000000025E-003     0.0000000000000000     
  -3.9800000000000009E-003     0.0000000000000000     
  -3.8500000000000027E-003     0.0000000000000000     
  -3.7200000000000011E-003     0.0000000000000000     
  -3.5900000000000029E-003     0.0000000000000000     
  -3.4600000000000013E-003     0.0000000000000000     
  -3.3300000000000031E-003     0.0000000000000000     
  -3.2000000000000015E-003     0.0000000000000000     
  -3.0700000000000033E-003     0.0000000000000000     
  -2.9400000000000016E-003     0.0000000000000000     
  -2.8100000000000035E-003     0.0000000000000000     
  -2.6800000000000018E-003     0.0000000000000000     
  -2.5500000000000037E-003     0.0000000000000000     
  -2.4200000000000020E-003     0.0000000000000000     
  -2.2900000000000038E-003     0.0000000000000000     
  -2.1600000000000022E-003     0.0000000000000000     
  -2.0300000000000040E-003     0.0000000000000000     
  -1.9000000000000024E-003     0.0000000000000000     
  -1.7700000000000007E-003     0.0000000000000000     
  -1.6400000000000026E-003     0.0000000000000000     
  -1.5100000000000009E-003     0.0000000000000000     
  -1.3800000000000028E-003     0.0000000000000000     
  -1.2500000000000011E-003     0.0000000000000000     
  -1.1200000000000029E-003     0.0000000000000000     
  -9.9000000000000130E-004     0.0000000000000000     
  -8.6000000000000312E-004     0.0000000000000000     
  -7.3000000000000148E-004     0.0000000000000000     
  -6.0000000000000331E-004     0.0000000000000000     
  -4.7000000000000167E-004     0.0000000000000000     
  -3.4000000000000349E-004     0.0000000000000000     
  -2.1000000000000185E-004     0.0000000000000000     
  -8.0000000000003679E-005     0.0000000000000000     
   4.9999999999997963E-005     0.0000000000000000     
   1.7999999999999614E-004     0.0000000000000000     
   3.0999999999999778E-004     0.0000000000000000     
   4.3999999999999595E-004     0.0000000000000000     
   5.6999999999999759E-004     0.0000000000000000     
   6.9999999999999576E-004     0.0000000000000000     
   8.2999999999999741E-004     0.0000000000000000     
   9.5999999999999558E-004     0.0000000000000000     
   1.0899999999999972E-003     0.0000000000000000     
   1.2199999999999989E-003     0.0000000000000000     
   1.3499999999999970E-003     0.0000000000000000     
   1.4799999999999987E-003     0.0000000000000000     
   1.6099999999999969E-003     0.0000000000000000     
   1.7399999999999985E-003     0.0000000000000000     
   1.8699999999999967E-003     0.0000000000000000     
   1.9999999999999983E-003     0.0000000000000000     
   2.1299999999999965E-003     0.0000000000000000     
   2.2599999999999981E-003     0.0000000000000000     
   2.3899999999999963E-003     0.0000000000000000     
   2.5199999999999979E-003     0.0000000000000000     
   2.6499999999999961E-003     0.0000000000000000     
   2.7799999999999978E-003     0.0000000000000000     
   2.9099999999999959E-003     0.0000000000000000     
   3.0399999999999976E-003     0.0000000000000000     
   3.1699999999999957E-003     0.0000000000000000     
   3.2999999999999974E-003     0.0000000000000000     
   3.4299999999999956E-003     0.0000000000000000     
   3.5599999999999972E-003     0.0000000000000000     
   3.6899999999999954E-003     0.0000000000000000     
   3.8199999999999970E-003     0.0000000000000000     
   3.9499999999999987E-003     0.0000000000000000     
   4.0799999999999968E-003     0.0000000000000000     
   4.2099999999999985E-003     0.0000000000000000     
   4.3399999999999966E-003     0.0000000000000000     
   4.4699999999999983E-003     0.0000000000000000     
   4.5999999999999965E-003     0.0000000000000000     
   4.7299999999999981E-003     0.0000000000000000     
   4.8599999999999963E-003     0.0000000000000000     
   4.9899999999999979E-003     0.0000000000000000     
   5.1199999999999961E-003     0.0000000000000000     
   5.2499999999999977E-003     0.0000000000000000     
   5.3799999999999959E-003     0.0000000000000000     
   5.5099999999999975E-003     0.0000000000000000     
   5.6399999999999957E-003     0.0000000000000000     
   5.7699999999999974E-003     0.0000000000000000     
   5.8999999999999955E-003     0.0000000000000000     
   6.0299999999999972E-003     0.0000000000000000     
   6.1599999999999953E-003     0.0000000000000000     
   6.2899999999999970E-003     0.0000000000000000     
   6.4199999999999952E-003     0.0000000000000000     
   6.5499999999999968E-003     0.0000000000000000     
   6.6799999999999984E-003     0.0000000000000000     
   6.8099999999999966E-003     0.0000000000000000     
   6.9399999999999983E-003     0.0000000000000000     
   7.0699999999999964E-003     0.0000000000000000     
   7.1999999999999981E-003     0.0000000000000000     
   7.3299999999999962E-003     0.0000000000000000     
   7.4599999999999944E-003     0.0000000000000000     
   7.5899999999999995E-003     0.0000000000000000     
   7.7199999999999977E-003     0.0000000000000000     
   7.8499999999999959E-003     0.0000000000000000     
   7.9799999999999940E-003     0.0000000000000000     
   8.1099999999999992E-003     0.0000000000000000     
   8.2399999999999973E-003     0.0000000000000000     
   8.3699999999999955E-003     0.0000000000000000     
   8.4999999999999937E-003     0.0000000000000000     
   8.6299999999999988E-003     0.0000000000000000     
   8.7599999999999970E-003     0.0000000000000000     
   8.8899999999999951E-003     0.0000000000000000     
   9.0199999999999933E-003     0.0000000000000000     
   9.1499999999999984E-003     0.0000000000000000     
   9.2799999999999966E-003     0.0000000000000000     
   9.4099999999999948E-003     0.0000000000000000     
   9.5399999999999999E-003     0.0000000000000000     
   9.6699999999999980E-003     0.0000000000000000     
   9.7999999999999962E-003     0.0000000000000000     
   9.9299999999999944E-003     0.0000000000000000     
   1.0059999999999999E-002     0.0000000000000000     
   1.0189999999999998E-002     0.0000000000000000     
   1.0319999999999996E-002     0.0000000000000000     
   1.0449999999999994E-002     0.0000000000000000     
   1.0579999999999999E-002     0.0000000000000000     
   1.0709999999999997E-002     0.0000000000000000     
   1.0839999999999995E-002     0.0000000000000000     
   1.0969999999999994E-002     0.0000000000000000     
   1.1099999999999999E-002     0.0000000000000000     
   1.1229999999999997E-002     0.0000000000000000     
   1.1359999999999995E-002     0.0000000000000000     
   1.1489999999999993E-002     0.0000000000000000     
   1.1619999999999998E-002     0.0000000000000000     
   1.1749999999999997E-002     0.0000000000000000     
   1.1879999999999995E-002     0.0000000000000000     
   1.2009999999999993E-002     0.0000000000000000     
   1.2139999999999998E-002     0.0000000000000000     
   1.2269999999999996E-002     0.0000000000000000     
   1.2399999999999994E-002     0.0000000000000000     
   1.2529999999999999E-002     0.0000000000000000     
   1.2659999999999998E-002     0.0000000000000000     
   1.2789999999999996E-002     0.0000000000000000     
   1.2919999999999994E-002     0.0000000000000000     
   1.3049999999999999E-002     0.0000000000000000     
   1.3179999999999997E-002     0.0000000000000000     
   1.3309999999999995E-002     0.0000000000000000     
   1.3439999999999994E-002     0.0000000000000000     
   1.3569999999999999E-002     0.0000000000000000     
   1.3699999999999997E-002     0.0000000000000000     
   1.3829999999999995E-002     0.0000000000000000     
   1.3959999999999993E-002     0.0000000000000000     
   1.4089999999999998E-002     0.0000000000000000     
   1.4219999999999997E-002     0.0000000000000000     
   1.4349999999999995E-002     0.0000000000000000     
   1.4479999999999993E-002     0.0000000000000000     
   1.4609999999999998E-002     0.0000000000000000     
   1.4739999999999996E-002     0.0000000000000000     
   1.4869999999999994E-002     0.0000000000000000     
   1.4999999999999999E-002     0.0000000000000000     
   1.5129999999999998E-002     0.0000000000000000     
   1.5259999999999996E-002     0.0000000000000000     
   1.5389999999999994E-002     0.0000000000000000     
   1.5519999999999999E-002     0.0000000000000000     
   1.5649999999999997E-002     0.0000000000000000     
   1.5779999999999995E-002     0.0000000000000000     
   1.5909999999999994E-002     0.0000000000000000     
   1.6039999999999999E-002     0.0000000000000000     
   1.6169999999999997E-002     0.0000000000000000     
   1.6299999999999995E-002     0.0000000000000000     
   1.6429999999999993E-002     0.0000000000000000     
   1.6559999999999998E-002     0.0000000000000000     
   1.6689999999999997E-002     0.0000000000000000     
   1.6819999999999995E-002     0.0000000000000000     
   1.6949999999999993E-002     0.0000000000000000     
   1.7079999999999998E-002     0.0000000000000000     
   1.7209999999999996E-002     0.0000000000000000     
   1.7339999999999994E-002     0.0000000000000000     
   1.7469999999999992E-002     0.0000000000000000     
   1.7599999999999998E-002     0.0000000000000000     
   1.7729999999999996E-002     0.0000000000000000     
   1.7859999999999994E-002     0.0000000000000000     
   1.7989999999999999E-002     0.0000000000000000     
   1.8119999999999997E-002     0.0000000000000000     
   1.8249999999999995E-002     0.0000000000000000     
   1.8379999999999994E-002     0.0000000000000000     
   1.8509999999999999E-002     0.0000000000000000     
   1.8639999999999997E-002     0.0000000000000000     
   1.8769999999999995E-002     0.0000000000000000     
   1.8899999999999993E-002     0.0000000000000000     
   1.9029999999999998E-002     0.0000000000000000     
   1.9159999999999996E-002     0.0000000000000000     
   1.9289999999999995E-002     0.0000000000000000     
   1.9419999999999993E-002     0.0000000000000000     
   1.9549999999999998E-002     0.0000000000000000     
   1.9679999999999996E-002     0.0000000000000000     
   1.9809999999999994E-002     0.0000000000000000     
   1.9939999999999992E-002     0.0000000000000000     
   2.0069999999999998E-002     0.0000000000000000     
   2.0199999999999996E-002     0.0000000000000000     
   2.0329999999999994E-002     0.0000000000000000     
   2.0459999999999999E-002     0.0000000000000000     
   2.0589999999999997E-002     0.0000000000000000     
   2.0719999999999995E-002     0.0000000000000000     
   2.0849999999999994E-002     0.0000000000000000     
   2.0979999999999999E-002     0.0000000000000000     
   2.1109999999999997E-002     0.0000000000000000     
   2.1239999999999995E-002     0.0000000000000000     
   2.1369999999999993E-002     0.0000000000000000     
   2.1499999999999998E-002     0.0000000000000000     
   2.1629999999999996E-002     0.0000000000000000     
   2.1759999999999995E-002     0.0000000000000000     
   2.1889999999999993E-002     0.0000000000000000     
   2.2019999999999998E-002     0.0000000000000000     
   2.2149999999999996E-002     0.0000000000000000     
   2.2279999999999994E-002     0.0000000000000000     
   2.2409999999999992E-002     0.0000000000000000     
   2.2539999999999998E-002     0.0000000000000000     
   2.2669999999999996E-002     0.0000000000000000     
   2.2799999999999994E-002     0.0000000000000000     
   2.2929999999999992E-002     0.0000000000000000     
   2.3059999999999997E-002     0.0000000000000000     
   2.3189999999999995E-002     0.0000000000000000     
   2.3319999999999994E-002     0.0000000000000000     
   2.3449999999999999E-002     0.0000000000000000     
   2.3579999999999997E-002     0.0000000000000000     
   2.3709999999999995E-002     0.0000000000000000     
   2.3839999999999993E-002     0.0000000000000000     
   2.3969999999999998E-002     0.0000000000000000     
   2.4099999999999996E-002     0.0000000000000000     
   2.4229999999999995E-002     0.0000000000000000     
   2.4359999999999993E-002     0.0000000000000000     
   2.4489999999999998E-002     0.0000000000000000     
   2.4619999999999996E-002     0.0000000000000000     
   2.4749999999999994E-002     0.0000000000000000     
   2.4879999999999992E-002     0.0000000000000000     
   2.5009999999999998E-002     0.0000000000000000     
   2.5139999999999996E-002     0.0000000000000000     
   2.5269999999999994E-002     0.0000000000000000     
   2.5399999999999992E-002     0.0000000000000000     
   2.5529999999999997E-002     0.0000000000000000     
   2.5659999999999995E-002     0.0000000000000000     
   2.5789999999999993E-002     0.0000000000000000     
   2.5919999999999992E-002     0.0000000000000000     
   2.6049999999999997E-002     0.0000000000000000     
   2.6179999999999995E-002     0.0000000000000000     
   2.6309999999999993E-002     0.0000000000000000     
   2.6439999999999998E-002     0.0000000000000000     
   2.6569999999999996E-002     0.0000000000000000     
   2.6699999999999995E-002     0.0000000000000000     
   2.6829999999999993E-002     0.0000000000000000     
   2.6959999999999998E-002     0.0000000000000000     
   2.7089999999999996E-002     0.0000000000000000     
   2.7219999999999994E-002     0.0000000000000000     
   2.7349999999999992E-002     0.0000000000000000     
   2.7479999999999997E-002     0.0000000000000000     
   2.7609999999999996E-002     0.0000000000000000     
   2.7739999999999994E-002     0.0000000000000000     
   2.7869999999999992E-002     0.0000000000000000     
   2.7999999999999997E-002     0.0000000000000000     
   2.8129999999999995E-002     0.0000000000000000     
   2.8259999999999993E-002     0.0000000000000000     
   2.8389999999999992E-002     0.0000000000000000     
   2.8519999999999997E-002     0.0000000000000000     
   2.8649999999999995E-002     0.0000000000000000     
   2.8779999999999993E-002     0.0000000000000000     
   2.8909999999999998E-002     0.0000000000000000     
   2.9039999999999996E-002     0.0000000000000000     
   2.9169999999999995E-002     0.0000000000000000     
   2.9299999999999993E-002     0.0000000000000000     
   2.9429999999999998E-002     0.0000000000000000     
   2.9559999999999996E-002     0.0000000000000000     
   2.9689999999999994E-002     0.0000000000000000     
   2.9819999999999992E-002     0.0000000000000000     
   2.9949999999999997E-002     0.0000000000000000     
   3.0079999999999996E-002     0.0000000000000000     
   3.0209999999999994E-002     0.0000000000000000     
   3.0339999999999992E-002     0.0000000000000000     
   3.0469999999999997E-002     0.0000000000000000     
   3.0599999999999995E-002     0.0000000000000000     
   3.0729999999999993E-002     0.0000000000000000     
   3.0859999999999992E-002     0.0000000000000000     
   3.0989999999999997E-002     0.0000000000000000     
   3.1119999999999995E-002     0.0000000000000000     
   3.1249999999999993E-002     0.0000000000000000     
   3.1379999999999991E-002     0.0000000000000000     
   3.1509999999999996E-002     0.0000000000000000     
   3.1639999999999995E-002     0.0000000000000000     
   3.1769999999999993E-002     0.0000000000000000     
   3.1899999999999998E-002     0.0000000000000000     
   3.2029999999999996E-002     0.0000000000000000     
   3.2159999999999994E-002     0.0000000000000000     
   3.2289999999999992E-002     0.0000000000000000     
   3.2419999999999997E-002     0.0000000000000000     
   3.2549999999999996E-002     0.0000000000000000     
   3.2679999999999994E-002     0.0000000000000000     
   3.2809999999999992E-002     0.0000000000000000     
   3.2939999999999997E-002     0.0000000000000000     
   3.3069999999999995E-002     0.0000000000000000     
   3.3199999999999993E-002     0.0000000000000000     
   3.3329999999999992E-002     0.0000000000000000     
   3.3459999999999997E-002     0.0000000000000000     
   3.3589999999999995E-002     0.0000000000000000     
   3.3719999999999993E-002     0.0000000000000000     
   3.3849999999999991E-002     0.0000000000000000     
   3.3979999999999996E-002     0.0000000000000000     
   3.4109999999999994E-002     0.0000000000000000     
   3.4239999999999993E-002     0.0000000000000000     
   3.4369999999999998E-002     0.0000000000000000     
   3.4499999999999996E-002     0.0000000000000000     
   3.4629999999999994E-002     0.0000000000000000     
   3.4759999999999992E-002     0.0000000000000000     
   3.4889999999999997E-002     0.0000000000000000     
   3.5019999999999996E-002     0.0000000000000000     
   3.5149999999999994E-002     0.0000000000000000     
   3.5279999999999992E-002     0.0000000000000000     
   3.5409999999999997E-002     0.0000000000000000     
   3.5539999999999995E-002     0.0000000000000000     
   3.5669999999999993E-002     0.0000000000000000     
   3.5799999999999992E-002     0.0000000000000000     
   3.5929999999999997E-002     0.0000000000000000     
   3.6059999999999995E-002     0.0000000000000000     
   3.6189999999999993E-002     0.0000000000000000     
   3.6319999999999991E-002     0.0000000000000000     
   3.6449999999999996E-002     0.0000000000000000     
   3.6579999999999994E-002     0.0000000000000000     
   3.6709999999999993E-002     0.0000000000000000     
   3.6839999999999991E-002     0.0000000000000000     
   3.6969999999999996E-002     0.0000000000000000     
   3.7099999999999994E-002     0.0000000000000000     
   3.7229999999999992E-002     0.0000000000000000     
   3.7359999999999997E-002     0.0000000000000000     
   3.7489999999999996E-002     0.0000000000000000     
   3.7619999999999994E-002     0.0000000000000000     
   3.7749999999999992E-002     0.0000000000000000     
   3.7879999999999997E-002     0.0000000000000000     
   3.8009999999999995E-002     0.0000000000000000     
   3.8139999999999993E-002     0.0000000000000000     
   3.8269999999999992E-002     0.0000000000000000     
   3.8399999999999997E-002     0.0000000000000000     
   3.8529999999999988E-002     0.0000000000000000     
   3.8659999999999993E-002     0.0000000000000000     
   3.8789999999999998E-002     0.0000000000000000     
   3.8919999999999989E-002     0.0000000000000000     
   3.9049999999999994E-002     0.0000000000000000     
   3.9180000000000000E-002     0.0000000000000000     
   3.9309999999999991E-002     0.0000000000000000     
   3.9439999999999996E-002     0.0000000000000000     
   3.9569999999999987E-002     0.0000000000000000     
   3.9699999999999992E-002     0.0000000000000000     
   3.9829999999999997E-002     0.0000000000000000     
   3.9959999999999989E-002     0.0000000000000000     
   4.0089999999999994E-002     0.0000000000000000     
   4.0219999999999999E-002     0.0000000000000000     
   4.0349999999999990E-002     0.0000000000000000     
   4.0479999999999995E-002     0.0000000000000000     
   4.0610000000000000E-002     0.0000000000000000     
   4.0739999999999991E-002     0.0000000000000000     
   4.0869999999999997E-002     0.0000000000000000     
   4.0999999999999988E-002     0.0000000000000000     
   4.1129999999999993E-002     0.0000000000000000     
   4.1259999999999998E-002     0.0000000000000000     
   4.1389999999999989E-002     0.0000000000000000     
   4.1519999999999994E-002     0.0000000000000000     
   4.1650000000000000E-002     0.0000000000000000     
   4.1779999999999991E-002     0.0000000000000000     
   4.1909999999999996E-002     0.0000000000000000     
   4.2039999999999987E-002     0.0000000000000000     
   4.2169999999999992E-002     0.0000000000000000     
   4.2299999999999997E-002     0.0000000000000000     
   4.2429999999999989E-002     0.0000000000000000     
   4.2559999999999994E-002     0.0000000000000000     
   4.2689999999999999E-002     0.0000000000000000     
   4.2819999999999990E-002     0.0000000000000000     
   4.2949999999999995E-002     0.0000000000000000     
   4.3080000000000000E-002     0.0000000000000000     
   4.3209999999999991E-002     0.0000000000000000     
   4.3339999999999997E-002     0.0000000000000000     
   4.3469999999999988E-002     0.0000000000000000     
   4.3599999999999993E-002     0.0000000000000000     
   4.3729999999999998E-002     0.0000000000000000     
   4.3859999999999989E-002     0.0000000000000000     
   4.3989999999999994E-002     0.0000000000000000     
   4.4119999999999999E-002     0.0000000000000000     
   4.4249999999999991E-002     0.0000000000000000     
   4.4379999999999996E-002     0.0000000000000000     
   4.4509999999999987E-002     0.0000000000000000     
   4.4639999999999992E-002     0.0000000000000000     
   4.4769999999999997E-002     0.0000000000000000     
   4.4899999999999989E-002     0.0000000000000000     
   4.5029999999999994E-002     0.0000000000000000     
   4.5159999999999999E-002     0.0000000000000000     
   4.5289999999999990E-002     0.0000000000000000     
   4.5419999999999995E-002     0.0000000000000000     
   4.5550000000000000E-002     0.0000000000000000     
   4.5679999999999991E-002     0.0000000000000000     
   4.5809999999999997E-002     0.0000000000000000     
   4.5939999999999988E-002     0.0000000000000000     
   4.6069999999999993E-002     0.0000000000000000     
   4.6199999999999998E-002     0.0000000000000000     
   4.6329999999999989E-002     0.0000000000000000     
   4.6459999999999994E-002     0.0000000000000000     
   4.6589999999999999E-002     0.0000000000000000     
   4.6719999999999991E-002     0.0000000000000000     