  -6.6666666666666666E-002     0.0000000000000000     
  -6.6266666666666668E-002     0.0000000000000000     
  -6.5866666666666671E-002     0.0000000000000000     
  -6.5466666666666659E-002     0.0000000000000000     
  -6.5066666666666662E-002     0.0000000000000000     
  -6.4666666666666664E-002     0.0000000000000000     
  -6.4266666666666666E-002     0.0000000000000000     
  -6.3866666666666669E-002     0.0000000000000000     
  -6.3466666666666671E-002     0.0000000000000000     
  -6.3066666666666660E-002     0.0000000000000000     
  -6.2666666666666662E-002     0.0000000000000000     
  -6.2266666666666665E-002     0.0000000000000000     
  -6.1866666666666667E-002     0.0000000000000000     
  -6.1466666666666663E-002     0.0000000000000000     
  -6.1066666666666665E-002     0.0000000000000000     
  -6.0666666666666667E-002     0.0000000000000000     
  -6.0266666666666663E-002     0.0000000000000000     
  -5.9866666666666665E-002     0.0000000000000000     
  -5.9466666666666668E-002     0.0000000000000000     
  -5.9066666666666663E-002     0.0000000000000000     
  -5.8666666666666666E-002     0.0000000000000000     
  -5.8266666666666661E-002     0.0000000000000000     
  -5.7866666666666663E-002     0.0000000000000000     
  -5.7466666666666666E-002     0.0000000000000000     
  -5.7066666666666668E-002     0.0000000000000000     
  -5.6666666666666664E-002     0.0000000000000000     
  -5.6266666666666666E-002     0.0000000000000000     
  -5.5866666666666662E-002     0.0000000000000000     
  -5.5466666666666664E-002     0.0000000000000000     
  -5.5066666666666667E-002     0.0000000000000000     
  -5.4666666666666669E-002     0.0000000000000000     
  -5.4266666666666664E-002     0.0000000000000000     
  -5.3866666666666667E-002     0.0000000000000000     
  -5.3466666666666662E-002     0.0000000000000000     
  -5.3066666666666665E-002     0.0000000000000000     
  -5.2666666666666667E-002     0.0000000000000000     
  -5.2266666666666663E-002     0.0000000000000000     
  -5.1866666666666665E-002     0.0000000000000000     
  -5.1466666666666668E-002     0.0000000000000000     
  -5.1066666666666663E-002     0.0000000000000000     
  -5.0666666666666665E-002     0.0000000000000000     
  -5.0266666666666668E-002     0.0000000000000000     
  -4.9866666666666663E-002     0.0000000000000000     
  -4.9466666666666666E-002     0.0000000000000000     
  -4.9066666666666661E-002     0.0000000000000000     
  -4.8666666666666664E-002     0.0000000000000000     
  -4.8266666666666666E-002     0.0000000000000000     
  -4.7866666666666668E-002     0.0000000000000000     
  -4.7466666666666664E-002     0.0000000000000000     
  -4.7066666666666666E-002     0.0000000000000000     
  -4.6666666666666662E-002     0.0000000000000000     
  -4.6266666666666664E-002     0.0000000000000000     
  -4.5866666666666667E-002     0.0000000000000000     
  -4.5466666666666669E-002     0.0000000000000000     
  -4.5066666666666665E-002     0.0000000000000000     
  -4.4666666666666660E-002     0.0000000000000000     
  -4.4266666666666662E-002     0.0000000000000000     
  -4.3866666666666665E-002     0.0000000000000000     
  -4.3466666666666667E-002     0.0000000000000000     
  -4.3066666666666670E-002     0.0000000000000000     
  -4.2666666666666665E-002     0.0000000000000000     
  -4.2266666666666661E-002     0.0000000000000000     
  -4.1866666666666663E-002     0.0000000000000000     
  -4.1466666666666666E-002     0.0000000000000000     
  -4.1066666666666668E-002     0.0000000000000000     
  -4.0666666666666663E-002     0.0000000000000000     
  -4.0266666666666666E-002     0.0000000000000000     
  -3.9866666666666661E-002     0.0000000000000000     
  -3.9466666666666664E-002     0.0000000000000000     
  -3.9066666666666666E-002     0.0000000000000000     
  -3.8666666666666669E-002     0.0000000000000000     
  -3.8266666666666664E-002     0.0000000000000000     
  -3.7866666666666660E-002     0.0000000000000000     
  -3.7466666666666662E-002     0.0000000000000000     
  -3.7066666666666664E-002     0.0000000000000000     
  -3.6666666666666667E-002     0.0000000000000000     
  -3.6266666666666669E-002     0.0000000000000000     
  -3.5866666666666665E-002     0.0000000000000000     
  -3.5466666666666660E-002     0.0000000000000000     
  -3.5066666666666663E-002     0.0000000000000000     
  -3.4666666666666665E-002     0.0000000000000000     
  -3.4266666666666667E-002     0.0000000000000000     
  -3.3866666666666663E-002     0.0000000000000000     
  -3.3466666666666665E-002     0.0000000000000000     
  -3.3066666666666661E-002     0.0000000000000000     
  -3.2666666666666663E-002     0.0000000000000000     
  -3.2266666666666666E-002     0.0000000000000000     
  -3.1866666666666661E-002     0.0000000000000000     
  -3.1466666666666664E-002     1.4148456573585237E-038
  -3.1066666666666666E-002     4.6104145998123164E-038
  -3.0666666666666662E-002     9.1921586330445471E-038
  -3.0266666666666664E-002     1.3456253247527007E-037
  -2.9866666666666666E-002     1.5297449567850213E-037
  -2.9466666666666662E-002     1.1473820615503888E-037
  -2.9066666666666664E-002    -1.2559178124166638E-038
  -2.8666666666666667E-002    -2.4847100178361293E-037
  -2.8266666666666662E-002    -5.7803279151628296E-037
  -2.7866666666666665E-002    -9.3664887940050946E-037
  -2.7466666666666667E-002    -1.2043110560166208E-036
  -2.7066666666666662E-002    -1.2105904874326269E-036
  -2.6666666666666665E-002    -7.6085950711270354E-037
  -2.6266666666666660E-002     3.0763357631887699E-037
  -2.5866666666666663E-002     2.0496651386793895E-036
  -2.5466666666666665E-002     4.3151422584004309E-036
  -2.5066666666666661E-002     6.6718416212299242E-036
  -2.4666666666666663E-002     8.3665329718351111E-036
  -2.4266666666666666E-002     8.3740785492811548E-036
  -2.3866666666666661E-002     5.5656715905699003E-036
  -2.3466666666666663E-002    -9.7708761774632132E-037
  -2.3066666666666666E-002    -1.1525566419947949E-035
  -2.2666666666666661E-002    -2.5205818863713884E-035
  -2.2266666666666664E-002    -3.9571562301790056E-035
  -2.1866666666666666E-002    -5.0430590277947373E-035
  -2.1466666666666662E-002    -5.2128427711760785E-035
  -2.1066666666666664E-002    -3.8469458861694278E-035
  -2.0666666666666667E-002    -4.3571885663445162E-036
  -2.0266666666666662E-002     5.1953687721446167E-035
  -1.9866666666666664E-002     1.2634912380352449E-034
  -1.9466666666666667E-002     2.0672829104848755E-034
  -1.9066666666666662E-002     2.7213190133215209E-034
  -1.8666666666666665E-002     2.9409165109119903E-034
  -1.8266666666666660E-002     2.4101782860395831E-034
  -1.7866666666666663E-002     8.5953650738375250E-035
  -1.7466666666666665E-002    -1.8281502809460485E-034
  -1.7066666666666661E-002    -5.4993588433125827E-034
  -1.6666666666666663E-002    -9.6281950476770367E-034
  -1.6266666666666665E-002    -1.3269934402887063E-033
  -1.5866666666666661E-002    -1.5112273841961372E-033
  -1.5466666666666663E-002    -1.3659890878447933E-033
  -1.5066666666666666E-002    -7.5672623321627459E-034
  -1.4666666666666661E-002     3.9006190271045956E-034
  -1.4266666666666664E-002     2.0346808042535598E-033
  -1.3866666666666666E-002     3.9777909659200480E-033
  -1.3466666666666662E-002     5.8355628091107306E-033
  -1.3066666666666664E-002     7.0539851115990941E-033
  -1.2666666666666666E-002     6.9773553695529585E-033
  -1.2266666666666662E-002     4.9780819245141045E-033
  -1.1866666666666664E-002     6.4134801885196114E-034
  -1.1466666666666660E-002    -6.0199075066265280E-033
  -1.1066666666666662E-002    -1.4363913546938602E-032
  -1.0666666666666665E-002    -2.2993687774065343E-032
  -1.0266666666666660E-002    -2.9773746702408351E-032
  -9.8666666666666625E-003    -3.2050805625593835E-032
  -9.4666666666666649E-003    -2.7112277616616962E-032
  -9.0666666666666604E-003    -1.2868304166396574E-032
  -8.6666666666666628E-003     1.1322242568317253E-032
  -8.2666666666666652E-003     4.3833884591103641E-032
  -7.8666666666666607E-003     8.0180745910760674E-032
  -7.4666666666666631E-003     1.1289747496356709E-031
  -7.0666666666666655E-003     1.3212980856703158E-031
  -6.6666666666666610E-003     1.2708690253717345E-031
  -6.2666666666666634E-003     8.8351095803283787E-032
  -5.8666666666666659E-003     1.0821266712463964E-032
  -5.4666666666666613E-003    -1.0318650454244102E-031
  -5.0666666666666638E-003    -2.4139159705294042E-031
  -4.6666666666666662E-003    -3.8041519803486088E-031
  -4.2666666666666617E-003    -4.8691486866992505E-031
  -3.8666666666666571E-003    -5.2162129235817906E-031
  -3.4666666666666596E-003    -4.4644687697055068E-031
  -3.0666666666666620E-003    -2.3414979953549060E-031
  -2.6666666666666644E-003     1.2078741655617330E-031
  -2.2666666666666668E-003     5.9221753340754688E-031
  -1.8666666666666692E-003     1.1160764027724032E-030
  -1.4666666666666578E-003     1.5907265395440407E-030
  -1.0666666666666602E-003     1.8863216152165048E-030
  -6.6666666666666263E-004     1.8643742893307201E-030
  -2.6666666666666505E-004     1.4067321452222601E-030
   1.3333333333333253E-004     4.5065542886513867E-031
   5.3333333333334398E-004    -9.7594534505268602E-031
   9.3333333333334156E-004    -2.7272373599529463E-030
   1.3333333333333391E-003    -4.5293463717974463E-030
   1.7333333333333367E-003    -5.9958686736008351E-030
   2.1333333333333343E-003    -6.6745840654379334E-030
   2.5333333333333319E-003    -6.1257248762593368E-030
   2.9333333333333433E-003    -4.0250841217353744E-030
   3.3333333333333409E-003    -2.7728508195642881E-031
   3.7333333333333385E-003     4.8827624159145416E-030
   4.1333333333333361E-003     1.0826968018757189E-029
   4.5333333333333337E-003     1.6536807883752100E-029
   4.9333333333333312E-003     2.0693133222609889E-029
   5.3333333333333427E-003     2.1862199782242784E-029
   5.7333333333333403E-003     1.8768757563873084E-029
   6.1333333333333379E-003     1.0624911636517510E-029
   6.5333333333333354E-003    -2.5388560207138969E-030
   6.9333333333333330E-003    -1.9611676915220615E-029
   7.3333333333333445E-003    -3.8287980813966498E-029
   7.7333333333333421E-003    -5.5172247524544822E-029
   8.1333333333333396E-003    -6.6149169502014940E-029
   8.5333333333333372E-003    -6.7022837528630828E-029
   8.9333333333333348E-003    -5.4372174095928831E-029
   9.3333333333333324E-003    -2.6507714336240469E-029
   9.7333333333333438E-003     1.5641110528764513E-029
   1.0133333333333341E-002     6.7915397724294940E-029
   1.0533333333333339E-002     1.2280304696983901E-028
   1.0933333333333337E-002     1.6997159909093443E-028
   1.1333333333333334E-002     1.9753982976031727E-028
   1.1733333333333332E-002     1.9404012616187400E-028
   1.2133333333333343E-002     1.5086737311877170E-028
   1.2533333333333341E-002     6.4851652442888030E-029
   1.2933333333333338E-002    -5.9534755701011417E-029
   1.3333333333333336E-002    -2.0888713214021736E-028
   1.3733333333333334E-002    -3.6101087362114792E-028
   1.4133333333333345E-002    -4.8686310102718941E-028
   1.4533333333333343E-002    -5.5439501600690147E-028
   1.4933333333333340E-002    -5.3404188465111438E-028
   1.5333333333333338E-002    -4.0520887139602046E-028
   1.5733333333333335E-002    -1.6273202842998281E-028
   1.6133333333333333E-002     1.7796960096398574E-028
   1.6533333333333344E-002     5.7840539203058270E-028
   1.6933333333333342E-002     9.7836499691842992E-028
   1.7333333333333339E-002     1.3018307088680993E-027
   1.7733333333333337E-002     1.4674576025974906E-027
   1.8133333333333335E-002     1.4027390379322908E-027
   1.8533333333333332E-002     1.0600419525229426E-027
   1.8933333333333344E-002     4.3188921224985432E-028
   1.9333333333333341E-002    -4.3762020198536742E-028
   1.9733333333333339E-002    -1.4483672072097410E-027
   2.0133333333333336E-002    -2.4492590363156907E-027
   2.0533333333333334E-002    -3.2540620192443623E-027
   2.0933333333333332E-002    -3.6675653412801238E-027
   2.1333333333333343E-002    -3.5195607065418758E-027
   2.1733333333333341E-002    -2.7020779786383420E-027
   2.2133333333333338E-002    -1.2036702966485596E-027
   2.2533333333333336E-002     8.6628040009046211E-028
   2.2933333333333333E-002     3.2699636524231899E-027
   2.3333333333333345E-002     5.6553311183918007E-027
   2.3733333333333342E-002     7.5942275787226180E-027
   2.4133333333333340E-002     8.6426545366404529E-027
   2.4533333333333338E-002     8.4169047322791587E-027
   2.4933333333333335E-002     6.6750898387154538E-027
   2.5333333333333333E-002     3.3904413556523001E-027
   2.5733333333333344E-002    -1.1985360563063149E-027
   2.6133333333333342E-002    -6.5747874072117666E-027
   2.6533333333333339E-002    -1.1976122647491901E-026
   2.6933333333333337E-002    -1.6478686471740777E-026
   2.7333333333333334E-002    -1.9125505861007755E-026
   2.7733333333333332E-002    -1.9086161423359857E-026
   2.8133333333333344E-002    -1.5825403330884849E-026
   2.8533333333333341E-002    -9.2527852911624405E-027
   2.8933333333333339E-002     1.7641889032101375E-028
   2.9333333333333336E-002     1.1435645075338622E-026
   2.9733333333333334E-002     2.2995039623695880E-026
   3.0133333333333345E-002     3.2988126192833530E-026
   3.0533333333333343E-002     3.9465959205156932E-026
   3.0933333333333340E-002     4.0710455075877120E-026
   3.1333333333333338E-002     3.5563492040419786E-026
   3.1733333333333336E-002     2.3718300273523151E-026
   3.2133333333333333E-002     5.9172787760578530E-027
   3.2533333333333345E-002    -1.5992786672723522E-026
   3.2933333333333342E-002    -3.9180755173040426E-026
   3.3333333333333340E-002    -6.0134404581811077E-026
   3.3733333333333337E-002    -7.5125146852653430E-026
   3.4133333333333335E-002    -8.0781803396032958E-026
   3.4533333333333333E-002    -7.4694638339580707E-026
   3.4933333333333344E-002    -5.5954082733625206E-026
   3.5333333333333342E-002    -2.5525452725636182E-026
   3.5733333333333339E-002     1.3626015986297914E-026
   3.6133333333333337E-002     5.6716023760455551E-026
   3.6533333333333334E-002     9.7641461921932864E-026
   3.6933333333333346E-002     1.2976254061677908E-025
   3.7333333333333343E-002     1.4687799961714854E-025
   3.7733333333333341E-002     1.4426105217169099E-025
   3.8133333333333339E-002     1.1959682293189029E-025
   3.8533333333333336E-002     7.3658007317386255E-026
   3.8933333333333334E-002     1.0577731107519573E-026
   3.9333333333333345E-002    -6.2372994615602003E-026
   3.9733333333333343E-002    -1.3552678422908395E-025
   4.0133333333333340E-002    -1.9802282265697296E-025
   4.0533333333333338E-002    -2.3933305237687511E-025
   4.0933333333333335E-002    -2.5090625815404956E-025
   4.1333333333333333E-002    -2.2768386943376657E-025
   4.1733333333333344E-002    -1.6923587074101917E-025
   4.2133333333333342E-002    -8.0300438006476768E-026
   4.2533333333333340E-002     2.9415855865201686E-026
   4.2933333333333337E-002     1.4621661370383059E-025
   4.3333333333333335E-002     2.5409254130594709E-025
   4.3733333333333346E-002     3.3689855562180134E-025
   4.4133333333333344E-002     3.8073634498583819E-025
   4.4533333333333341E-002     3.7619078053853499E-025
   4.4933333333333339E-002     3.2006248896734820E-025
   4.5333333333333337E-002     2.1629106628485485E-025
   4.5733333333333334E-002     7.5867588223982843E-026
   4.6133333333333346E-002    -8.4319517918230628E-026
   4.6533333333333343E-002    -2.4359704278482099E-025
   4.6933333333333341E-002    -3.8031058196414844E-025
   4.7333333333333338E-002    -4.7492572077164479E-025
   4.7733333333333336E-002    -5.1296227634249290E-025
   4.8133333333333334E-002    -4.8729698261396674E-025
   4.8533333333333345E-002    -3.9944575907496493E-025
   4.8933333333333343E-002    -2.5957980845885787E-025
   4.9333333333333340E-002    -8.5222720513877933E-026
   4.9733333333333338E-002     1.0121343026374943E-025
   5.0133333333333335E-002     2.7569729678436453E-025
   5.0533333333333347E-002     4.1614976548350341E-025
   5.0933333333333344E-002     5.0574281855313650E-025
   5.1333333333333342E-002     5.3537411048266130E-025
   5.1733333333333339E-002     5.0488236852076668E-025
   5.2133333333333337E-002     4.2276929455443923E-025
   5.2533333333333335E-002     3.0444264861351956E-025
   5.2933333333333346E-002     1.6925890794464195E-025
   5.3333333333333344E-002     3.6870754738399532E-026
   5.3733333333333341E-002    -7.6462900873512715E-026
   5.4133333333333339E-002    -1.6090402046768800E-025
   5.4533333333333336E-002    -2.1478071812609936E-025
   5.4933333333333334E-002    -2.4463308832431234E-025
   5.5333333333333345E-002    -2.6343622894974065E-025
   5.5733333333333343E-002    -2.8721967033695880E-025
   5.6133333333333341E-002    -3.3063564098383200E-025
   5.6533333333333338E-002    -4.0229194456909905E-025
   5.6933333333333336E-002    -5.0080336599509514E-025
   5.7333333333333333E-002    -6.1249256093138850E-025
   5.7733333333333345E-002    -7.1147231921605299E-025
   5.8133333333333342E-002    -7.6248465060165521E-025
   5.8533333333333340E-002    -7.2640062437884226E-025
   5.8933333333333351E-002    -5.6777262786008826E-025
   5.9333333333333335E-002    -2.6335677586544292E-025
   5.9733333333333347E-002     1.8981996346759707E-025
   6.0133333333333330E-002     7.6841476454523443E-025
   6.0533333333333342E-002     1.4202025579255577E-024
   6.0933333333333353E-002     2.0660697036931645E-024
   6.1333333333333337E-002     2.6070397469184307E-024
   6.1733333333333348E-002     2.9360343846560800E-024
   6.2133333333333332E-002     2.9532422020121186E-024
   6.2533333333333344E-002     2.5832181197330192E-024
   6.2933333333333327E-002     1.7912753321705352E-024
   6.3333333333333339E-002     5.9649761721712726E-025
   6.3733333333333350E-002    -9.2115642890064898E-025
   6.4133333333333334E-002    -2.6216257850559672E-024
   6.4533333333333345E-002    -4.3144353018215895E-024
   6.4933333333333329E-002    -5.7771396145605791E-024
   6.5333333333333340E-002    -6.7810436081143862E-024
   6.5733333333333352E-002    -7.1214765317625138E-024
   6.6133333333333336E-002    -6.6489007290199092E-024
   6.6533333333333347E-002    -5.2965951333838845E-024
   6.6933333333333331E-002    -3.1006629502580108E-024
   6.7333333333333342E-002    -2.0872507669097684E-025
   6.7733333333333354E-002     3.1251241464223302E-024
   6.8133333333333337E-002     6.5598738315611920E-024
   6.8533333333333349E-002     9.7005184218632930E-024
   6.8933333333333333E-002     1.2141282461609691E-023
   6.9333333333333344E-002     1.3514432128944371E-023
   6.9733333333333328E-002     1.3538826863577426E-023
   7.0133333333333339E-002     1.2061965653033340E-023
   7.0533333333333351E-002     9.0896781794016965E-024
   7.0933333333333334E-002     4.7988716282741920E-024
   7.1333333333333346E-002    -4.6935744746452913E-025
   7.1733333333333330E-002    -6.2365335515769406E-024
   7.2133333333333341E-002    -1.1931305832440678E-023
   7.2533333333333352E-002    -1.6947073583314030E-023
   7.2933333333333336E-002    -2.0706357094986742E-023
   7.3333333333333348E-002    -2.2724534658693486E-023
   7.3733333333333331E-002    -2.2665501041712177E-023
   7.4133333333333343E-002    -2.0382734797228874E-023
   7.4533333333333354E-002    -1.5941031382276621E-023
   7.4933333333333338E-002    -9.6165418119198006E-024
   7.5333333333333349E-002    -1.8754294358177023E-024
   7.5733333333333333E-002     6.6660552982648454E-024
   7.6133333333333345E-002     1.5295197270059420E-023
   7.6533333333333328E-002     2.3264012965946980E-023
   7.6933333333333340E-002     2.9851515861852632E-023
   7.7333333333333351E-002     3.4421172515631734E-023
   7.7733333333333335E-002     3.6468963917720475E-023
   7.8133333333333346E-002     3.5659400146902843E-023
   7.8533333333333330E-002     3.1848675015600668E-023
   7.8933333333333341E-002     2.5095908915494834E-023
   7.9333333333333353E-002     1.5664444127131651E-023
   7.9733333333333337E-002     4.0154739792522883E-024
   8.0133333333333348E-002    -9.2043509448891489E-024
   8.0533333333333332E-002    -2.3180868604258495E-023
   8.0933333333333343E-002    -3.6957085802322270E-023
   8.1333333333333355E-002    -4.9467198602446235E-023
   8.1733333333333338E-002    -5.9583484586684452E-023
   8.2133333333333350E-002    -6.6179403050727002E-023
   8.2533333333333334E-002    -6.8210871342964910E-023
   8.2933333333333345E-002    -6.4814806213326729E-023
   8.3333333333333329E-002    -5.5420324801922117E-023
   8.3733333333333340E-002    -3.9863400838450280E-023
   8.4133333333333352E-002    -1.8491757899045397E-023
   8.4533333333333335E-002     7.7565655695896990E-024
   8.4933333333333347E-002     3.7318639687846785E-023
   8.5333333333333330E-002     6.8032494115076335E-023
   8.5733333333333342E-002     9.7235493737634015E-023
   8.6133333333333353E-002     1.2194026332821493E-022
   8.6533333333333337E-002     1.3908364968095863E-022
   8.6933333333333349E-002     1.4583353486103860E-022
   8.7333333333333332E-002     1.3992759201002580E-022
   8.7733333333333344E-002     1.2000896774916560E-022
   8.8133333333333355E-002     8.5918274310279918E-023
   8.8533333333333339E-002     3.8899810398166434E-023
   8.8933333333333350E-002    -1.8315900292888098E-023
   8.9333333333333334E-002    -8.1581476773947575E-023
   8.9733333333333345E-002    -1.4556770766864085E-022
   9.0133333333333329E-002    -2.0415971400432008E-022
   9.0533333333333341E-002    -2.5098991783912438E-022
   9.0933333333333352E-002    -2.8006445304098863E-022
   9.1333333333333336E-002    -2.8642363119193073E-022
   9.1733333333333347E-002    -2.6676733789193635E-022
   9.2133333333333331E-002    -2.1997274008295011E-022
   9.2533333333333342E-002    -1.4743766142370018E-022
   9.2933333333333354E-002    -5.3196538531878568E-023
   9.3333333333333338E-002     5.6222956063104667E-023
   9.3733333333333349E-002     1.7220871426298138E-022
   9.4133333333333333E-002     2.8471565266881861E-022
   9.4533333333333344E-002     3.8310988210202643E-022
   9.4933333333333356E-002     4.5713194463495623E-022
   9.5333333333333339E-002     4.9788952246491815E-022
   9.5733333333333351E-002     4.9878263922737317E-022
   9.6133333333333335E-002     4.5626740356993194E-022
   9.6533333333333346E-002     3.7037832342403244E-022
   9.6933333333333330E-002     2.4494986863422400E-022
   9.7333333333333341E-002     8.7507059106056761E-023
   9.7733333333333353E-002    -9.1173981205224387E-023
   9.8133333333333336E-002    -2.7780394371808523E-022
   9.8533333333333348E-002    -4.5755734892214934E-022
   9.8933333333333331E-002    -6.1520881531519116E-022
   9.9333333333333343E-002    -7.3633604704004910E-022
   9.9733333333333354E-002    -8.0849372202046681E-022
  0.10013333333333334         -8.2226776354015398E-022
  0.10053333333333335         -7.7213256067861022E-022
  0.10093333333333333         -6.5705171428944338E-022
  0.10133333333333334         -4.8078292858479395E-022
  0.10173333333333336         -2.5186937784158821E-022
  0.10213333333333334          1.6682211956664264E-023
  0.10253333333333335          3.0802057280586673E-022
  0.10293333333333334          6.0233798797754583E-022
  0.10333333333333335          8.7799042401716748E-022
  0.10373333333333333          1.1128059165088747E-021
  0.10413333333333334          1.2855304574514493E-021
  0.10453333333333335          1.3773512414900825E-021
  0.10493333333333334          1.3734275861870325E-021
  0.10533333333333335          1.2643464750550656E-021
  0.10573333333333333          1.0474040210772208E-021
  0.10613333333333334          7.2760263737810694E-022
  0.10653333333333335          3.1824519463594076E-022
  0.10693333333333334         -1.5899220176578097E-022
  0.10733333333333335         -6.7461233864128935E-022
  0.10773333333333333         -1.1925482682119390E-021
  0.10813333333333335         -1.6721402566435644E-021
  0.10853333333333333         -2.0708030426738897E-021
  0.10893333333333334         -2.3472714007032250E-021
  0.10933333333333335         -2.4652318796972617E-021
  0.10973333333333334         -2.3970726818990324E-021
  0.11013333333333335         -2.1274184665036727E-021
  0.11053333333333333         -1.6560812195584758E-021
  0.11093333333333334         -1.0000531816667451E-021
  0.11133333333333335         -1.9420326701669774E-022
  0.11173333333333334          7.0957970267047801E-022
  0.11213333333333335          1.6449341732055960E-021
  0.11253333333333333          2.5352483968542923E-021
  0.11293333333333334          3.2993675948616971E-021
  0.11333333333333336          3.8584219335512441E-021
  0.11373333333333334          4.1432487335661647E-021
  0.11413333333333335          4.1017636871420697E-021
  0.11453333333333333          3.7055591179101579E-021
  0.11493333333333335          2.9550126693629769E-021
  0.11533333333333333          1.8822571579033005E-021
  0.11573333333333334          5.5150576024192326E-022
  0.11613333333333335         -9.4356064343333385E-022
  0.11653333333333334         -2.4853822902247375E-021
  0.11693333333333335         -3.9408427267739106E-021
  0.11733333333333333         -5.1717977420747039E-021
  0.11773333333333334         -6.0470408601706870E-021
  0.11813333333333335         -6.4547342734084927E-021
  0.11853333333333334         -6.3142226214060158E-021
  0.11893333333333335         -5.5861263716714067E-021
  0.11933333333333333         -4.2796862787137479E-021
  0.11973333333333334         -2.4565075072258497E-021
  0.12013333333333336         -2.3010618221415507E-022
  0.12053333333333334          2.2390139360869558E-021
  0.12093333333333335          4.7526740498646078E-021
  0.12133333333333333          7.0882714198867165E-021
  0.12173333333333335          9.0151797710997580E-021
  0.12213333333333333          1.0313223253825793E-020
  0.12253333333333334          1.0791924144978881E-020
  0.12293333333333335          1.0309097852079399E-020
  0.12333333333333334          8.7873553280331877E-021
  0.12373333333333335          6.2271247034307301E-021
  0.12413333333333333          2.7149957940937023E-021
  0.12453333333333334         -1.5735802528242898E-021
  0.12493333333333335         -6.3778597908164796E-021
  0.12533333333333335         -1.1361921057274675E-020
  0.12573333333333336         -1.6131185167520442E-020
  0.12613333333333332         -2.0254809768067997E-020
  0.12653333333333333         -2.3293018308581125E-020
  0.12693333333333334         -2.4828045805629335E-020
  0.12733333333333335         -2.4497071778618689E-020
  0.12773333333333337         -2.2025242850808568E-020
  0.12813333333333332         -1.7256674250823941E-020
  0.12853333333333333         -1.0181255634380908E-020
  0.12893333333333334         -9.5507614462693706E-022
  0.12933333333333336          1.0087579853389978E-020
  0.12973333333333337          2.2432448356731938E-020
  0.13013333333333332          3.5395097185235268E-020
  0.13053333333333333          4.8143175039724915E-020
  0.13093333333333335          5.9731280719125259E-020
  0.13133333333333336          6.9147885425383319E-020
  0.13173333333333337          7.5372858974545271E-020
  0.13213333333333332          7.7443337284205248E-020
  0.13253333333333334          7.4524850212662100E-020
  0.13293333333333335          6.5983809722442883E-020
  0.13333333333333336          5.1457028594674268E-020
  0.13373333333333337          3.0913500481082587E-020
  0.13413333333333333          4.7036038218468869E-021
  0.13453333333333334         -2.6408745950952690E-020
  0.13493333333333335         -6.1234952901078880E-020
  0.13533333333333336         -9.8174609547452324E-020
  0.13573333333333332         -1.3525413726552966E-019
  0.13613333333333333         -1.7019150630399046E-019
  0.13653333333333334         -2.0048582009131163E-019
  0.13693333333333335         -2.2352878428565739E-019
  0.13733333333333336         -2.3673381803627149E-019
  0.13773333333333332         -2.3767695903094680E-019
  0.13813333333333333         -2.2424326153975007E-019
  0.13853333333333334         -1.9477135915176268E-019
  0.13893333333333335         -1.4818945843766319E-019
  0.13933333333333336         -8.4136126706205686E-020
  0.13973333333333332         -3.0608217116778318E-021
  0.14013333333333333          9.3699859701573081E-020
  0.14053333333333334          2.0387174175712967E-019
  0.14093333333333335          3.2421819737868138E-019
  0.14133333333333337          4.5053849968530277E-019
  0.14173333333333332          5.7768432824325209E-019
  0.14213333333333333          6.9958831325945286E-019
  0.14253333333333335          8.0929650242053666E-019
  0.14293333333333336          8.9899601974457526E-019
  0.14333333333333337          9.6002933444664727E-019
  0.14373333333333332          9.8288485175937027E-019
  0.14413333333333334          9.5715715656471002E-019
  0.14453333333333335          8.7146931011518874E-019
  0.14493333333333336          7.1335099598989842E-019
  0.14533333333333337          4.6907070582772909E-019
  0.14573333333333333          1.2341758336550504E-019
  0.14613333333333334         -3.4056711199306226E-019
  0.14653333333333335         -9.4190911594806065E-019
  0.14693333333333336         -1.7020693839229341E-018
  0.14733333333333337         -2.6453630968188319E-018
  0.14773333333333333         -3.7994274962744931E-018
  0.14813333333333334         -5.1957414574885059E-018
  0.14853333333333335         -6.8701953132637806E-018
  0.14893333333333336         -8.8637241641640351E-018
  0.14933333333333332         -1.1223000435481655E-017
  0.14973333333333333         -1.4001204809568594E-017
  0.15013333333333334         -1.7258883598541282E-017
  0.15053333333333335         -2.1064902069936598E-017
  0.15093333333333336         -2.5497519781508182E-017