  -6.6666666666666666E-002     0.0000000000000000     
  -6.6266666666666668E-002     0.0000000000000000     
  -6.5866666666666671E-002     0.0000000000000000     
  -6.5466666666666659E-002     0.0000000000000000     
  -6.5066666666666662E-002     0.0000000000000000     
  -6.4666666666666664E-002     0.0000000000000000     
  -6.4266666666666666E-002     0.0000000000000000     
  -6.3866666666666669E-002     0.0000000000000000     
  -6.3466666666666671E-002     0.0000000000000000     
  -6.3066666666666660E-002     0.0000000000000000     
  -6.2666666666666662E-002     0.0000000000000000     
  -6.2266666666666665E-002     0.0000000000000000     
  -6.1866666666666667E-002     0.0000000000000000     
  -6.1466666666666663E-002     0.0000000000000000     
  -6.1066666666666665E-002     0.0000000000000000     
  -6.0666666666666667E-002     0.0000000000000000     
  -6.0266666666666663E-002     0.0000000000000000     
  -5.9866666666666665E-002     0.0000000000000000     
  -5.9466666666666668E-002     0.0000000000000000     
  -5.9066666666666663E-002     0.0000000000000000     
  -5.8666666666666666E-002     0.0000000000000000     
  -5.8266666666666661E-002     0.0000000000000000     
  -5.7866666666666663E-002     0.0000000000000000     
  -5.7466666666666666E-002     0.0000000000000000     
  -5.7066666666666668E-002     0.0000000000000000     
  -5.6666666666666664E-002     0.0000000000000000     
  -5.6266666666666666E-002     0.0000000000000000     
  -5.5866666666666662E-002     0.0000000000000000     
  -5.5466666666666664E-002     0.0000000000000000     
  -5.5066666666666667E-002     0.0000000000000000     
  -5.4666666666666669E-002     0.0000000000000000     
  -5.4266666666666664E-002     0.0000000000000000     
  -5.3866666666666667E-002     0.0000000000000000     
  -5.3466666666666662E-002     0.0000000000000000     
  -5.3066666666666665E-002     0.0000000000000000     
  -5.2666666666666667E-002     0.0000000000000000     
  -5.2266666666666663E-002     0.0000000000000000     
  -5.1866666666666665E-002     0.0000000000000000     
  -5.1466666666666668E-002     0.0000000000000000     
  -5.1066666666666663E-002     0.0000000000000000     
  -5.0666666666666665E-002     0.0000000000000000     
  -5.0266666666666668E-002     0.0000000000000000     
  -4.9866666666666663E-002     0.0000000000000000     
  -4.9466666666666666E-002     0.0000000000000000     
  -4.9066666666666661E-002     0.0000000000000000     
  -4.8666666666666664E-002     0.0000000000000000     
  -4.8266666666666666E-002     0.0000000000000000     
  -4.7866666666666668E-002     0.0000000000000000     
  -4.7466666666666664E-002     0.0000000000000000     
  -4.7066666666666666E-002     0.0000000000000000     
  -4.6666666666666662E-002     0.0000000000000000     
  -4.6266666666666664E-002     0.0000000000000000     
  -4.5866666666666667E-002     0.0000000000000000     
  -4.5466666666666669E-002     0.0000000000000000     
  -4.5066666666666665E-002     0.0000000000000000     
  -4.4666666666666660E-002     0.0000000000000000     
  -4.4266666666666662E-002     0.0000000000000000     
  -4.3866666666666665E-002     0.0000000000000000     
  -4.3466666666666667E-002     0.0000000000000000     
  -4.3066666666666670E-002     0.0000000000000000     
  -4.2666666666666665E-002     0.0000000000000000     
  -4.2266666666666661E-002     0.0000000000000000     
  -4.1866666666666663E-002     0.0000000000000000     
  -4.1466666666666666E-002     0.0000000000000000     
  -4.1066666666666668E-002     0.0000000000000000     
  -4.0666666666666663E-002     0.0000000000000000     
  -4.0266666666666666E-002     0.0000000000000000     
  -3.9866666666666661E-002     0.0000000000000000     
  -3.9466666666666664E-002     0.0000000000000000     
  -3.9066666666666666E-002     0.0000000000000000     
  -3.8666666666666669E-002     0.0000000000000000     
  -3.8266666666666664E-002     0.0000000000000000     
  -3.7866666666666660E-002     0.0000000000000000     
  -3.7466666666666662E-002     0.0000000000000000     
  -3.7066666666666664E-002     0.0000000000000000     
  -3.6666666666666667E-002     0.0000000000000000     
  -3.6266666666666669E-002     0.0000000000000000     
  -3.5866666666666665E-002     0.0000000000000000     
  -3.5466666666666660E-002     0.0000000000000000     
  -3.5066666666666663E-002     0.0000000000000000     
  -3.4666666666666665E-002     0.0000000000000000     
  -3.4266666666666667E-002     0.0000000000000000     
  -3.3866666666666663E-002     0.0000000000000000     
  -3.3466666666666665E-002     0.0000000000000000     
  -3.3066666666666661E-002     0.0000000000000000     
  -3.2666666666666663E-002     0.0000000000000000     
  -3.2266666666666666E-002     0.0000000000000000     
  -3.1866666666666661E-002     0.0000000000000000     
  -3.1466666666666664E-002    -1.4044452201563049E-038
  -3.1066666666666666E-002    -4.5909312262240370E-038
  -3.0666666666666662E-002    -9.1657161310227378E-038
  -3.0266666666666664E-002    -1.3419578464118698E-037
  -2.9866666666666666E-002    -1.5248406363676388E-037
  -2.9466666666666662E-002    -1.1408421455654463E-037
  -2.9066666666666664E-002     1.3439038015633083E-038
  -2.8666666666666667E-002     2.4964511053051370E-037
  -2.8266666666666662E-002     5.7943812572018504E-037
  -2.7866666666666665E-002     9.3819115970073307E-037
  -2.7466666666666667E-002     1.2049846657936156E-036
  -2.7066666666666662E-002     1.2098597495198385E-036
  -2.6666666666666665E-002     7.5918826251221119E-037
  -2.6266666666666660E-002    -3.1002439328599399E-037
  -2.5866666666666663E-002    -2.0535579233925084E-036
  -2.5466666666666665E-002    -4.3208116653585594E-036
  -2.5066666666666661E-002    -6.6806248254796596E-036
  -2.4666666666666663E-002    -8.3789831387478426E-036
  -2.4266666666666666E-002    -8.3920244966670910E-036
  -2.3866666666666661E-002    -5.5900653942368667E-036
  -2.3466666666666663E-002     9.4780581598648479E-037
  -2.3066666666666666E-002     1.1494592029009411E-035
  -2.2666666666666661E-002     2.5178334221629350E-035
  -2.2266666666666664E-002     3.9556268821820495E-035
  -2.1866666666666666E-002     5.0436708817878899E-035
  -2.1466666666666662E-002     5.2166837908028865E-035
  -2.1066666666666664E-002     3.8549766133225186E-035
  -2.0666666666666667E-002     4.4831778987631085E-036
  -2.0266666666666662E-002    -5.1789193128671675E-035
  -1.9866666666666664E-002    -1.2616908031330675E-034
  -1.9466666666666667E-002    -2.0657515535864410E-034
  -1.9066666666666662E-002    -2.7206660629438376E-034
  -1.8666666666666665E-002    -2.9418872121063802E-034
  -1.8266666666666660E-002    -2.4135284449394266E-034
  -1.7866666666666663E-002    -8.6582861640301726E-035
  -1.7466666666666665E-002     1.8188208276857283E-034
  -1.7066666666666661E-002     5.4876727764264783E-034
  -1.6666666666666663E-002     9.6158890911918659E-034
  -1.6266666666666665E-002     1.3259959231294382E-033
  -1.5866666666666661E-002     1.5108710624710442E-033
  -1.5466666666666663E-002     1.3667514142984008E-033
  -1.5066666666666666E-002     7.5906523738567054E-034
  -1.4666666666666661E-002    -3.8584284226371720E-034
  -1.4266666666666664E-002    -2.0286047841567548E-033
  -1.3866666666666666E-002    -3.9703901269556678E-033
  -1.3466666666666662E-002    -5.8280293596898982E-033
  -1.3066666666666664E-002    -7.0482281280159420E-033
  -1.2666666666666666E-002    -6.9759014299777851E-033
  -1.2266666666666662E-002    -4.9837551541247606E-033
  -1.1866666666666664E-002    -6.5669120478381713E-034
  -1.1466666666666660E-002     5.9934537409452417E-033
  -1.1066666666666662E-002     1.4326989800011335E-032
  -1.0666666666666665E-002     2.2949985832837648E-032
  -1.0266666666666660E-002     2.9730700099281238E-032
  -9.8666666666666625E-003     3.2019678535184061E-032
  -9.4666666666666649E-003     2.7107322907928246E-032
  -9.0666666666666604E-003     1.2904700410233909E-032
  -8.6666666666666628E-003    -1.1231758155978738E-032
  -8.2666666666666652E-003    -4.3683497721331192E-032
  -7.8666666666666607E-003    -7.9976580174438105E-032
  -7.4666666666666631E-003    -1.1266214099453247E-031
  -7.0666666666666655E-003    -1.3190513633175892E-031
  -6.6666666666666610E-003    -1.2693318314091642E-031
  -6.2666666666666634E-003    -8.8341386219945995E-032
  -5.8666666666666659E-003    -1.1029741370266266E-032
  -5.4666666666666613E-003     1.0270216560507172E-031
  -5.0666666666666638E-003     2.4061226780823226E-031
  -4.6666666666666662E-003     3.7938349015303118E-031
  -4.2666666666666617E-003     4.8575437362701925E-031
  -3.8666666666666571E-003     5.2054515078988827E-031
  -3.4666666666666596E-003     4.4574896246458048E-031
  -3.0666666666666620E-003     2.3417232200725236E-031
  -2.6666666666666644E-003    -1.1971281488548209E-031
  -2.2666666666666668E-003    -5.8985290897143277E-031
  -1.8666666666666692E-003    -1.1123761346351107E-030
  -1.4666666666666578E-003    -1.5859348484118968E-030
  -1.0666666666666602E-003    -1.8810456204118222E-030
  -6.6666666666666263E-004    -1.8596038511364391E-030
  -2.6666666666666505E-004    -1.4037803378480232E-030
   1.3333333333333253E-004    -4.5099712156303569E-031
   5.3333333333334398E-004     9.7094121858146151E-031
   9.3333333333334156E-004     2.7166667505130639E-030
   1.3333333333333391E-003     4.5131734503210930E-030
   1.7333333333333367E-003     5.9753026005970406E-030
   2.1333333333333343E-003     6.6523290421508775E-030
   2.5333333333333319E-003     6.1059976360242891E-030
   2.9333333333333433E-003     4.0132953239898478E-030
   3.3333333333333409E-003     2.7932425902657426E-031
   3.7333333333333385E-003    -4.8616388764698132E-030
   4.1333333333333361E-003    -1.0783554849471717E-029
   4.5333333333333337E-003    -1.6471478233552608E-029
   4.9333333333333312E-003    -2.0611184903476212E-029
   5.3333333333333427E-003    -2.1774637678247772E-029
   5.7333333333333403E-003    -1.8692141663272930E-029
   6.1333333333333379E-003    -1.0579923869039224E-029
   6.5333333333333354E-003     2.5302869490150466E-030
   6.9333333333333330E-003     1.9530614824787910E-029
   7.3333333333333445E-003     3.8123671906320424E-029
   7.7333333333333421E-003     5.4927497939799662E-029
   8.1333333333333396E-003     6.5844812385490994E-029
   8.5333333333333372E-003     6.6700021577296147E-029
   8.9333333333333348E-003     5.4091150824387352E-029
   9.3333333333333324E-003     2.6342171629723772E-029
   9.7333333333333438E-003    -1.5614628992029189E-029
   1.0133333333333341E-002    -6.7632412411622617E-029
   1.0533333333333339E-002    -1.2222883095691996E-028
   1.0933333333333337E-002    -1.6911892971924344E-028
   1.1333333333333334E-002    -1.9648298774039692E-028
   1.1733333333333332E-002    -1.9292108864181210E-028
   1.2133333333333343E-002    -1.4989012015380316E-028
   1.2533333333333341E-002    -6.4261872508605897E-029
   1.2933333333333338E-002     5.9485397727655418E-029
   1.3333333333333336E-002     2.0798991360150026E-028
   1.3733333333333334E-002     3.5915644382594606E-028
   1.4133333333333345E-002     4.8409640636557993E-028
   1.4533333333333343E-002     5.5095723105617026E-028
   1.4933333333333340E-002     5.3038632517192158E-028
   1.5333333333333338E-002     4.0197985725126082E-028
   1.5733333333333335E-002     1.6069858344645016E-028
   1.6133333333333333E-002    -1.7802547700649728E-028
   1.6533333333333344E-002    -5.7583827185946035E-028
   1.6933333333333342E-002    -9.7283536315860251E-028
   1.7333333333333339E-002    -1.2934663951196256E-027
   1.7733333333333337E-002    -1.4569729362767437E-027
   1.8133333333333335E-002    -1.3914763922105087E-027
   1.8533333333333332E-002    -1.0499030869237105E-027
   1.8933333333333344E-002    -4.2513844260878818E-028
   1.9333333333333341E-002     4.3868153382947062E-028
   1.9733333333333339E-002     1.4418289639380380E-027
   2.0133333333333336E-002     2.4340807824239749E-027
   2.0533333333333334E-002     3.2305231108710670E-027
   2.0933333333333332E-002     3.6375932491135919E-027
   2.1333333333333343E-002     3.4868410827166810E-027
   2.1733333333333341E-002     2.6718612933688729E-027
   2.2133333333333338E-002     1.1822323852515964E-027
   2.2533333333333336E-002    -8.7252041311027675E-028
   2.2933333333333333E-002    -3.2555939039221279E-027
   2.3333333333333345E-002    -5.6172238981401771E-027
   2.3733333333333342E-002    -7.5327357170862446E-027
   2.4133333333333340E-002    -8.5624850064034121E-027
   2.4533333333333338E-002    -8.3274198640871057E-027
   2.4933333333333335E-002    -6.5898358534252307E-027
   2.5333333333333333E-002    -3.3257840355593318E-027
   2.5733333333333344E-002     1.2256362980362738E-027
   2.6133333333333342E-002     6.5496794437127790E-027
   2.6533333333333339E-002     1.1889686911587802E-026
   2.6933333333333337E-002     1.6330363673375716E-026
   2.7333333333333334E-002     1.8925541947485873E-026
   2.7733333333333332E-002     1.8856471936704324E-026
   2.8133333333333344E-002     1.5598556516827232E-026
   2.8533333333333341E-002     9.0688589814734594E-027
   2.8933333333333339E-002    -2.7507067949173961E-028
   2.9333333333333336E-002    -1.1411267424474546E-026
   2.9733333333333334E-002    -2.2822149662960215E-026
   3.0133333333333345E-002    -3.2660816709900852E-026
   3.0533333333333343E-002    -3.9003467929055737E-026
   3.0933333333333340E-002    -4.0159617541366994E-026
   3.1333333333333338E-002    -3.4996957406490925E-026
   3.1733333333333336E-002    -2.3227895339179985E-026
   3.2133333333333333E-002    -5.6026137935820555E-027
   3.2533333333333345E-002     1.6039545170285333E-026
   3.2933333333333342E-002     3.8892124526366866E-026
   3.3333333333333340E-002     5.9484296914247455E-026
   3.3733333333333337E-002     7.4142096742255787E-026
   3.4133333333333335E-002     7.9555734823020667E-026
   3.4533333333333333E-002     7.3374670666943827E-026
   3.4933333333333344E-002     5.4735982888350812E-026
   3.5333333333333342E-002     2.4628728958321796E-026
   3.5733333333333339E-002    -1.3989523707721338E-026
   3.6133333333333337E-002    -5.6378489900634111E-026
   3.6533333333333334E-002    -9.6515227394261784E-026
   3.6933333333333346E-002    -1.2787006330515387E-025
   3.7333333333333343E-002    -1.4436943426449737E-025
   3.7733333333333341E-002    -1.4141427503187795E-025
   3.8133333333333339E-002    -1.1679672417095338E-025
   3.8533333333333336E-002    -7.1354601266874943E-026
   3.8933333333333334E-002    -9.2262005245820968E-027
   3.9333333333333345E-002     6.2383804475193860E-026
   3.9733333333333343E-002     1.3394785447538080E-025
   4.0133333333333340E-002     1.9480897867719927E-025
   4.0533333333333338E-002     2.3468560161328196E-025
   4.0933333333333335E-002     2.4528392322302297E-025
   4.1333333333333333E-002     2.2177495612701515E-025
   4.1733333333333344E-002     1.6388998225346597E-025
   4.2133333333333342E-002     7.6423901562510852E-026
   4.2533333333333340E-002    -3.0990095594304258E-026
   4.2933333333333337E-002    -1.4486824087562993E-025
   4.3333333333333335E-002    -2.4954199717417968E-025
   4.3733333333333346E-002    -3.2930254000971835E-025
   4.4133333333333344E-002    -3.7073122212492010E-025
   4.4533333333333341E-002    -3.6486961582057866E-025
   4.4933333333333339E-002    -3.0887984329396802E-025
   4.5333333333333337E-002    -2.0689982511961843E-025
   4.5733333333333334E-002    -6.9903189645905612E-026
   4.6133333333333346E-002     8.5482243425744001E-026
   4.6533333333333343E-002     2.3908160296333591E-025
   4.6933333333333341E-002     3.6993518751584223E-025
   4.7333333333333338E-002     4.5932392561102308E-025
   4.7733333333333336E-002     4.9360077010758784E-025
   4.8133333333333334E-002     4.6637525741995425E-025
   4.8533333333333345E-002     3.7967796482196776E-025
   4.8933333333333343E-002     2.4387629954526922E-025
   4.9333333333333340E-002     7.6305418352332149E-026
   4.9733333333333338E-002    -1.0121481077033356E-025
   5.0133333333333335E-002    -2.6561316457340790E-025
   5.0533333333333347E-002    -3.9604729699146623E-025
   5.0933333333333344E-002    -4.7706309009053455E-025
   5.1333333333333342E-002    -5.0089610645526518E-025
   5.1733333333333339E-002    -4.6850123755952487E-025
   5.2133333333333337E-002    -3.8909967573966834E-025
   5.2533333333333335E-002    -2.7828377447735793E-025
   5.2933333333333346E-002    -1.5497877527500818E-025
   5.3333333333333344E-002    -3.7783143249509586E-026
   5.3733333333333341E-002     5.8647765391042970E-026
   5.4133333333333339E-002     1.2647693494653357E-025
   5.4533333333333336E-002     1.6621391717644049E-025
   5.4933333333333334E-002     1.8650046143033034E-025
   5.5333333333333345E-002     2.0205912808614942E-025
   5.5733333333333343E-002     2.3005678768857466E-025
   5.6133333333333341E-002     2.8546805400072212E-025
   5.6533333333333338E-002     3.7628339773918859E-025
   5.6933333333333336E-002     4.9953739215363514E-025
   5.7333333333333333E-002     6.3909985318836170E-025
   5.7733333333333345E-002     7.6596180156044970E-025
   5.8133333333333342E-002     8.4137833390996914E-025
   5.8533333333333340E-002     8.2274928502556179E-025
   5.8933333333333351E-002     6.7159254083634941E-025
   5.9333333333333335E-002     3.6248607259545337E-025
   5.9733333333333347E-002    -1.0849469037464923E-025
   6.0133333333333330E-002    -7.1745903392958182E-025
   6.0533333333333342E-002    -1.4100025864210501E-024
   6.0933333333333353E-002    -2.1032445766364783E-024
   6.1333333333333337E-002    -2.6930952025624068E-024
   6.1733333333333348E-002    -3.0664539971031016E-024
   6.2133333333333332E-002    -3.1171972776162169E-024
   6.2533333333333344E-002    -2.7640266169314856E-024
   6.2933333333333327E-002    -1.9676764634915318E-024
   6.3333333333333339E-002    -7.4471343864786913E-025
   6.3733333333333350E-002     8.2470240601927587E-025
   6.4133333333333334E-002     2.5971724775007000E-024
   6.4533333333333345E-002     4.3756710240198231E-024
   6.4933333333333329E-002     5.9283236237548282E-024
   6.5333333333333340E-002     7.0149116786589230E-024
   6.5733333333333352E-002     7.4183525005288633E-024
   6.6133333333333336E-002     6.9773555886831610E-024
   6.6533333333333347E-002     5.6158467472963754E-024
   6.6933333333333331E-002     3.3646905537157310E-024
   6.7333333333333342E-002     3.7183629299361829E-025
   6.7733333333333354E-002    -3.1017985155310765E-024
   6.8133333333333337E-002    -6.7017165443462664E-024
   6.8533333333333349E-002    -1.0013520285254170E-023
   6.8933333333333333E-002    -1.2607881854134342E-023
   6.9333333333333344E-002    -1.4092020306529091E-023
   6.9733333333333328E-002    -1.4161613615587689E-023
   7.0133333333333339E-002    -1.2646539982794697E-023
   7.0533333333333351E-002    -9.5441086036024073E-024
   7.0933333333333334E-002    -5.0346408536003114E-024
   7.1333333333333346E-002     5.2383386430018312E-025
   7.1733333333333330E-002     6.6225212203493186E-024
   7.2133333333333341E-002     1.2648490046952404E-023
   7.2533333333333352E-002     1.7946456220589562E-023
   7.2933333333333336E-002     2.1889080472966501E-023
   7.3333333333333348E-002     2.3947830730750572E-023
   7.3733333333333331E-002     2.3756102820902036E-023
   7.4133333333333343E-002     2.1157041218748558E-023
   7.4533333333333354E-002     1.6230199391138056E-023
   7.4933333333333338E-002     9.2936428996120204E-024
   7.5333333333333349E-002     8.8101119882633854E-025
   7.5733333333333333E-002    -8.3040074276813985E-024
   7.6133333333333345E-002    -1.7450745494079541E-023
   7.6533333333333328E-002    -2.5715262544845576E-023
   7.6933333333333340E-002    -3.2296858450292933E-023
   7.7333333333333351E-002    -3.6509656518655395E-023
   7.7733333333333335E-002    -3.7842654743636136E-023
   7.8133333333333346E-002    -3.6003412921338863E-023
   7.8533333333333330E-002    -3.0942873369789693E-023
   7.8933333333333341E-002    -2.2861028105680257E-023
   7.9333333333333353E-002    -1.2195197949037927E-023
   7.9733333333333337E-002     4.0610460793164535E-025
   8.0133333333333348E-002     1.4120133731469358E-023
   8.0533333333333332E-002     2.7994430005879260E-023
   8.0933333333333343E-002     4.0996495399160774E-023
   8.1333333333333355E-002     5.2067454540010217E-023
   8.1733333333333338E-002     6.0179604684654624E-023
   8.2133333333333350E-002     6.4398470671100046E-023
   8.2533333333333334E-002     6.3949854940631719E-023
   8.2933333333333345E-002     5.8291254693285533E-023
   8.3333333333333329E-002     4.7185150221386683E-023
   8.3733333333333340E-002     3.0769049447046054E-023
   8.4133333333333352E-002     9.6144615857127328E-024
   8.4533333333333335E-002    -1.5235254885315297E-023
   8.4933333333333347E-002    -4.2259474330194097E-023
   8.5333333333333330E-002    -6.9498058837457656E-023
   8.5733333333333342E-002    -9.4640646230436227E-023
   8.6133333333333353E-002    -1.1517115518559653E-022
   8.6533333333333337E-002    -1.2856489001832028E-022
   8.6933333333333349E-002    -1.3252803885372926E-022
   8.7333333333333332E-002    -1.2526143084806780E-022
   8.7733333333333344E-002    -1.0572361183426313E-022
   8.8133333333333355E-002    -7.3863154392182086E-023
   8.8533333333333339E-002    -3.0788389160998452E-023
   8.8933333333333350E-002     2.1155479274156221E-023
   8.9333333333333334E-002     7.8425831204671792E-023
   8.9733333333333345E-002     1.3645272914228690E-022
   9.0133333333333329E-002     1.8994074231231377E-022
   9.0533333333333341E-002     2.3328868691953182E-022
   9.0933333333333352E-002     2.6109854556169471E-022
   9.1333333333333336E-002     2.6873118502737871E-022
   9.1733333333333347E-002     2.5285645109329868E-022
   9.2133333333333331E-002     2.1194016707098078E-022
   9.2533333333333342E-002     1.4661079635550924E-022
   9.2933333333333354E-002     5.9855887723588130E-023
   9.3333333333333338E-002    -4.2989255864501297E-023
   9.3733333333333349E-002    -1.5447999311856368E-022
   9.4133333333333333E-002    -2.6552646599891094E-022
   9.4533333333333344E-002    -3.6605950560545190E-022
   9.4933333333333356E-002    -4.4585287452097862E-022
   9.5333333333333339E-002    -4.9543827288601955E-022
   9.5733333333333351E-002    -5.0703632048474509E-022
   9.6133333333333335E-002    -4.7542029001642496E-022
   9.6533333333333346E-002    -3.9862901016180731E-022
   9.6933333333333330E-002    -2.7845535349918053E-022
   9.7333333333333341E-002    -1.2064980048324370E-022
   9.7733333333333353E-002     6.5199397992727318E-023
   9.8133333333333336E-002     2.6612337495778633E-022
   9.8533333333333348E-002     4.6655425074820980E-022
   9.8933333333333331E-002     6.4939095351021006E-022
   9.9333333333333343E-002     7.9728432410163832E-022
   9.9733333333333354E-002     8.9405481273463714E-022
  0.10013333333333334          9.2614027223954894E-022
  0.10053333333333335          8.8396254283179747E-022
  0.10093333333333333          7.6309844986137229E-022
  0.10133333333333334          5.6514762653921885E-022
  0.10173333333333336          2.9820305368998468E-022
  0.10213333333333334         -2.3148795097574019E-023
  0.10253333333333335         -3.7834253690539894E-022
  0.10293333333333334         -7.4187427973503304E-022
  0.10333333333333335         -1.0848399012728015E-021
  0.10373333333333333         -1.3769033199572107E-021
  0.10413333333333334         -1.5885869368400392E-021
  0.10453333333333335         -1.6937379303204205E-021
  0.10493333333333334         -1.6719965703628438E-021
  0.10533333333333335         -1.5110682388783864E-021
  0.10573333333333333         -1.2085958952128945E-021
  0.10613333333333334         -7.7343644046985744E-022
  0.10653333333333335         -2.2616904685595666E-022
  0.10693333333333334          4.0129308810204730E-022
  0.10733333333333335          1.0670565278448701E-021
  0.10773333333333333          1.7215641972694120E-021
  0.10813333333333335          2.3107890198392286E-021
  0.10853333333333333          2.7801350556419028E-021
  0.10893333333333334          3.0787971380263047E-021
  0.10933333333333335          3.1642643227383175E-021
  0.10973333333333334          3.0066072522774050E-021
  0.11013333333333335          2.5921697724975562E-021
  0.11053333333333333          1.9263012943474814E-021
  0.11093333333333334          1.0348131446976203E-021
  0.11133333333333335         -3.6077385986143248E-023
  0.11173333333333334         -1.2214452655339178E-021
  0.11213333333333335         -2.4409974668436970E-021
  0.11253333333333333         -3.6039201079362716E-021
  0.11293333333333334         -4.6149618064683833E-021
  0.11333333333333336         -5.3813612037668859E-021
  0.11373333333333334         -5.8201413407382702E-021
  0.11413333333333335         -5.8652230880191937E-021
  0.11453333333333333         -5.4738050995682223E-021
  0.11493333333333335         -4.6314811849124355E-021
  0.11533333333333333         -3.3556362733028684E-021
  0.11573333333333334         -1.6967740224417882E-021
  0.11613333333333335          2.6243912947314005E-022
  0.11653333333333334          2.4104705440520122E-021
  0.11693333333333335          4.6124584542044167E-021
  0.11733333333333333          6.7177312600702561E-021
  0.11773333333333334          8.5689134072466988E-021
  0.11813333333333335          1.0012106892636617E-020
  0.11853333333333334          1.0907548484977309E-020
  0.11893333333333335          1.1140090442474846E-020
  0.11933333333333333          1.0628840317335223E-020
  0.11973333333333334          9.3352930136028111E-021
  0.12013333333333336          7.2693617739311747E-021
  0.12053333333333334          4.4927777788095679E-021
  0.12093333333333335          1.1194538556164512E-021
  0.12133333333333333         -2.6874562938609767E-021
  0.12173333333333335         -6.7218893774561123E-021
  0.12213333333333333         -1.0744489698934226E-020
  0.12253333333333334         -1.4495189936952478E-020
  0.12293333333333335         -1.7708198543004254E-020
  0.12333333333333334         -2.0128640490846652E-020
  0.12373333333333335         -2.1529868292640142E-020
  0.12413333333333333         -2.1730330344213539E-020
  0.12453333333333334         -2.0608784909103872E-020
  0.12493333333333335         -1.8116633510736516E-020
  0.12533333333333335         -1.4286244437339010E-020
  0.12573333333333336         -9.2343341658122936E-021
  0.12613333333333332         -3.1597834918224663E-021
  0.12653333333333333          3.6643576070280611E-021
  0.12693333333333334          1.0904435248570298E-020
  0.12733333333333335          1.8184622264092120E-020
  0.12773333333333337          2.5109020642020272E-020
  0.12813333333333332          3.1285848079005090E-020
  0.12853333333333333          3.6351828498880878E-020
  0.12893333333333334          3.9994796540049767E-020
  0.12933333333333336          4.1972562766444182E-020
  0.12973333333333337          4.2126382817462099E-020
  0.13013333333333332          4.0387804266240489E-020
  0.13053333333333333          3.6778282109917445E-020
  0.13093333333333335          3.1401695370027995E-020
  0.13133333333333336          2.4430614601866015E-020
  0.13173333333333337          1.6087931053184735E-020
  0.13213333333333332          6.6260022615756672E-021
  0.13253333333333334         -3.6941062207179931E-021
  0.13293333333333335         -1.4620574038826752E-020
  0.13333333333333336         -2.5923420344757075E-020
  0.13373333333333337         -3.7399636921612551E-020
  0.13413333333333333         -4.8869452542243544E-020
  0.13453333333333334         -6.0163230557591328E-020
  0.13493333333333335         -7.1099624543050723E-020
  0.13533333333333336         -8.1456649595250614E-020
  0.13573333333333332         -9.0938368925353083E-020
  0.13613333333333333         -9.9140788814656939E-020
  0.13653333333333334         -1.0552115599670522E-019
  0.13693333333333335         -1.0937518434104584E-019
  0.13733333333333336         -1.0982660523564959E-019
  0.13773333333333332         -1.0583323573218499E-019
  0.13813333333333333         -9.6212860251903321E-020
  0.13853333333333334         -7.9691407393971239E-020
  0.13893333333333335         -5.4974720778306856E-020
  0.13933333333333336         -2.0843891611176464E-020
  0.13973333333333332          2.3727002171248766E-020
  0.14013333333333333          7.9433255957020803E-020
  0.14053333333333334          1.4648533712883324E-019
  0.14093333333333335          2.2444266376616363E-019
  0.14133333333333337          3.1204023760552257E-019
  0.14173333333333332          4.0701336737671057E-019
  0.14213333333333333          5.0592630670670037E-019
  0.14253333333333335          6.0400986822563504E-019
  0.14293333333333336          6.9501297049626893E-019
  0.14333333333333337          7.7107258971203782E-019
  0.14373333333333332          8.2260490789832575E-019
  0.14413333333333334          8.3821985481543067E-019
  0.14453333333333335          8.0465834562958698E-019
  0.14493333333333336          7.0675092188233781E-019
  0.14533333333333337          5.2739278097579369E-019
  0.14573333333333333          2.4752805974099395E-019
  0.14613333333333334         -1.5386624388524977E-019
  0.14653333333333335         -6.9980994596482879E-019
  0.14693333333333336         -1.4153793369600179E-018
  0.14733333333333337         -2.3278134227433999E-018
  0.14773333333333333         -3.4666893385865155E-018
  0.14813333333333334         -4.8641867884619386E-018
  0.14853333333333335         -6.5554638435353168E-018
  0.14893333333333336         -8.5791657616396680E-018
  0.14933333333333332         -1.0978084663813892E-017
  0.14973333333333333         -1.3799990644023232E-017
  0.15013333333333334         -1.7098635552832609E-017
  0.15053333333333335         -2.0934950341343292E-017
  0.15093333333333336         -2.5378435551802598E-017