-0.1200000E+00  0.0000000E+00
-0.1189000E+00  0.0000000E+00
-0.1178000E+00  0.0000000E+00
-0.1167000E+00  0.0000000E+00
-0.1156000E+00  0.0000000E+00
-0.1145000E+00  0.0000000E+00
-0.1134000E+00  0.0000000E+00
-0.1123000E+00  0.0000000E+00
-0.1112000E+00  0.0000000E+00
-0.1101000E+00  0.0000000E+00
-0.1090000E+00  0.0000000E+00
-0.1079000E+00  0.0000000E+00
-0.1068000E+00  0.0000000E+00
-0.1057000E+00  0.0000000E+00
-0.1046000E+00  0.0000000E+00
-0.1035000E+00  0.0000000E+00
-0.1024000E+00  0.0000000E+00
-0.1013000E+00  0.0000000E+00
-0.1002000E+00  0.0000000E+00
-0.9910000E-01  0.0000000E+00
-0.9800000E-01  0.0000000E+00
-0.9690000E-01  0.0000000E+00
-0.9580000E-01  0.0000000E+00
-0.9470000E-01  0.0000000E+00
-0.9360000E-01  0.0000000E+00
-0.9250000E-01  0.0000000E+00
-0.9140000E-01  0.0000000E+00
-0.9030000E-01  0.0000000E+00
-0.8920000E-01  0.0000000E+00
-0.8810000E-01  0.0000000E+00
-0.8700000E-01  0.0000000E+00
-0.8590000E-01  0.0000000E+00
-0.8480000E-01  0.0000000E+00
-0.8370000E-01  0.0000000E+00
-0.8260000E-01  0.0000000E+00
-0.8150000E-01  0.0000000E+00
-0.8040000E-01  0.0000000E+00
-0.7930000E-01  0.0000000E+00
-0.7820000E-01  0.0000000E+00
-0.7710000E-01  0.0000000E+00
-0.7600000E-01  0.0000000E+00
-0.7490000E-01  0.0000000E+00
-0.7380000E-01  0.0000000E+00
-0.7270000E-01 -0.0000000E+00
-0.7160000E-01 -0.0000000E+00
-0.7050000E-01 -0.0000000E+00
-0.6940000E-01  0.0000000E+00
-0.6830000E-01  0.2881579E-37
-0.6720000E-01  0.3479855E-37
-0.6610000E-01 -0.3209151E-37
-0.6500000E-01 -0.2779637E-36
-0.6390000E-01 -0.6161141E-36
-0.6280000E-01 -0.5214960E-36
-0.6170000E-01  0.1029229E-35
-0.6060000E-01  0.4725893E-35
-0.5950000E-01  0.8678326E-35
-0.5840000E-01  0.5890199E-35
-0.5730000E-01 -0.1451938E-34
-0.5620000E-01 -0.5616897E-34
-0.5510000E-01 -0.9282507E-34
-0.5400000E-01 -0.5007236E-34
-0.5290000E-01  0.1680484E-33
-0.5180000E-01  0.5613539E-33
-0.5070000E-01  0.8401940E-33
-0.4960000E-01  0.3260949E-33
-0.4850000E-01 -0.1714466E-32
-0.4740000E-01 -0.5020870E-32
-0.4630000E-01 -0.6891211E-32
-0.4520000E-01 -0.1828838E-32
-0.4410000E-01  0.1525957E-31
-0.4300000E-01  0.4088059E-31
-0.4190000E-01  0.5316693E-31
-0.4080000E-01  0.1173482E-31
-0.3970000E-01 -0.1168611E-30
-0.3860000E-01 -0.3020338E-30
-0.3750000E-01 -0.3878321E-30
-0.3640000E-01 -0.1023645E-30
-0.3530000E-01  0.7671713E-30
-0.3420000E-01  0.2012899E-29
-0.3310000E-01  0.2643940E-29
-0.3200000E-01  0.9743080E-30
-0.3090000E-01 -0.4313554E-29
-0.2980000E-01 -0.1206911E-28
-0.2870000E-01 -0.1663704E-28
-0.2760000E-01 -0.8363396E-29
-0.2650000E-01  0.2061168E-28
-0.2540000E-01  0.6509827E-28
-0.2430000E-01  0.9593650E-28
-0.2320000E-01  0.6200197E-28
-0.2210000E-01 -0.8125987E-28
-0.2100000E-01 -0.3158741E-27
-0.1990000E-01 -0.5055919E-27
-0.1880000E-01 -0.3997649E-27
-0.1770000E-01  0.2389272E-27
-0.1660000E-01  0.1375708E-26
-0.1550000E-01  0.2433813E-26
-0.1440000E-01  0.2275068E-26
-0.1330000E-01 -0.2801125E-27
-0.1220000E-01 -0.5338097E-26
-0.1110000E-01 -0.1069762E-25
-0.1000000E-01 -0.1157335E-25
-0.8900000E-02 -0.2513880E-26
-0.7800000E-02  0.1812488E-25
-0.6700000E-02  0.4286418E-25
-0.5600000E-02  0.5310278E-25
-0.4500000E-02  0.2545644E-25
-0.3400000E-02 -0.5153300E-25
-0.2300000E-02 -0.1559040E-24
-0.1200000E-02 -0.2210178E-24
-0.1000000E-03 -0.1538569E-24
 0.1000000E-02  0.1070321E-24
 0.2100000E-02  0.5101064E-24
 0.3200000E-02  0.8366146E-24
 0.4300000E-02  0.7437991E-24
 0.5400000E-02 -0.4943233E-25
 0.6500000E-02 -0.1474004E-23
 0.7600000E-02 -0.2878804E-23
 0.8700000E-02 -0.3095829E-23
 0.9800000E-02 -0.9855327E-24
 0.1090000E-01  0.3609480E-23
 0.1200000E-01  0.8966879E-23
 0.1310000E-01  0.1141725E-22
 0.1420000E-01  0.6791065E-23
 0.1530000E-01 -0.6648412E-23
 0.1640000E-01 -0.2502704E-22
 0.1750000E-01 -0.3777479E-22
 0.1860000E-01 -0.3099423E-22
 0.1970000E-01  0.4184327E-23
 0.2080000E-01  0.6124831E-22
 0.2190000E-01  0.1125509E-21
 0.2300000E-01  0.1157176E-21
 0.2410000E-01  0.3554337E-22
 0.2520000E-01 -0.1248684E-21
 0.2630000E-01 -0.3010649E-21
 0.2740000E-01 -0.3747964E-21
 0.2850000E-01 -0.2261852E-21
 0.2960000E-01  0.1797690E-21
 0.3070000E-01  0.7144193E-21
 0.3180000E-01  0.1076770E-20
 0.3290000E-01  0.9039283E-21
 0.3400000E-01 -0.7279551E-23
 0.3510000E-01 -0.1460626E-20
 0.3620000E-01 -0.2763427E-20
 0.3730000E-01 -0.2923930E-20
 0.3840000E-01 -0.1172333E-20
 0.3950000E-01  0.2377932E-20
 0.4060000E-01  0.6313224E-20
 0.4170000E-01  0.8172460E-20
 0.4280000E-01  0.5559805E-20
 0.4390000E-01 -0.2186977E-20
 0.4500000E-01 -0.1262231E-19
 0.4610000E-01 -0.2020653E-19
 0.4720000E-01 -0.1841906E-19
 0.4830000E-01 -0.3617057E-20
 0.4940000E-01  0.2107715E-19
 0.5050000E-01  0.4445449E-19
 0.5160000E-01  0.5061530E-19
 0.5270000E-01  0.2712839E-19
 0.5380000E-01 -0.2515438E-19
 0.5490000E-01 -0.8631340E-19
 0.5600000E-01 -0.1213053E-18
 0.5710000E-01 -0.9558098E-19
 0.5820000E-01  0.2434638E-20
 0.5930000E-01  0.1434770E-18
 0.6040000E-01  0.2578103E-18
 0.6150000E-01  0.2616727E-18
 0.6260000E-01  0.1042472E-18
 0.6370000E-01 -0.1859836E-18
 0.6480000E-01 -0.4852765E-18
 0.6590000E-01 -0.6120065E-18
 0.6700000E-01 -0.4159973E-18
 0.6810000E-01  0.1150589E-18
 0.6920000E-01  0.7919084E-18
 0.7030000E-01  0.1259749E-17
 0.7140000E-01  0.1151062E-17
 0.7250000E-01  0.3061409E-18
 0.7360000E-01 -0.1048919E-17
 0.7470000E-01 -0.2292759E-17
 0.7580000E-01 -0.2637211E-17
 0.7690000E-01 -0.1542332E-17
 0.7800000E-01  0.8667395E-18
 0.7910000E-01  0.3634105E-17
 0.8020000E-01  0.5249132E-17
 0.8130000E-01  0.4353499E-17
 0.8240000E-01  0.6034503E-18
 0.8350000E-01 -0.4777584E-17
 0.8460000E-01 -0.9192639E-17
 0.8570000E-01 -0.9745998E-17
 0.8680000E-01 -0.4850451E-17
 0.8790000E-01  0.4414402E-17
 0.8900000E-01  0.1407885E-16
 0.9010000E-01  0.1868880E-16
 0.9120000E-01  0.1402379E-16
 0.9230000E-01 -0.6550657E-19
 0.9340000E-01 -0.1833083E-16
 0.9450000E-01 -0.3154707E-16
 0.9560000E-01 -0.3067157E-16
 0.9670000E-01 -0.1212338E-16
 0.9780000E-01  0.1856745E-16
 0.9890000E-01  0.4733536E-16
 0.1000000E+00  0.5725260E-16
 0.1011000E+00  0.3745215E-16
 0.1022000E+00 -0.8955894E-17
 0.1033000E+00 -0.6282664E-16
 0.1044000E+00 -0.9557187E-16
 0.1055000E+00 -0.8294828E-16
 0.1066000E+00 -0.2004836E-16
 0.1077000E+00  0.7078492E-16
 0.1088000E+00  0.1455080E-15
 0.1099000E+00  0.1577207E-15
 0.1110000E+00  0.8432696E-16
 0.1121000E+00 -0.5546979E-16
 0.1132000E+00 -0.2002863E-15
 0.1143000E+00 -0.2704778E-15
 0.1154000E+00 -0.2082080E-15
 0.1165000E+00 -0.1504674E-16
 0.1176000E+00  0.2345771E-15
 0.1187000E+00  0.4172786E-15
 0.1198000E+00  0.4173201E-15
 0.1209000E+00  0.1919345E-15
 0.1220000E+00 -0.1888477E-15
 0.1231000E+00 -0.5554563E-15
 0.1242000E+00 -0.7092747E-15
 0.1253000E+00 -0.5237735E-15
 0.1264000E+00 -0.2728141E-16
 0.1275000E+00  0.5814670E-15
 0.1286000E+00  0.1006672E-14
 0.1297000E+00  0.9948530E-15
 0.1308000E+00  0.4769405E-15
 0.1319000E+00 -0.3634365E-15
 0.1330000E+00 -0.1145435E-14
 0.1341000E+00 -0.1461281E-14
 0.1352000E+00 -0.1087967E-14
 0.1363000E+00 -0.1319649E-15
 0.1374000E+00  0.9823873E-15
 0.1385000E+00  0.1698241E-14
 0.1396000E+00  0.1609205E-14
 0.1407000E+00  0.6975687E-15
 0.1418000E+00 -0.6114658E-15
 0.1429000E+00 -0.1636307E-14
 0.1440000E+00 -0.1794740E-14
 0.1451000E+00 -0.9490573E-15
 0.1462000E+00  0.4617852E-15
 0.1473000E+00  0.1613667E-14
 0.1484000E+00  0.1750251E-14
 0.1495000E+00  0.6676805E-15
 0.1506000E+00 -0.1060816E-14
 0.1517000E+00 -0.2311103E-14
 0.1528000E+00 -0.2038367E-14
 0.1539000E+00 -0.4062231E-17
 0.1550000E+00  0.2840135E-14
 0.1561000E+00  0.4646264E-14
 0.1572000E+00  0.3641659E-14
 0.1583000E+00 -0.6432054E-15
 0.1594000E+00 -0.6589250E-14
 0.1605000E+00 -0.1077642E-13
 0.1616000E+00 -0.9511534E-14
 0.1627000E+00 -0.1069976E-14
 0.1638000E+00  0.1245934E-13
 0.1649000E+00  0.2494756E-13
 0.1660000E+00  0.2828783E-13
 0.1671000E+00  0.1632909E-13
 0.1682000E+00 -0.1090007E-13
 0.1693000E+00 -0.4489372E-13
 0.1704000E+00 -0.7013907E-13
 0.1715000E+00 -0.6975340E-13
 0.1726000E+00 -0.3365336E-13
 0.1737000E+00  0.3410766E-13
 0.1748000E+00  0.1126869E-12
 0.1759000E+00  0.1690589E-12
 0.1770000E+00  0.1696410E-12
 0.1781000E+00  0.9536379E-13
 0.1792000E+00 -0.4578587E-13
 0.1803000E+00 -0.2148903E-12
 0.1814000E+00 -0.3505049E-12
 0.1825000E+00 -0.3883734E-12
 0.1836000E+00 -0.2865483E-12
 0.1847000E+00 -0.4677439E-13
 0.1858000E+00  0.2769415E-12
 0.1869000E+00  0.5879156E-12
 0.1880000E+00  0.7735886E-12
 0.1891000E+00  0.7420520E-12
 0.1902000E+00  0.4565303E-12
 0.1913000E+00 -0.4418222E-13
 0.1924000E+00 -0.6472633E-12
 0.1935000E+00 -0.1190373E-11
 0.1946000E+00 -0.1502806E-11
 0.1957000E+00 -0.1451899E-11
 0.1968000E+00 -0.9820889E-12
 0.1979000E+00 -0.1368104E-12
 0.1990000E+00  0.9413442E-12
 0.2001000E+00  0.2031193E-11
 0.2012000E+00  0.2869403E-11
 0.2023000E+00  0.3196690E-11
 0.2034000E+00  0.2808444E-11
 0.2045000E+00  0.1605662E-11
 0.2056000E+00 -0.3582434E-12
 0.2067000E+00 -0.2841971E-11
 0.2078000E+00 -0.5404073E-11
 0.2089000E+00 -0.7429893E-11
 0.2100000E+00 -0.8213517E-11
 0.2111000E+00 -0.7102614E-11
 0.2122000E+00 -0.3696681E-11
 0.2133000E+00  0.1935637E-11
 0.2144000E+00  0.9080376E-11
 0.2155000E+00  0.1632030E-10
 0.2166000E+00  0.2166847E-10
 0.2177000E+00  0.2293373E-10
 0.2188000E+00  0.1829568E-10
 0.2199000E+00  0.6985211E-11
 0.2210000E+00 -0.1011078E-10
 0.2221000E+00 -0.3014405E-10
 0.2232000E+00 -0.4850031E-10
 0.2243000E+00 -0.5959612E-10
 0.2254000E+00 -0.5820915E-10
 0.2265000E+00 -0.4107777E-10
 0.2276000E+00 -0.8345648E-11
 0.2287000E+00  0.3563019E-10
 0.2298000E+00  0.8249566E-10
 0.2309000E+00  0.1212841E-09
 0.2320000E+00  0.1407720E-09
 0.2331000E+00  0.1322754E-09
 0.2342000E+00  0.9214916E-10
 0.2353000E+00  0.2326660E-10
 0.2364000E+00 -0.6499046E-10
 0.2375000E+00 -0.1582634E-09
 0.2386000E+00 -0.2398400E-09
 0.2397000E+00 -0.2936166E-09
 0.2408000E+00 -0.3066057E-09
 0.2419000E+00 -0.2704680E-09
 0.2430000E+00 -0.1820408E-09
 0.2441000E+00 -0.4332947E-10
 0.2452000E+00  0.1383105E-09
 0.2463000E+00  0.3492233E-09
 0.2474000E+00  0.5677370E-09
 0.2485000E+00  0.7624907E-09
 0.2496000E+00  0.8923169E-09
 0.2507000E+00  0.9093842E-09
 0.2518000E+00  0.7667506E-09
 0.2529000E+00  0.4301546E-09
 0.2540000E+00 -0.1078749E-09
 0.2551000E+00 -0.8151146E-09
 0.2562000E+00 -0.1612280E-08
 0.2573000E+00 -0.2375059E-08
 0.2584000E+00 -0.2947579E-08
 0.2595000E+00 -0.3166520E-08
 0.2606000E+00 -0.2892093E-08
 0.2617000E+00 -0.2039861E-08
 0.2628000E+00 -0.6066761E-09
 0.2639000E+00  0.1314870E-08
 0.2650000E+00  0.3536442E-08
 0.2661000E+00  0.5788100E-08
 0.2672000E+00  0.7743445E-08
 0.2683000E+00  0.9051250E-08
 0.2694000E+00  0.9369391E-08
 0.2705000E+00  0.8398668E-08
 0.2716000E+00  0.5916260E-08
 0.2727000E+00  0.1810018E-08
 0.2738000E+00 -0.3885575E-08
 0.2749000E+00 -0.1095301E-07
 0.2760000E+00 -0.1895931E-07
 0.2771000E+00 -0.2723459E-07
 0.2782000E+00 -0.3486894E-07
 0.2793000E+00 -0.4073197E-07
 0.2804000E+00 -0.4351316E-07
 0.2815000E+00 -0.4177299E-07
 0.2826000E+00 -0.3398788E-07
 0.2837000E+00 -0.1856845E-07
 0.2848000E+00  0.6167255E-08
 0.2859000E+00  0.4207581E-07
 0.2870000E+00  0.9132458E-07
 0.2881000E+00  0.1565695E-06
 0.2892000E+00  0.2411548E-06
 0.2903000E+00  0.3493170E-06
 0.2914000E+00  0.4863818E-06
 0.2925000E+00  0.6589623E-06
 0.2936000E+00  0.8751788E-06
 0.2947000E+00  0.1144935E-05
 0.2958000E+00  0.1480286E-05
 0.2969000E+00  0.1895921E-05
 0.2980000E+00  0.2409782E-05
 0.2991000E+00  0.3043792E-05
 0.3002000E+00  0.3824672E-05
 0.3013000E+00  0.4784840E-05
 0.3024000E+00  0.5963344E-05
 0.3035000E+00  0.7406872E-05
 0.3046000E+00  0.9170854E-05
 0.3057000E+00  0.1132074E-04
 0.3068000E+00  0.1393349E-04
 0.3079000E+00  0.1709937E-04
 0.3090000E+00  0.2092401E-04
 0.3101000E+00  0.2553080E-04
 0.3112000E+00  0.3106352E-04
 0.3123000E+00  0.3768915E-04
 0.3134000E+00  0.4560083E-04
 0.3145000E+00  0.5502090E-04
 0.3156000E+00  0.6620416E-04
 0.3167000E+00  0.7944124E-04
 0.3178000E+00  0.9506221E-04
 0.3189000E+00  0.1134404E-03
 0.3200000E+00  0.1349967E-03
 0.3211000E+00  0.1602034E-03
 0.3222000E+00  0.1895890E-03
 0.3233000E+00  0.2237418E-03
 0.3244000E+00  0.2633139E-03
 0.3255000E+00  0.3090243E-03
 0.3266000E+00  0.3616613E-03
 0.3277000E+00  0.4220847E-03
 0.3288000E+00  0.4912269E-03
 0.3299000E+00  0.5700929E-03
 0.3310000E+00  0.6597598E-03
 0.3321000E+00  0.7613749E-03
 0.3332000E+00  0.8761523E-03
 0.3343000E+00  0.1005367E-02
 0.3354000E+00  0.1150349E-02
 0.3365000E+00  0.1312471E-02
 0.3376000E+00  0.1493137E-02
 0.3387000E+00  0.1693769E-02
 0.3398000E+00  0.1915785E-02
 0.3409000E+00  0.2160582E-02
 0.3420000E+00  0.2429512E-02
 0.3431000E+00  0.2723854E-02
 0.3442000E+00  0.3044790E-02
 0.3453000E+00  0.3393370E-02
 0.3464000E+00  0.3770481E-02
 0.3475000E+00  0.4176808E-02
 0.3486000E+00  0.4612798E-02
 0.3497000E+00  0.5078621E-02
 0.3508000E+00  0.5574125E-02
 0.3519000E+00  0.6098803E-02
 0.3530000E+00  0.6651746E-02
 0.3541000E+00  0.7231610E-02
 0.3552000E+00  0.7836583E-02
 0.3563000E+00  0.8464348E-02
 0.3574000E+00  0.9112061E-02
 0.3585000E+00  0.9776327E-02
 0.3596000E+00  0.1045319E-01
 0.3607000E+00  0.1113811E-01
 0.3618000E+00  0.1182598E-01
 0.3629000E+00  0.1251115E-01
 0.3640000E+00  0.1318739E-01
 0.3651000E+00  0.1384800E-01
 0.3662000E+00  0.1448578E-01
 0.3673000E+00  0.1509316E-01
 0.3684000E+00  0.1566220E-01
 0.3695000E+00  0.1618469E-01
 0.3706000E+00  0.1665227E-01
 0.3717000E+00  0.1705647E-01
 0.3728000E+00  0.1738890E-01
 0.3739000E+00  0.1764127E-01
 0.3750000E+00  0.1780559E-01
 0.3761000E+00  0.1787429E-01
 0.3772000E+00  0.1784029E-01
 0.3783000E+00  0.1769723E-01
 0.3794000E+00  0.1743952E-01
 0.3805000E+00  0.1706250E-01
 0.3816000E+00  0.1656257E-01
 0.3827000E+00  0.1593725E-01
 0.3838000E+00  0.1518534E-01
 0.3849000E+00  0.1430696E-01
 0.3860000E+00  0.1330360E-01
 0.3871000E+00  0.1217822E-01
 0.3882000E+00  0.1093523E-01
 0.3893000E+00  0.9580540E-02
 0.3904000E+00  0.8121469E-02
 0.3915000E+00  0.6566768E-02
 0.3926000E+00  0.4926515E-02
 0.3937000E+00  0.3212039E-02
 0.3948000E+00  0.1435800E-02
 0.3959000E+00 -0.3887429E-03
 0.3970000E+00 -0.2247287E-02
 0.3981000E+00 -0.4124856E-02
 0.3992000E+00 -0.6005984E-02
 0.4003000E+00 -0.7874914E-02
 0.4014000E+00 -0.9715803E-02
 0.4025000E+00 -0.1151292E-01
 0.4036000E+00 -0.1325087E-01
 0.4047000E+00 -0.1491480E-01
 0.4058000E+00 -0.1649057E-01
 0.4069000E+00 -0.1796499E-01
 0.4080000E+00 -0.1932595E-01
 0.4091000E+00 -0.2056259E-01
 0.4102000E+00 -0.2166546E-01
 0.4113000E+00 -0.2262660E-01
 0.4124000E+00 -0.2343965E-01
 0.4135000E+00 -0.2409989E-01
 0.4146000E+00 -0.2460433E-01
 0.4157000E+00 -0.2495166E-01
 0.4168000E+00 -0.2514229E-01
 0.4179000E+00 -0.2517828E-01
 0.4190000E+00 -0.2506329E-01
 0.4201000E+00 -0.2480246E-01
 0.4212000E+00 -0.2440237E-01
 0.4223000E+00 -0.2387082E-01
 0.4234000E+00 -0.2321679E-01
 0.4245000E+00 -0.2245018E-01
 0.4256000E+00 -0.2158174E-01
 0.4267000E+00 -0.2062284E-01
 0.4278000E+00 -0.1958531E-01
 0.4289000E+00 -0.1848128E-01
 0.4300000E+00 -0.1732300E-01
 0.4311000E+00 -0.1612269E-01
 0.4322000E+00 -0.1489238E-01
 0.4333000E+00 -0.1364375E-01
 0.4344000E+00 -0.1238804E-01
 0.4355000E+00 -0.1113590E-01
 0.4366000E+00 -0.9897269E-02
 0.4377000E+00 -0.8681361E-02
 0.4388000E+00 -0.7496529E-02
 0.4399000E+00 -0.6350249E-02
 0.4410000E+00 -0.5249079E-02
 0.4421000E+00 -0.4198639E-02
 0.4432000E+00 -0.3203612E-02
 0.4443000E+00 -0.2267750E-02
 0.4454000E+00 -0.1393905E-02
 0.4465000E+00 -0.5840652E-03
 0.4476000E+00  0.1606033E-03
 0.4487000E+00  0.8396992E-03
 0.4498000E+00  0.1453529E-02
 0.4509000E+00  0.2003041E-02
 0.4520000E+00  0.2489758E-02
 0.4531000E+00  0.2915703E-02
 0.4542000E+00  0.3283327E-02
 0.4553000E+00  0.3595435E-02
 0.4564000E+00  0.3855116E-02
 0.4575000E+00  0.4065676E-02
 0.4586000E+00  0.4230580E-02
 0.4597000E+00  0.4353386E-02
 0.4608000E+00  0.4437700E-02
 0.4619000E+00  0.4487119E-02
 0.4630000E+00  0.4505190E-02
 0.4641000E+00  0.4495372E-02
 0.4652000E+00  0.4461002E-02
 0.4663000E+00  0.4405267E-02
 0.4674000E+00  0.4331188E-02
 0.4685000E+00  0.4241599E-02
 0.4696000E+00  0.4139137E-02
 0.4707000E+00  0.4026233E-02
 0.4718000E+00  0.3905109E-02
 0.4729000E+00  0.3777777E-02
 0.4740000E+00  0.3646044E-02
 0.4751000E+00  0.3511516E-02
 0.4762000E+00  0.3375607E-02
 0.4773000E+00  0.3239545E-02
 0.4784000E+00  0.3104382E-02
 0.4795000E+00  0.2971014E-02
 0.4806000E+00  0.2840183E-02
 0.4817000E+00  0.2712503E-02
 0.4828000E+00  0.2588464E-02
 0.4839000E+00  0.2468452E-02
 0.4850000E+00  0.2352754E-02
 0.4861000E+00  0.2241573E-02
 0.4872000E+00  0.2135037E-02
 0.4883000E+00  0.2033210E-02
 0.4894000E+00  0.1936099E-02
 0.4905000E+00  0.1843669E-02
 0.4916000E+00  0.1755847E-02
 0.4927000E+00  0.1672536E-02
 0.4938000E+00  0.1593618E-02
 0.4949000E+00  0.1518961E-02
 0.4960000E+00  0.1448420E-02
 0.4971000E+00  0.1381843E-02
 0.4982000E+00  0.1319069E-02
 0.4993000E+00  0.1259932E-02
 0.5004000E+00  0.1204262E-02
 0.5015000E+00  0.1151885E-02
 0.5026000E+00  0.1102632E-02
 0.5037000E+00  0.1056336E-02
 0.5048000E+00  0.1012838E-02
 0.5059000E+00  0.9719832E-03
 0.5070000E+00  0.9336232E-03
 0.5081000E+00  0.8976135E-03
 0.5092000E+00  0.8638113E-03
 0.5103000E+00  0.8320755E-03
 0.5114000E+00  0.8022655E-03
 0.5125000E+00  0.7742430E-03
 0.5136000E+00  0.7478731E-03
 0.5147000E+00  0.7230265E-03
 0.5158000E+00  0.6995818E-03
 0.5169000E+00  0.6774259E-03
 0.5180000E+00  0.6564550E-03
 0.5191000E+00  0.6365727E-03
 0.5202000E+00  0.6176891E-03
 0.5213000E+00  0.5997192E-03
 0.5224000E+00  0.5825825E-03
 0.5235000E+00  0.5662033E-03
 0.5246000E+00  0.5505119E-03
 0.5257000E+00  0.5354466E-03
 0.5268000E+00  0.5209547E-03
 0.5279000E+00  0.5069923E-03
 0.5290000E+00  0.4935239E-03
 0.5301000E+00  0.4805200E-03
 0.5312000E+00  0.4679556E-03
 0.5323000E+00  0.4558080E-03
 0.5334000E+00  0.4440560E-03
 0.5345000E+00  0.4326797E-03
 0.5356000E+00  0.4216607E-03
 0.5367000E+00  0.4109832E-03
 0.5378000E+00  0.4006336E-03
 0.5389000E+00  0.3906007E-03
 0.5400000E+00  0.3808746E-03
 0.5411000E+00  0.3714453E-03
 0.5422000E+00  0.3623021E-03
 0.5433000E+00  0.3534329E-03
 0.5444000E+00  0.3448250E-03
 0.5455000E+00  0.3364659E-03
 0.5466000E+00  0.3283442E-03
 0.5477000E+00  0.3204498E-03
 0.5488000E+00  0.3127739E-03
 0.5499000E+00  0.3053083E-03
 0.5510000E+00  0.2980448E-03
 0.5521000E+00  0.2909751E-03
 0.5532000E+00  0.2840915E-03
 0.5543000E+00  0.2773871E-03
 0.5554000E+00  0.2708567E-03
 0.5565000E+00  0.2644961E-03
 0.5576000E+00  0.2583006E-03
 0.5587000E+00  0.2522634E-03
 0.5598000E+00  0.2463731E-03
 0.5609000E+00  0.2406121E-03
 0.5620000E+00  0.2349551E-03
 0.5631000E+00  0.2293680E-03
 0.5642000E+00  0.2238064E-03
 0.5653000E+00  0.2182146E-03
 0.5664000E+00  0.2125245E-03
 0.5675000E+00  0.2066555E-03
 0.5686000E+00  0.2005139E-03
 0.5697000E+00  0.1939933E-03
 0.5708000E+00  0.1869744E-03
 0.5719000E+00  0.1793239E-03
 0.5730000E+00  0.1708935E-03
 0.5741000E+00  0.1615176E-03
 0.5752000E+00  0.1510125E-03
 0.5763000E+00  0.1391747E-03
 0.5774000E+00  0.1257817E-03
 0.5785000E+00  0.1105921E-03
 0.5796000E+00  0.9334641E-04
 0.5807000E+00  0.7376788E-04
 0.5818000E+00  0.5156293E-04
 0.5829000E+00  0.2642165E-04
 0.5840000E+00 -0.1981795E-05
 0.5851000E+00 -0.3398932E-04
 0.5862000E+00 -0.6995965E-04
 0.5873000E+00 -0.1102699E-03
 0.5884000E+00 -0.1553180E-03
 0.5895000E+00 -0.2055248E-03
 0.5906000E+00 -0.2613352E-03
 0.5917000E+00 -0.3232189E-03
 0.5928000E+00 -0.3916681E-03
 0.5939000E+00 -0.4671959E-03
 0.5950000E+00 -0.5503330E-03
 0.5961000E+00 -0.6416259E-03
 0.5972000E+00 -0.7416349E-03
 0.5983000E+00 -0.8509326E-03
 0.5994000E+00 -0.9701013E-03
 0.6005000E+00 -0.1099731E-02
 0.6016000E+00 -0.1240415E-02
 0.6027000E+00 -0.1392746E-02
 0.6038000E+00 -0.1557307E-02
 0.6049000E+00 -0.1734670E-02
 0.6060000E+00 -0.1925382E-02
 0.6071000E+00 -0.2129960E-02
 0.6082000E+00 -0.2348879E-02
 0.6093000E+00 -0.2582562E-02
 0.6104000E+00 -0.2831371E-02
 0.6115000E+00 -0.3095596E-02
 0.6126000E+00 -0.3375440E-02
 0.6137000E+00 -0.3671013E-02
 0.6148000E+00 -0.3982313E-02
 0.6159000E+00 -0.4309209E-02
 0.6170000E+00 -0.4651426E-02
 0.6181000E+00 -0.5008525E-02
 0.6192000E+00 -0.5379880E-02
 0.6203000E+00 -0.5764663E-02
 0.6214000E+00 -0.6161821E-02
 0.6225000E+00 -0.6570057E-02
 0.6236000E+00 -0.6987811E-02
 0.6247000E+00 -0.7413232E-02
 0.6258000E+00 -0.7844161E-02
 0.6269000E+00 -0.8278108E-02
 0.6280000E+00 -0.8712227E-02
 0.6291000E+00 -0.9143307E-02
 0.6302000E+00 -0.9567748E-02
 0.6313000E+00 -0.9981560E-02
 0.6324000E+00 -0.1038036E-01
 0.6335000E+00 -0.1075937E-01
 0.6346000E+00 -0.1111343E-01
 0.6357000E+00 -0.1143704E-01
 0.6368000E+00 -0.1172435E-01
 0.6379000E+00 -0.1196922E-01
 0.6390000E+00 -0.1216529E-01
 0.6401000E+00 -0.1230600E-01
 0.6412000E+00 -0.1238473E-01
 0.6423000E+00 -0.1239483E-01
 0.6434000E+00 -0.1232973E-01
 0.6445000E+00 -0.1218309E-01
 0.6456000E+00 -0.1194890E-01
 0.6467000E+00 -0.1162158E-01
 0.6478000E+00 -0.1119617E-01
 0.6489000E+00 -0.1066843E-01
 0.6500000E+00 -0.1003499E-01
 0.6511000E+00 -0.9293492E-02
 0.6522000E+00 -0.8442707E-02
 0.6533000E+00 -0.7482684E-02
 0.6544000E+00 -0.6414846E-02
 0.6555000E+00 -0.5242093E-02
 0.6566000E+00 -0.3968881E-02
 0.6577000E+00 -0.2601267E-02
 0.6588000E+00 -0.1146935E-02
 0.6599000E+00  0.3848045E-03
 0.6610000E+00  0.1983052E-02
 0.6621000E+00  0.3635383E-02
 0.6632000E+00  0.5327941E-02
 0.6643000E+00  0.7045568E-02
 0.6654000E+00  0.8771963E-02
 0.6665000E+00  0.1048988E-01
 0.6676000E+00  0.1218132E-01
 0.6687000E+00  0.1382782E-01
 0.6698000E+00  0.1541068E-01
 0.6709000E+00  0.1691126E-01
 0.6720000E+00  0.1831123E-01
 0.6731000E+00  0.1959295E-01
 0.6742000E+00  0.2073968E-01
 0.6753000E+00  0.2173592E-01
 0.6764000E+00  0.2256768E-01
 0.6775000E+00  0.2322270E-01
 0.6786000E+00  0.2369074E-01
 0.6797000E+00  0.2396371E-01
 0.6808000E+00  0.2403592E-01
 0.6819000E+00  0.2390415E-01
 0.6830000E+00  0.2356775E-01
 0.6841000E+00  0.2302871E-01
 0.6852000E+00  0.2229161E-01
 0.6863000E+00  0.2136363E-01
 0.6874000E+00  0.2025443E-01
 0.6885000E+00  0.1897597E-01
 0.6896000E+00  0.1754244E-01
 0.6907000E+00  0.1596994E-01
 0.6918000E+00  0.1427631E-01
 0.6929000E+00  0.1248080E-01
 0.6940000E+00  0.1060383E-01
 0.6951000E+00  0.8666635E-02
 0.6962000E+00  0.6690939E-02
 0.6973000E+00  0.4698650E-02
 0.6984000E+00  0.2711514E-02
 0.6995000E+00  0.7508078E-03
 0.7006000E+00 -0.1162977E-02
 0.7017000E+00 -0.3010410E-02
 0.7028000E+00 -0.4773382E-02
 0.7039000E+00 -0.6435336E-02
 0.7050000E+00 -0.7981465E-02
 0.7061000E+00 -0.9398884E-02
 0.7072000E+00 -0.1067675E-01
 0.7083000E+00 -0.1180636E-01
 0.7094000E+00 -0.1278120E-01
 0.7105000E+00 -0.1359693E-01
 0.7116000E+00 -0.1425140E-01
 0.7127000E+00 -0.1474458E-01
 0.7138000E+00 -0.1507843E-01
 0.7149000E+00 -0.1525684E-01
 0.7160000E+00 -0.1528544E-01
 0.7171000E+00 -0.1517146E-01
 0.7182000E+00 -0.1492355E-01
 0.7193000E+00 -0.1455155E-01
 0.7204000E+00 -0.1406632E-01
 0.7215000E+00 -0.1347950E-01
 0.7226000E+00 -0.1280330E-01
 0.7237000E+00 -0.1205030E-01
 0.7248000E+00 -0.1123324E-01
 0.7259000E+00 -0.1036482E-01
 0.7270000E+00 -0.9457534E-02
 0.7281000E+00 -0.8523494E-02
 0.7292000E+00 -0.7574279E-02
 0.7303000E+00 -0.6620806E-02
 0.7314000E+00 -0.5673216E-02
 0.7325000E+00 -0.4740784E-02
 0.7336000E+00 -0.3831850E-02
 0.7347000E+00 -0.2953757E-02
 0.7358000E+00 -0.2112828E-02
 0.7369000E+00 -0.1314345E-02
 0.7380000E+00 -0.5625626E-03
 0.7391000E+00  0.1392825E-03
 0.7402000E+00  0.7889271E-03
 0.7413000E+00  0.1385038E-02
 0.7424000E+00  0.1927152E-02
 0.7435000E+00  0.2415610E-02
 0.7446000E+00  0.2851482E-02
 0.7457000E+00  0.3236482E-02
 0.7468000E+00  0.3572885E-02
 0.7479000E+00  0.3863436E-02
 0.7490000E+00  0.4111260E-02
 0.7501000E+00  0.4319773E-02
 0.7512000E+00  0.4492593E-02
 0.7523000E+00  0.4633465E-02
 0.7534000E+00  0.4746176E-02
 0.7545000E+00  0.4834487E-02
 0.7556000E+00  0.4902071E-02
 0.7567000E+00  0.4952453E-02
 0.7578000E+00  0.4988953E-02
 0.7589000E+00  0.5014651E-02
 0.7600000E+00  0.5032338E-02
 0.7611000E+00  0.5044493E-02
 0.7622000E+00  0.5053258E-02
 0.7633000E+00  0.5060423E-02
 0.7644000E+00  0.5067421E-02
 0.7655000E+00  0.5075327E-02
 0.7666000E+00  0.5084862E-02
 0.7677000E+00  0.5096408E-02
 0.7688000E+00  0.5110026E-02
 0.7699000E+00  0.5125471E-02
 0.7710000E+00  0.5142224E-02
 0.7721000E+00  0.5159513E-02
 0.7732000E+00  0.5176341E-02
 0.7743000E+00  0.5191518E-02
 0.7754000E+00  0.5203694E-02
 0.7765000E+00  0.5211394E-02
 0.7776000E+00  0.5213055E-02
 0.7787000E+00  0.5207062E-02
 0.7798000E+00  0.5191780E-02
 0.7809000E+00  0.5165591E-02
 0.7820000E+00  0.5126921E-02
 0.7831000E+00  0.5074269E-02
 0.7842000E+00  0.5006241E-02
 0.7853000E+00  0.4921574E-02
 0.7864000E+00  0.4819166E-02
 0.7875000E+00  0.4698103E-02
 0.7886000E+00  0.4557670E-02
 0.7897000E+00  0.4397373E-02
 0.7908000E+00  0.4216949E-02
 0.7919000E+00  0.4016376E-02
 0.7930000E+00  0.3795885E-02
 0.7941000E+00  0.3555966E-02
 0.7952000E+00  0.3297368E-02
 0.7963000E+00  0.3021102E-02
 0.7974000E+00  0.2728435E-02
 0.7985000E+00  0.2420874E-02
 0.7996000E+00  0.2100157E-02
 0.8007000E+00  0.1768235E-02
 0.8018000E+00  0.1427251E-02
 0.8029000E+00  0.1079520E-02
 0.8040000E+00  0.7274997E-03
 0.8051000E+00  0.3737630E-03
 0.8062000E+00  0.2096317E-04
 0.8073000E+00 -0.3281982E-03
 0.8084000E+00 -0.6710066E-03
 0.8095000E+00 -0.1004771E-02
 0.8106000E+00 -0.1326862E-02
 0.8117000E+00 -0.1634747E-02
 0.8128000E+00 -0.1926030E-02
 0.8139000E+00 -0.2198481E-02
 0.8150000E+00 -0.2450071E-02
 0.8161000E+00 -0.2678997E-02
 0.8172000E+00 -0.2883709E-02
 0.8183000E+00 -0.3062927E-02
 0.8194000E+00 -0.3215663E-02
 0.8205000E+00 -0.3341236E-02
 0.8216000E+00 -0.3439275E-02
 0.8227000E+00 -0.3509724E-02
 0.8238000E+00 -0.3552837E-02
 0.8249000E+00 -0.3569162E-02
 0.8260000E+00 -0.3559537E-02
 0.8271000E+00 -0.3525066E-02
 0.8282000E+00 -0.3467103E-02
 0.8293000E+00 -0.3387221E-02
 0.8304000E+00 -0.3287190E-02
 0.8315000E+00 -0.3168931E-02
 0.8326000E+00 -0.3034488E-02
 0.8337000E+00 -0.2885986E-02
 0.8348000E+00 -0.2725597E-02
 0.8359000E+00 -0.2555506E-02
 0.8370000E+00 -0.2377879E-02
 0.8381000E+00 -0.2194837E-02
 0.8392000E+00 -0.2008418E-02
 0.8403000E+00 -0.1820559E-02
 0.8414000E+00 -0.1633069E-02
 0.8425000E+00 -0.1447608E-02
 0.8436000E+00 -0.1265678E-02
 0.8447000E+00 -0.1088605E-02
 0.8458000E+00 -0.9175408E-03
 0.8469000E+00 -0.7534532E-03
 0.8480000E+00 -0.5971309E-03
 0.8491000E+00 -0.4491886E-03
 0.8502000E+00 -0.3100778E-03
 0.8513000E+00 -0.1800999E-03
 0.8524000E+00 -0.5942230E-04
 0.8535000E+00  0.5190584E-04
 0.8546000E+00  0.1539377E-03
 0.8557000E+00  0.2468141E-03
 0.8568000E+00  0.3307486E-03
 0.8579000E+00  0.4060140E-03
 0.8590000E+00  0.4729285E-03
 0.8601000E+00  0.5318419E-03
 0.8612000E+00  0.5831235E-03
 0.8623000E+00  0.6271495E-03
 0.8634000E+00  0.6642941E-03
 0.8645000E+00  0.6949214E-03
 0.8656000E+00  0.7193827E-03
 0.8667000E+00  0.7380157E-03
 0.8678000E+00  0.7511475E-03
 0.8689000E+00  0.7590983E-03
 0.8700000E+00  0.7621848E-03
 0.8711000E+00  0.7607223E-03
 0.8722000E+00  0.7550259E-03
 0.8733000E+00  0.7454106E-03
 0.8744000E+00  0.7321917E-03
 0.8755000E+00  0.7156865E-03
 0.8766000E+00  0.6962147E-03
 0.8777000E+00  0.6740987E-03
 0.8788000E+00  0.6496626E-03
 0.8799000E+00  0.6232287E-03
 0.8810000E+00  0.5951127E-03
 0.8821000E+00  0.5656191E-03
 0.8832000E+00  0.5350353E-03
 0.8843000E+00  0.5036261E-03
 0.8854000E+00  0.4716273E-03
 0.8865000E+00  0.4392389E-03
 0.8876000E+00  0.4066174E-03
 0.8887000E+00  0.3738692E-03
 0.8898000E+00  0.3410452E-03
 0.8909000E+00  0.3081368E-03
 0.8920000E+00  0.2750754E-03
 0.8931000E+00  0.2417329E-03
 0.8942000E+00  0.2079247E-03
 0.8953000E+00  0.1734152E-03
 0.8964000E+00  0.1379243E-03
 0.8975000E+00  0.1011375E-03
 0.8986000E+00  0.6271621E-04
 0.8997000E+00  0.2230932E-04
 0.9008000E+00 -0.2043514E-04
 0.9019000E+00 -0.6585888E-04
 0.9030000E+00 -0.1142822E-03
 0.9041000E+00 -0.1659923E-03
 0.9052000E+00 -0.2212302E-03
 0.9063000E+00 -0.2801783E-03
 0.9074000E+00 -0.3429465E-03
 0.9085000E+00 -0.4095614E-03
 0.9096000E+00 -0.4799580E-03
 0.9107000E+00 -0.5539735E-03
 0.9118000E+00 -0.6313463E-03
 0.9129000E+00 -0.7117149E-03
 0.9140000E+00 -0.7946214E-03
 0.9151000E+00 -0.8795160E-03
 0.9162000E+00 -0.9657630E-03
 0.9173000E+00 -0.1052649E-02
 0.9184000E+00 -0.1139389E-02
 0.9195000E+00 -0.1225141E-02
 0.9206000E+00 -0.1309008E-02
 0.9217000E+00 -0.1390052E-02
 0.9228000E+00 -0.1467306E-02
 0.9239000E+00 -0.1539784E-02
 0.9250000E+00 -0.1606499E-02
 0.9261000E+00 -0.1666471E-02
 0.9272000E+00 -0.1718747E-02
 0.9283000E+00 -0.1762409E-02
 0.9294000E+00 -0.1796588E-02
 0.9305000E+00 -0.1820468E-02
 0.9316000E+00 -0.1833298E-02
 0.9327000E+00 -0.1834398E-02
 0.9338000E+00 -0.1823170E-02
 0.9349000E+00 -0.1799104E-02
 0.9360000E+00 -0.1761783E-02
 0.9371000E+00 -0.1710898E-02
 0.9382000E+00 -0.1646245E-02
 0.9393000E+00 -0.1567738E-02
 0.9404000E+00 -0.1475412E-02
 0.9415000E+00 -0.1369431E-02
 0.9426000E+00 -0.1250088E-02
 0.9437000E+00 -0.1117814E-02
 0.9448000E+00 -0.9731765E-03
 0.9459000E+00 -0.8168829E-03
 0.9470000E+00 -0.6497804E-03
 0.9481000E+00 -0.4728556E-03
 0.9492000E+00 -0.2872311E-03
 0.9503000E+00 -0.9416063E-04
 0.9514000E+00  0.1049773E-03
 0.9525000E+00  0.3086893E-03
 0.9536000E+00  0.5153767E-03
 0.9547000E+00  0.7233489E-03
 0.9558000E+00  0.9308375E-03
 0.9569000E+00  0.1136016E-02
 0.9580000E+00  0.1337019E-02
 0.9591000E+00  0.1531971E-02
 0.9602000E+00  0.1719013E-02
 0.9613000E+00  0.1896329E-02
 0.9624000E+00  0.2062174E-02
 0.9635000E+00  0.2214901E-02
 0.9646000E+00  0.2352981E-02
 0.9657000E+00  0.2475027E-02
 0.9668000E+00  0.2579821E-02
 0.9679000E+00  0.2666329E-02
 0.9690000E+00  0.2733726E-02
 0.9701000E+00  0.2781413E-02
 0.9712000E+00  0.2809025E-02
 0.9723000E+00  0.2816445E-02
 0.9734000E+00  0.2803801E-02
 0.9745000E+00  0.2771464E-02
 0.9756000E+00  0.2720049E-02
 0.9767000E+00  0.2650398E-02
 0.9778000E+00  0.2563572E-02
 0.9789000E+00  0.2460828E-02