-0.1200000E+00  0.0000000E+00
-0.1189000E+00  0.0000000E+00
-0.1178000E+00  0.0000000E+00
-0.1167000E+00  0.0000000E+00
-0.1156000E+00  0.0000000E+00
-0.1145000E+00  0.0000000E+00
-0.1134000E+00  0.0000000E+00
-0.1123000E+00  0.0000000E+00
-0.1112000E+00  0.0000000E+00
-0.1101000E+00  0.0000000E+00
-0.1090000E+00  0.0000000E+00
-0.1079000E+00 -0.6365803E-36
-0.1068000E+00 -0.4665534E-33
-0.1057000E+00 -0.1101924E-31
-0.1046000E+00 -0.1241234E-30
-0.1035000E+00 -0.8831278E-30
-0.1024000E+00 -0.4401584E-29
-0.1013000E+00 -0.1582667E-28
-0.1002000E+00 -0.3891152E-28
-0.9910000E-01 -0.4315101E-28
-0.9800000E-01  0.1403104E-27
-0.9690000E-01  0.1006947E-26
-0.9580000E-01  0.3450356E-26
-0.9470000E-01  0.7982464E-26
-0.9360000E-01  0.1173912E-25
-0.9250000E-01  0.2412397E-26
-0.9140000E-01 -0.4763061E-25
-0.9030000E-01 -0.1741311E-24
-0.8920000E-01 -0.3766594E-24
-0.8810000E-01 -0.5183996E-24
-0.8700000E-01 -0.2029655E-24
-0.8590000E-01  0.1221097E-23
-0.8480000E-01  0.4243820E-23
-0.8370000E-01  0.8111228E-23
-0.8260000E-01  0.9299922E-23
-0.8150000E-01  0.8492252E-24
-0.8040000E-01 -0.2490863E-22
-0.7930000E-01 -0.6770611E-22
-0.7820000E-01 -0.1056785E-21
-0.7710000E-01 -0.8544665E-22
-0.7600000E-01  0.6588420E-22
-0.7490000E-01  0.3869344E-21
-0.7380000E-01  0.7858858E-21
-0.7270000E-01  0.9488410E-21
-0.7160000E-01  0.3598296E-21
-0.7050000E-01 -0.1437281E-20
-0.6940000E-01 -0.4290976E-20
-0.6830000E-01 -0.6804065E-20
-0.6720000E-01 -0.6130598E-20
-0.6610000E-01  0.1075828E-20
-0.6500000E-01  0.1613568E-19
-0.6390000E-01  0.3482554E-19
-0.6280000E-01  0.4499604E-19
-0.6170000E-01  0.2863543E-19
-0.6060000E-01 -0.2890884E-19
-0.5950000E-01 -0.1233810E-18
-0.5840000E-01 -0.2166985E-18
-0.5730000E-01 -0.2354202E-18
-0.5620000E-01 -0.9570228E-19
-0.5510000E-01  0.2420943E-18
-0.5400000E-01  0.7064770E-18
-0.5290000E-01  0.1075979E-17
-0.5180000E-01  0.1018495E-17
-0.5070000E-01  0.2381567E-18
-0.4960000E-01 -0.1297571E-17
-0.4850000E-01 -0.3152722E-17
-0.4740000E-01 -0.4392139E-17
-0.4630000E-01 -0.3852912E-17
-0.4520000E-01 -0.7193524E-18
-0.4410000E-01  0.4793365E-17
-0.4300000E-01  0.1101055E-16
-0.4190000E-01  0.1500210E-16
-0.4080000E-01  0.1357629E-16
-0.3970000E-01  0.4810648E-17
-0.3860000E-01 -0.1053425E-16
-0.3750000E-01 -0.2849599E-16
-0.3640000E-01 -0.4273744E-16
-0.3530000E-01 -0.4648372E-16
-0.3420000E-01 -0.3468264E-16
-0.3310000E-01 -0.5400641E-17
-0.3200000E-01  0.3983389E-16
-0.3090000E-01  0.9587837E-16
-0.2980000E-01  0.1525235E-15
-0.2870000E-01  0.1912047E-15
-0.2760000E-01  0.1821220E-15
-0.2650000E-01  0.8725175E-16
-0.2540000E-01 -0.1244430E-15
-0.2430000E-01 -0.4478465E-15
-0.2320000E-01 -0.8073194E-15
-0.2210000E-01 -0.1038462E-14
-0.2100000E-01 -0.9136973E-15
-0.1990000E-01 -0.2301151E-15
-0.1880000E-01  0.1050944E-14
-0.1770000E-01  0.2664583E-14
-0.1660000E-01  0.3989300E-14
-0.1550000E-01  0.4165983E-14
-0.1440000E-01  0.2421387E-14
-0.1330000E-01 -0.1473329E-14
-0.1220000E-01 -0.6791790E-14
-0.1110000E-01 -0.1173550E-13
-0.1000000E-01 -0.1381117E-13
-0.8900000E-02 -0.1072616E-13
-0.7800000E-02 -0.1564698E-14
-0.6700000E-02  0.1222867E-13
-0.5600000E-02  0.2660670E-13
-0.4500000E-02  0.3578553E-13
-0.3400000E-02  0.3416587E-13
-0.2300000E-02  0.1874144E-13
-0.1200000E-02 -0.8944564E-14
-0.1000000E-03 -0.4224152E-13
 0.1000000E-02 -0.7074419E-13
 0.2100000E-02 -0.8332317E-13
 0.3200000E-02 -0.7186400E-13
 0.4300000E-02 -0.3437877E-13
 0.5400000E-02  0.2363270E-13
 0.6500000E-02  0.8998032E-13
 0.7600000E-02  0.1482992E-12
 0.8700000E-02  0.1813268E-12
 0.9800000E-02  0.1740991E-12
 0.1090000E-01  0.1168546E-12
 0.1200000E-01  0.8073788E-14
 0.1310000E-01 -0.1419282E-12
 0.1420000E-01 -0.3074290E-12
 0.1530000E-01 -0.4459530E-12
 0.1640000E-01 -0.5025653E-12
 0.1750000E-01 -0.4226897E-12
 0.1860000E-01 -0.1732957E-12
 0.1970000E-01  0.2327050E-12
 0.2080000E-01  0.7189152E-12
 0.2190000E-01  0.1146682E-11
 0.2300000E-01  0.1343400E-11
 0.2410000E-01  0.1156742E-11
 0.2520000E-01  0.5211330E-12
 0.2630000E-01 -0.4877188E-12
 0.2740000E-01 -0.1636991E-11
 0.2850000E-01 -0.2577561E-11
 0.2960000E-01 -0.2940249E-11
 0.3070000E-01 -0.2462973E-11
 0.3180000E-01 -0.1106454E-11
 0.3290000E-01  0.8875073E-12
 0.3400000E-01  0.3026467E-11
 0.3510000E-01  0.4688381E-11
 0.3620000E-01  0.5301609E-11
 0.3730000E-01  0.4527855E-11
 0.3840000E-01  0.2387455E-11
 0.3950000E-01 -0.7157156E-12
 0.4060000E-01 -0.4079025E-11
 0.4170000E-01 -0.6869413E-11
 0.4280000E-01 -0.8325588E-11
 0.4390000E-01 -0.7940767E-11
 0.4500000E-01 -0.5587052E-11
 0.4610000E-01 -0.1564726E-11
 0.4720000E-01  0.3422545E-11
 0.4830000E-01  0.8359934E-11
 0.4940000E-01  0.1207825E-10
 0.5050000E-01  0.1347466E-10
 0.5160000E-01  0.1178499E-10
 0.5270000E-01  0.6864784E-11
 0.5380000E-01 -0.6022701E-12
 0.5490000E-01 -0.9073981E-11
 0.5600000E-01 -0.1638574E-10
 0.5710000E-01 -0.2027052E-10
 0.5820000E-01 -0.1906757E-10
 0.5930000E-01 -0.1241007E-10
 0.6040000E-01 -0.1621453E-11
 0.6150000E-01  0.1041102E-10
 0.6260000E-01  0.1996550E-10
 0.6370000E-01  0.2367257E-10
 0.6480000E-01  0.1979624E-10
 0.6590000E-01  0.9129896E-11
 0.6700000E-01 -0.4913587E-11
 0.6810000E-01 -0.1719642E-10
 0.6920000E-01 -0.2255760E-10
 0.7030000E-01 -0.1779931E-10
 0.7140000E-01 -0.3244501E-11
 0.7250000E-01  0.1678861E-10
 0.7360000E-01  0.3493152E-10
 0.7470000E-01  0.4298392E-10
 0.7580000E-01  0.3477946E-10
 0.7690000E-01  0.8773786E-11
 0.7800000E-01 -0.3056658E-10
 0.7910000E-01 -0.7317495E-10
 0.8020000E-01 -0.1056552E-09
 0.8130000E-01 -0.1148925E-09
 0.8240000E-01 -0.9204860E-10
 0.8350000E-01 -0.3583110E-10
 0.8460000E-01  0.4591848E-10
 0.8570000E-01  0.1368697E-09
 0.8680000E-01  0.2151049E-09
 0.8790000E-01  0.2577859E-09
 0.8900000E-01  0.2466845E-09
 0.9010000E-01  0.1734315E-09
 0.9120000E-01  0.4326786E-10
 0.9230000E-01 -0.1237907E-09
 0.9340000E-01 -0.2951178E-09
 0.9450000E-01 -0.4311254E-09
 0.9560000E-01 -0.4937474E-09
 0.9670000E-01 -0.4562118E-09
 0.9780000E-01 -0.3117936E-09
 0.9890000E-01 -0.7893620E-10
 0.1000000E+00  0.1994708E-09
 0.1011000E+00  0.4636390E-09
 0.1022000E+00  0.6503786E-09
 0.1033000E+00  0.7096451E-09
 0.1044000E+00  0.6197183E-09
 0.1055000E+00  0.3962298E-09
 0.1066000E+00  0.9139194E-10
 0.1077000E+00 -0.2176826E-09
 0.1088000E+00 -0.4493909E-09
 0.1099000E+00 -0.5415550E-09
 0.1110000E+00 -0.4718786E-09
 0.1121000E+00 -0.2682889E-09
 0.1132000E+00 -0.4969746E-11
 0.1143000E+00  0.2160850E-09
 0.1154000E+00  0.2937712E-09
 0.1165000E+00  0.1591954E-09
 0.1176000E+00 -0.1993026E-09
 0.1187000E+00 -0.7250281E-09
 0.1198000E+00 -0.1299723E-08
 0.1209000E+00 -0.1767453E-08
 0.1220000E+00 -0.1970109E-08
 0.1231000E+00 -0.1785881E-08
 0.1242000E+00 -0.1161267E-08
 0.1253000E+00 -0.1288722E-09
 0.1264000E+00  0.1193086E-08
 0.1275000E+00  0.2619075E-08
 0.1286000E+00  0.3927576E-08
 0.1297000E+00  0.4897739E-08
 0.1308000E+00  0.5342709E-08
 0.1319000E+00  0.5132305E-08
 0.1330000E+00  0.4200865E-08
 0.1341000E+00  0.2540530E-08
 0.1352000E+00  0.1847999E-09
 0.1363000E+00 -0.2809184E-08
 0.1374000E+00 -0.6369626E-08
 0.1385000E+00 -0.1040165E-07
 0.1396000E+00 -0.1475701E-07
 0.1407000E+00 -0.1918399E-07
 0.1418000E+00 -0.2326654E-07
 0.1429000E+00 -0.2636705E-07
 0.1440000E+00 -0.2758897E-07
 0.1451000E+00 -0.2577165E-07
 0.1462000E+00 -0.1952118E-07
 0.1473000E+00 -0.7269253E-08
 0.1484000E+00  0.1266030E-07
 0.1495000E+00  0.4200581E-07
 0.1506000E+00  0.8257257E-07
 0.1517000E+00  0.1363115E-06
 0.1528000E+00  0.2054809E-06
 0.1539000E+00  0.2928840E-06
 0.1550000E+00  0.4021593E-06
 0.1561000E+00  0.5380929E-06
 0.1572000E+00  0.7069226E-06
 0.1583000E+00  0.9166144E-06
 0.1594000E+00  0.1177111E-05
 0.1605000E+00  0.1500573E-05
 0.1616000E+00  0.1901641E-05
 0.1627000E+00  0.2397777E-05
 0.1638000E+00  0.3009719E-05
 0.1649000E+00  0.3762075E-05
 0.1660000E+00  0.4684096E-05
 0.1671000E+00  0.5810590E-05
 0.1682000E+00  0.7182999E-05
 0.1693000E+00  0.8850574E-05
 0.1704000E+00  0.1087166E-04
 0.1715000E+00  0.1331506E-04
 0.1726000E+00  0.1626145E-04
 0.1737000E+00  0.1980493E-04
 0.1748000E+00  0.2405469E-04
 0.1759000E+00  0.2913677E-04
 0.1770000E+00  0.3519621E-04
 0.1781000E+00  0.4239920E-04
 0.1792000E+00  0.5093569E-04
 0.1803000E+00  0.6102215E-04
 0.1814000E+00  0.7290451E-04
 0.1825000E+00  0.8686123E-04
 0.1836000E+00  0.1032064E-03
 0.1847000E+00  0.1222930E-03
 0.1858000E+00  0.1445153E-03
 0.1869000E+00  0.1703120E-03
 0.1880000E+00  0.2001686E-03
 0.1891000E+00  0.2346194E-03
 0.1902000E+00  0.2742495E-03
 0.1913000E+00  0.3196959E-03
 0.1924000E+00  0.3716495E-03
 0.1935000E+00  0.4308544E-03
 0.1946000E+00  0.4981083E-03
 0.1957000E+00  0.5742608E-03
 0.1968000E+00  0.6602110E-03
 0.1979000E+00  0.7569031E-03
 0.1990000E+00  0.8653211E-03
 0.2001000E+00  0.9864813E-03
 0.2012000E+00  0.1121423E-02
 0.2023000E+00  0.1271199E-02
 0.2034000E+00  0.1436860E-02
 0.2045000E+00  0.1619442E-02
 0.2056000E+00  0.1819952E-02
 0.2067000E+00  0.2039344E-02
 0.2078000E+00  0.2278502E-02
 0.2089000E+00  0.2538217E-02
 0.2100000E+00  0.2819164E-02
 0.2111000E+00  0.3121871E-02
 0.2122000E+00  0.3446695E-02
 0.2133000E+00  0.3793793E-02
 0.2144000E+00  0.4163094E-02
 0.2155000E+00  0.4554269E-02
 0.2166000E+00  0.4966700E-02
 0.2177000E+00  0.5399460E-02
 0.2188000E+00  0.5851283E-02
 0.2199000E+00  0.6320541E-02
 0.2210000E+00  0.6805229E-02
 0.2221000E+00  0.7302941E-02
 0.2232000E+00  0.7810868E-02
 0.2243000E+00  0.8325786E-02
 0.2254000E+00  0.8844057E-02
 0.2265000E+00  0.9361640E-02
 0.2276000E+00  0.9874098E-02
 0.2287000E+00  0.1037663E-01
 0.2298000E+00  0.1086409E-01
 0.2309000E+00  0.1133104E-01
 0.2320000E+00  0.1177179E-01
 0.2331000E+00  0.1218043E-01
 0.2342000E+00  0.1255095E-01
 0.2353000E+00  0.1287723E-01
 0.2364000E+00  0.1315320E-01
 0.2375000E+00  0.1337287E-01
 0.2386000E+00  0.1353041E-01
 0.2397000E+00  0.1362030E-01
 0.2408000E+00  0.1363737E-01
 0.2419000E+00  0.1357689E-01
 0.2430000E+00  0.1343472E-01
 0.2441000E+00  0.1320732E-01
 0.2452000E+00  0.1289192E-01
 0.2463000E+00  0.1248652E-01
 0.2474000E+00  0.1199001E-01
 0.2485000E+00  0.1140220E-01
 0.2496000E+00  0.1072390E-01
 0.2507000E+00  0.9956903E-02
 0.2518000E+00  0.9104079E-02
 0.2529000E+00  0.8169320E-02
 0.2540000E+00  0.7157555E-02
 0.2551000E+00  0.6074714E-02
 0.2562000E+00  0.4927685E-02
 0.2573000E+00  0.3724254E-02
 0.2584000E+00  0.2473031E-02
 0.2595000E+00  0.1183357E-02
 0.2606000E+00 -0.1347982E-03
 0.2617000E+00 -0.1470955E-02
 0.2628000E+00 -0.2814250E-02
 0.2639000E+00 -0.4153577E-02
 0.2650000E+00 -0.5477726E-02
 0.2661000E+00 -0.6775525E-02
 0.2672000E+00 -0.8035994E-02
 0.2683000E+00 -0.9248485E-02
 0.2694000E+00 -0.1040282E-01
 0.2705000E+00 -0.1148943E-01
 0.2716000E+00 -0.1249949E-01
 0.2727000E+00 -0.1342501E-01
 0.2738000E+00 -0.1425896E-01
 0.2749000E+00 -0.1499533E-01
 0.2760000E+00 -0.1562924E-01
 0.2771000E+00 -0.1615694E-01
 0.2782000E+00 -0.1657588E-01
 0.2793000E+00 -0.1688473E-01
 0.2804000E+00 -0.1708333E-01
 0.2815000E+00 -0.1717274E-01
 0.2826000E+00 -0.1715515E-01
 0.2837000E+00 -0.1703382E-01
 0.2848000E+00 -0.1681302E-01
 0.2859000E+00 -0.1649799E-01
 0.2870000E+00 -0.1609475E-01
 0.2881000E+00 -0.1561007E-01
 0.2892000E+00 -0.1505133E-01
 0.2903000E+00 -0.1442640E-01
 0.2914000E+00 -0.1374353E-01
 0.2925000E+00 -0.1301122E-01
 0.2936000E+00 -0.1223809E-01
 0.2947000E+00 -0.1143278E-01
 0.2958000E+00 -0.1060382E-01
 0.2969000E+00 -0.9759524E-02
 0.2980000E+00 -0.8907901E-02
 0.2991000E+00 -0.8056561E-02
 0.3002000E+00 -0.7212637E-02
 0.3013000E+00 -0.6382730E-02
 0.3024000E+00 -0.5572852E-02
 0.3035000E+00 -0.4788385E-02
 0.3046000E+00 -0.4034054E-02
 0.3057000E+00 -0.3313911E-02
 0.3068000E+00 -0.2631332E-02
 0.3079000E+00 -0.1989015E-02
 0.3090000E+00 -0.1389007E-02
 0.3101000E+00 -0.8327183E-03
 0.3112000E+00 -0.3209639E-03
 0.3123000E+00  0.1459999E-03
 0.3134000E+00  0.5684284E-03
 0.3145000E+00  0.9470385E-03
 0.3156000E+00  0.1282956E-02
 0.3167000E+00  0.1577661E-02
 0.3178000E+00  0.1832930E-02
 0.3189000E+00  0.2050785E-02
 0.3200000E+00  0.2233435E-02
 0.3211000E+00  0.2383226E-02
 0.3222000E+00  0.2502593E-02
 0.3233000E+00  0.2594020E-02
 0.3244000E+00  0.2659995E-02
 0.3255000E+00  0.2702980E-02
 0.3266000E+00  0.2725374E-02
 0.3277000E+00  0.2729493E-02
 0.3288000E+00  0.2717541E-02
 0.3299000E+00  0.2691597E-02
 0.3310000E+00  0.2653606E-02
 0.3321000E+00  0.2605365E-02
 0.3332000E+00  0.2548527E-02
 0.3343000E+00  0.2484597E-02
 0.3354000E+00  0.2414934E-02
 0.3365000E+00  0.2340754E-02
 0.3376000E+00  0.2263140E-02
 0.3387000E+00  0.2183049E-02
 0.3398000E+00  0.2101324E-02
 0.3409000E+00  0.2018703E-02
 0.3420000E+00  0.1935836E-02
 0.3431000E+00  0.1853289E-02
 0.3442000E+00  0.1771554E-02
 0.3453000E+00  0.1691058E-02
 0.3464000E+00  0.1612170E-02
 0.3475000E+00  0.1535207E-02
 0.3486000E+00  0.1460440E-02
 0.3497000E+00  0.1388104E-02
 0.3508000E+00  0.1318399E-02
 0.3519000E+00  0.1251495E-02
 0.3530000E+00  0.1187535E-02
 0.3541000E+00  0.1126633E-02
 0.3552000E+00  0.1068877E-02
 0.3563000E+00  0.1014322E-02
 0.3574000E+00  0.9629922E-03
 0.3585000E+00  0.9148747E-03
 0.3596000E+00  0.8699199E-03
 0.3607000E+00  0.8280381E-03
 0.3618000E+00  0.7890999E-03
 0.3629000E+00  0.7529358E-03
 0.3640000E+00  0.7193371E-03
 0.3651000E+00  0.6880568E-03
 0.3662000E+00  0.6588107E-03
 0.3673000E+00  0.6312798E-03
 0.3684000E+00  0.6051112E-03
 0.3695000E+00  0.5799201E-03
 0.3706000E+00  0.5552901E-03
 0.3717000E+00  0.5307735E-03
 0.3728000E+00  0.5058915E-03
 0.3739000E+00  0.4801334E-03
 0.3750000E+00  0.4529589E-03
 0.3761000E+00  0.4237992E-03
 0.3772000E+00  0.3920594E-03
 0.3783000E+00  0.3571198E-03
 0.3794000E+00  0.3183345E-03
 0.3805000E+00  0.2750269E-03
 0.3816000E+00  0.2264831E-03
 0.3827000E+00  0.1719424E-03
 0.3838000E+00  0.1105862E-03
 0.3849000E+00  0.4152752E-04
 0.3860000E+00 -0.3620000E-04
 0.3871000E+00 -0.1236526E-03
 0.3882000E+00 -0.2219862E-03
 0.3893000E+00 -0.3324643E-03
 0.3904000E+00 -0.4564662E-03
 0.3915000E+00 -0.5954917E-03
 0.3926000E+00 -0.7511656E-03
 0.3937000E+00 -0.9252405E-03
 0.3948000E+00 -0.1119598E-02
 0.3959000E+00 -0.1336249E-02
 0.3970000E+00 -0.1577324E-02
 0.3981000E+00 -0.1845068E-02
 0.3992000E+00 -0.2141818E-02
 0.4003000E+00 -0.2469974E-02
 0.4014000E+00 -0.2831971E-02
 0.4025000E+00 -0.3230230E-02
 0.4036000E+00 -0.3667118E-02
 0.4047000E+00 -0.4144893E-02
 0.4058000E+00 -0.4665651E-02
 0.4069000E+00 -0.5231262E-02
 0.4080000E+00 -0.5843308E-02
 0.4091000E+00 -0.6503012E-02
 0.4102000E+00 -0.7211170E-02
 0.4113000E+00 -0.7968070E-02
 0.4124000E+00 -0.8773429E-02
 0.4135000E+00 -0.9626317E-02
 0.4146000E+00 -0.1052508E-01
 0.4157000E+00 -0.1146729E-01
 0.4168000E+00 -0.1244968E-01
 0.4179000E+00 -0.1346808E-01
 0.4190000E+00 -0.1451743E-01
 0.4201000E+00 -0.1559169E-01
 0.4212000E+00 -0.1668390E-01
 0.4223000E+00 -0.1778614E-01
 0.4234000E+00 -0.1888957E-01
 0.4245000E+00 -0.1998447E-01
 0.4256000E+00 -0.2106031E-01
 0.4267000E+00 -0.2210581E-01
 0.4278000E+00 -0.2310903E-01
 0.4289000E+00 -0.2405752E-01
 0.4300000E+00 -0.2493840E-01
 0.4311000E+00 -0.2573855E-01
 0.4322000E+00 -0.2644476E-01
 0.4333000E+00 -0.2704387E-01
 0.4344000E+00 -0.2752302E-01
 0.4355000E+00 -0.2786978E-01
 0.4366000E+00 -0.2807238E-01
 0.4377000E+00 -0.2811987E-01
 0.4388000E+00 -0.2800238E-01
 0.4399000E+00 -0.2771124E-01
 0.4410000E+00 -0.2723921E-01
 0.4421000E+00 -0.2658061E-01
 0.4432000E+00 -0.2573151E-01
 0.4443000E+00 -0.2468982E-01
 0.4454000E+00 -0.2345542E-01
 0.4465000E+00 -0.2203023E-01
 0.4476000E+00 -0.2041828E-01
 0.4487000E+00 -0.1862572E-01
 0.4498000E+00 -0.1666081E-01
 0.4509000E+00 -0.1453391E-01
 0.4520000E+00 -0.1225743E-01
 0.4531000E+00 -0.9845651E-02
 0.4542000E+00 -0.7314698E-02
 0.4553000E+00 -0.4682312E-02
 0.4564000E+00 -0.1967688E-02
 0.4575000E+00  0.8087364E-03
 0.4586000E+00  0.3625520E-02
 0.4597000E+00  0.6460465E-02
 0.4608000E+00  0.9290878E-02
 0.4619000E+00  0.1209385E-01
 0.4630000E+00  0.1484653E-01
 0.4641000E+00  0.1752641E-01
 0.4652000E+00  0.2011161E-01
 0.4663000E+00  0.2258112E-01
 0.4674000E+00  0.2491507E-01
 0.4685000E+00  0.2709500E-01
 0.4696000E+00  0.2910404E-01
 0.4707000E+00  0.3092713E-01
 0.4718000E+00  0.3255120E-01
 0.4729000E+00  0.3396529E-01
 0.4740000E+00  0.3516069E-01
 0.4751000E+00  0.3613101E-01
 0.4762000E+00  0.3687219E-01
 0.4773000E+00  0.3738258E-01
 0.4784000E+00  0.3766287E-01
 0.4795000E+00  0.3771604E-01
 0.4806000E+00  0.3754728E-01
 0.4817000E+00  0.3716391E-01
 0.4828000E+00  0.3657516E-01
 0.4839000E+00  0.3579212E-01
 0.4850000E+00  0.3482746E-01
 0.4861000E+00  0.3369527E-01
 0.4872000E+00  0.3241088E-01
 0.4883000E+00  0.3099057E-01
 0.4894000E+00  0.2945139E-01
 0.4905000E+00  0.2781091E-01
 0.4916000E+00  0.2608700E-01
 0.4927000E+00  0.2429757E-01
 0.4938000E+00  0.2246039E-01
 0.4949000E+00  0.2059286E-01
 0.4960000E+00  0.1871185E-01
 0.4971000E+00  0.1683347E-01
 0.4982000E+00  0.1497295E-01
 0.4993000E+00  0.1314452E-01
 0.5004000E+00  0.1136123E-01
 0.5015000E+00  0.9634922E-02
 0.5026000E+00  0.7976119E-02
 0.5037000E+00  0.6393983E-02
 0.5048000E+00  0.4896277E-02
 0.5059000E+00  0.3489358E-02
 0.5070000E+00  0.2178183E-02
 0.5081000E+00  0.9663374E-03
 0.5092000E+00 -0.1439169E-03
 0.5103000E+00 -0.1151580E-02
 0.5114000E+00 -0.2056839E-02
 0.5125000E+00 -0.2860975E-02
 0.5136000E+00 -0.3566273E-02
 0.5147000E+00 -0.4175912E-02
 0.5158000E+00 -0.4693858E-02
 0.5169000E+00 -0.5124751E-02
 0.5180000E+00 -0.5473791E-02
 0.5191000E+00 -0.5746619E-02
 0.5202000E+00 -0.5949212E-02
 0.5213000E+00 -0.6087766E-02
 0.5224000E+00 -0.6168595E-02
 0.5235000E+00 -0.6198025E-02
 0.5246000E+00 -0.6182308E-02
 0.5257000E+00 -0.6127538E-02
 0.5268000E+00 -0.6039571E-02
 0.5279000E+00 -0.5923972E-02
 0.5290000E+00 -0.5785946E-02
 0.5301000E+00 -0.5630309E-02
 0.5312000E+00 -0.5461444E-02
 0.5323000E+00 -0.5283283E-02
 0.5334000E+00 -0.5099294E-02
 0.5345000E+00 -0.4912475E-02
 0.5356000E+00 -0.4725363E-02
 0.5367000E+00 -0.4540045E-02
 0.5378000E+00 -0.4358181E-02
 0.5389000E+00 -0.4181026E-02
 0.5400000E+00 -0.4009467E-02
 0.5411000E+00 -0.3844056E-02
 0.5422000E+00 -0.3685059E-02
 0.5433000E+00 -0.3532493E-02
 0.5444000E+00 -0.3386173E-02
 0.5455000E+00 -0.3245758E-02
 0.5466000E+00 -0.3110793E-02
 0.5477000E+00 -0.2980750E-02
 0.5488000E+00 -0.2855071E-02
 0.5499000E+00 -0.2733202E-02
 0.5510000E+00 -0.2614624E-02
 0.5521000E+00 -0.2498879E-02
 0.5532000E+00 -0.2385593E-02
 0.5543000E+00 -0.2274486E-02
 0.5554000E+00 -0.2165387E-02
 0.5565000E+00 -0.2058234E-02
 0.5576000E+00 -0.1953081E-02
 0.5587000E+00 -0.1850085E-02
 0.5598000E+00 -0.1749503E-02
 0.5609000E+00 -0.1651675E-02
 0.5620000E+00 -0.1557001E-02
 0.5631000E+00 -0.1465930E-02
 0.5642000E+00 -0.1378928E-02
 0.5653000E+00 -0.1296461E-02
 0.5664000E+00 -0.1218970E-02
 0.5675000E+00 -0.1146850E-02
 0.5686000E+00 -0.1080426E-02
 0.5697000E+00 -0.1019938E-02
 0.5708000E+00 -0.9655214E-03
 0.5719000E+00 -0.9171989E-03
 0.5730000E+00 -0.8748717E-03
 0.5741000E+00 -0.8383183E-03
 0.5752000E+00 -0.8071947E-03
 0.5763000E+00 -0.7810400E-03
 0.5774000E+00 -0.7592838E-03
 0.5785000E+00 -0.7412580E-03
 0.5796000E+00 -0.7262128E-03
 0.5807000E+00 -0.7133355E-03
 0.5818000E+00 -0.7017733E-03
 0.5829000E+00 -0.6906568E-03
 0.5840000E+00 -0.6791264E-03
 0.5851000E+00 -0.6663564E-03
 0.5862000E+00 -0.6515788E-03
 0.5873000E+00 -0.6341055E-03
 0.5884000E+00 -0.6133477E-03
 0.5895000E+00 -0.5888334E-03
 0.5906000E+00 -0.5602216E-03
 0.5917000E+00 -0.5273138E-03
 0.5928000E+00 -0.4900613E-03
 0.5939000E+00 -0.4485669E-03
 0.5950000E+00 -0.4030820E-03
 0.5961000E+00 -0.3539980E-03
 0.5972000E+00 -0.3018329E-03
 0.5983000E+00 -0.2472154E-03
 0.5994000E+00 -0.1908662E-03
 0.6005000E+00 -0.1335784E-03
 0.6016000E+00 -0.7619652E-04
 0.6027000E+00 -0.1959466E-04
 0.6038000E+00  0.3534756E-04
 0.6049000E+00  0.8776935E-04
 0.6060000E+00  0.1368531E-03
 0.6071000E+00  0.1818469E-03
 0.6082000E+00  0.2220849E-03
 0.6093000E+00  0.2570038E-03
 0.6104000E+00  0.2861562E-03
 0.6115000E+00  0.3092209E-03
 0.6126000E+00  0.3260094E-03
 0.6137000E+00  0.3364681E-03
 0.6148000E+00  0.3406766E-03
 0.6159000E+00  0.3388401E-03
 0.6170000E+00  0.3312787E-03
 0.6181000E+00  0.3184133E-03
 0.6192000E+00  0.3007502E-03
 0.6203000E+00  0.2788642E-03
 0.6214000E+00  0.2533815E-03
 0.6225000E+00  0.2249612E-03
 0.6236000E+00  0.1942751E-03
 0.6247000E+00  0.1619879E-03
 0.6258000E+00  0.1287374E-03
 0.6269000E+00  0.9511761E-04
 0.6280000E+00  0.6166511E-04
 0.6291000E+00  0.2884789E-04
 0.6302000E+00 -0.2942742E-05
 0.6313000E+00 -0.3339853E-04
 0.6324000E+00 -0.6229851E-04
 0.6335000E+00 -0.8951039E-04
 0.6346000E+00 -0.1149882E-03
 0.6357000E+00 -0.1387657E-03
 0.6368000E+00 -0.1609458E-03
 0.6379000E+00 -0.1816880E-03
 0.6390000E+00 -0.2011946E-03
 0.6401000E+00 -0.2196966E-03
 0.6412000E+00 -0.2374408E-03
 0.6423000E+00 -0.2546761E-03
 0.6434000E+00 -0.2716399E-03
 0.6445000E+00 -0.2885448E-03
 0.6456000E+00 -0.3055655E-03
 0.6467000E+00 -0.3228280E-03
 0.6478000E+00 -0.3404017E-03
 0.6489000E+00 -0.3582936E-03
 0.6500000E+00 -0.3764460E-03
 0.6511000E+00 -0.3947358E-03
 0.6522000E+00 -0.4129766E-03
 0.6533000E+00 -0.4309229E-03
 0.6544000E+00 -0.4482762E-03
 0.6555000E+00 -0.4646945E-03
 0.6566000E+00 -0.4798024E-03
 0.6577000E+00 -0.4932043E-03
 0.6588000E+00 -0.5044968E-03
 0.6599000E+00 -0.5132826E-03
 0.6610000E+00 -0.5191845E-03
 0.6621000E+00 -0.5218581E-03
 0.6632000E+00 -0.5210051E-03
 0.6643000E+00 -0.5163835E-03
 0.6654000E+00 -0.5078167E-03
 0.6665000E+00 -0.4952003E-03
 0.6676000E+00 -0.4785070E-03
 0.6687000E+00 -0.4577898E-03
 0.6698000E+00 -0.4331835E-03
 0.6709000E+00 -0.4049041E-03
 0.6720000E+00 -0.3732456E-03
 0.6731000E+00 -0.3385747E-03
 0.6742000E+00 -0.3013220E-03
 0.6753000E+00 -0.2619715E-03
 0.6764000E+00 -0.2210498E-03
 0.6775000E+00 -0.1791133E-03
 0.6786000E+00 -0.1367359E-03
 0.6797000E+00 -0.9449563E-04
 0.6808000E+00 -0.5296114E-04
 0.6819000E+00 -0.1267755E-04
 0.6830000E+00  0.2584685E-04
 0.6841000E+00  0.6215234E-04
 0.6852000E+00  0.9583747E-04
 0.6863000E+00  0.1265665E-03
 0.6874000E+00  0.1540752E-03
 0.6885000E+00  0.1781746E-03
 0.6896000E+00  0.1987545E-03
 0.6907000E+00  0.2157834E-03
 0.6918000E+00  0.2293073E-03
 0.6929000E+00  0.2394458E-03
 0.6940000E+00  0.2463851E-03
 0.6951000E+00  0.2503711E-03
 0.6962000E+00  0.2516994E-03
 0.6973000E+00  0.2507062E-03
 0.6984000E+00  0.2477574E-03
 0.6995000E+00  0.2432370E-03
 0.7006000E+00  0.2375343E-03
 0.7017000E+00  0.2310306E-03
 0.7028000E+00  0.2240873E-03
 0.7039000E+00  0.2170352E-03
 0.7050000E+00  0.2101655E-03
 0.7061000E+00  0.2037227E-03
 0.7072000E+00  0.1978986E-03
 0.7083000E+00  0.1928273E-03
 0.7094000E+00  0.1885809E-03
 0.7105000E+00  0.1851683E-03
 0.7116000E+00  0.1825353E-03
 0.7127000E+00  0.1805691E-03
 0.7138000E+00  0.1791033E-03
 0.7149000E+00  0.1779257E-03
 0.7160000E+00  0.1767857E-03
 0.7171000E+00  0.1754025E-03
 0.7182000E+00  0.1734738E-03
 0.7193000E+00  0.1706866E-03
 0.7204000E+00  0.1667276E-03
 0.7215000E+00  0.1612964E-03
 0.7226000E+00  0.1541166E-03
 0.7237000E+00  0.1449470E-03
 0.7248000E+00  0.1335897E-03
 0.7259000E+00  0.1198960E-03
 0.7270000E+00  0.1037712E-03
 0.7281000E+00  0.8517685E-04
 0.7292000E+00  0.6413205E-04
 0.7303000E+00  0.4071374E-04
 0.7314000E+00  0.1505550E-04
 0.7325000E+00 -0.1265494E-04
 0.7336000E+00 -0.4217991E-04
 0.7347000E+00 -0.7323765E-04
 0.7358000E+00 -0.1055100E-03
 0.7369000E+00 -0.1386520E-03
 0.7380000E+00 -0.1723023E-03
 0.7391000E+00 -0.2060949E-03
 0.7402000E+00 -0.2396701E-03
 0.7413000E+00 -0.2726849E-03
 0.7424000E+00 -0.3048215E-03
 0.7435000E+00 -0.3357953E-03
 0.7446000E+00 -0.3653616E-03
 0.7457000E+00 -0.3933213E-03
 0.7468000E+00 -0.4195257E-03
 0.7479000E+00 -0.4438798E-03
 0.7490000E+00 -0.4663427E-03
 0.7501000E+00 -0.4869255E-03
 0.7512000E+00 -0.5056876E-03
 0.7523000E+00 -0.5227312E-03
 0.7534000E+00 -0.5381954E-03
 0.7545000E+00 -0.5522507E-03
 0.7556000E+00 -0.5650911E-03
 0.7567000E+00 -0.5769266E-03
 0.7578000E+00 -0.5879732E-03
 0.7589000E+00 -0.5984417E-03
 0.7600000E+00 -0.6085278E-03
 0.7611000E+00 -0.6184019E-03
 0.7622000E+00 -0.6282015E-03
 0.7633000E+00 -0.6380260E-03
 0.7644000E+00 -0.6479325E-03
 0.7655000E+00 -0.6579331E-03
 0.7666000E+00 -0.6679934E-03
 0.7677000E+00 -0.6780319E-03
 0.7688000E+00 -0.6879214E-03
 0.7699000E+00 -0.6974923E-03
 0.7710000E+00 -0.7065382E-03
 0.7721000E+00 -0.7148224E-03
 0.7732000E+00 -0.7220859E-03
 0.7743000E+00 -0.7280553E-03
 0.7754000E+00 -0.7324520E-03
 0.7765000E+00 -0.7350016E-03
 0.7776000E+00 -0.7354441E-03
 0.7787000E+00 -0.7335439E-03
 0.7798000E+00 -0.7290998E-03
 0.7809000E+00 -0.7219539E-03
 0.7820000E+00 -0.7119981E-03
 0.7831000E+00 -0.6991806E-03
 0.7842000E+00 -0.6835093E-03
 0.7853000E+00 -0.6650545E-03
 0.7864000E+00 -0.6439490E-03
 0.7875000E+00 -0.6203871E-03
 0.7886000E+00 -0.5946204E-03
 0.7897000E+00 -0.5669532E-03
 0.7908000E+00 -0.5377361E-03
 0.7919000E+00 -0.5073585E-03
 0.7930000E+00 -0.4762412E-03
 0.7941000E+00 -0.4448280E-03
 0.7952000E+00 -0.4135772E-03
 0.7963000E+00 -0.3829513E-03
 0.7974000E+00 -0.3534068E-03
 0.7985000E+00 -0.3253832E-03
 0.7996000E+00 -0.2992921E-03
 0.8007000E+00 -0.2755064E-03
 0.8018000E+00 -0.2543522E-03
 0.8029000E+00 -0.2361010E-03
 0.8040000E+00 -0.2209647E-03
 0.8051000E+00 -0.2090932E-03
 0.8062000E+00 -0.2005734E-03
 0.8073000E+00 -0.1954298E-03
 0.8084000E+00 -0.1936261E-03
 0.8095000E+00 -0.1950659E-03
 0.8106000E+00 -0.1995945E-03
 0.8117000E+00 -0.2070005E-03
 0.8128000E+00 -0.2170188E-03
 0.8139000E+00 -0.2293365E-03
 0.8150000E+00 -0.2435999E-03
 0.8161000E+00 -0.2594239E-03
 0.8172000E+00 -0.2764011E-03
 0.8183000E+00 -0.2941104E-03
 0.8194000E+00 -0.3121243E-03
 0.8205000E+00 -0.3300153E-03
 0.8216000E+00 -0.3473616E-03
 0.8227000E+00 -0.3637530E-03
 0.8238000E+00 -0.3787971E-03
 0.8249000E+00 -0.3921244E-03
 0.8260000E+00 -0.4033933E-03
 0.8271000E+00 -0.4122941E-03
 0.8282000E+00 -0.4185507E-03
 0.8293000E+00 -0.4219231E-03
 0.8304000E+00 -0.4222080E-03
 0.8315000E+00 -0.4192407E-03
 0.8326000E+00 -0.4128947E-03
 0.8337000E+00 -0.4030821E-03
 0.8348000E+00 -0.3897530E-03
 0.8359000E+00 -0.3728941E-03
 0.8370000E+00 -0.3525273E-03
 0.8381000E+00 -0.3287084E-03
 0.8392000E+00 -0.3015247E-03
 0.8403000E+00 -0.2710931E-03
 0.8414000E+00 -0.2375575E-03
 0.8425000E+00 -0.2010857E-03
 0.8436000E+00 -0.1618674E-03
 0.8447000E+00 -0.1201118E-03
 0.8458000E+00 -0.7604701E-04
 0.8469000E+00 -0.2991835E-04
 0.8480000E+00  0.1801204E-04
 0.8491000E+00  0.6746656E-04
 0.8502000E+00  0.1181534E-03
 0.8513000E+00  0.1697678E-03
 0.8524000E+00  0.2219929E-03
 0.8535000E+00  0.2745014E-03
 0.8546000E+00  0.3269564E-03
 0.8557000E+00  0.3790133E-03
 0.8568000E+00  0.4303221E-03
 0.8579000E+00  0.4805285E-03
 0.8590000E+00  0.5292752E-03
 0.8601000E+00  0.5762018E-03
 0.8612000E+00  0.6209452E-03
 0.8623000E+00  0.6631402E-03
 0.8634000E+00  0.7024214E-03
 0.8645000E+00  0.7384265E-03
 0.8656000E+00  0.7708002E-03
 0.8667000E+00  0.7991976E-03
 0.8678000E+00  0.8232858E-03
 0.8689000E+00  0.8427443E-03
 0.8700000E+00  0.8572652E-03
 0.8711000E+00  0.8665535E-03
 0.8722000E+00  0.8703287E-03
 0.8733000E+00  0.8683279E-03
 0.8744000E+00  0.8603071E-03
 0.8755000E+00  0.8460421E-03
 0.8766000E+00  0.8253272E-03
 0.8777000E+00  0.7979722E-03
 0.8788000E+00  0.7637991E-03
 0.8799000E+00  0.7226397E-03
 0.8810000E+00  0.6743342E-03
 0.8821000E+00  0.6187292E-03
 0.8832000E+00  0.5556752E-03
 0.8843000E+00  0.4850221E-03
 0.8854000E+00  0.4066137E-03
 0.8865000E+00  0.3202820E-03
 0.8876000E+00  0.2258421E-03
 0.8887000E+00  0.1230900E-03
 0.8898000E+00  0.1180236E-04
 0.8909000E+00 -0.1082630E-03
 0.8920000E+00 -0.2373658E-03
 0.8931000E+00 -0.3757820E-03
 0.8942000E+00 -0.5238019E-03
 0.8953000E+00 -0.6817274E-03
 0.8964000E+00 -0.8498661E-03
 0.8975000E+00 -0.1028523E-02
 0.8986000E+00 -0.1217990E-02
 0.8997000E+00 -0.1418530E-02
 0.9008000E+00 -0.1630364E-02
 0.9019000E+00 -0.1853653E-02
 0.9030000E+00 -0.2088478E-02
 0.9041000E+00 -0.2334822E-02
 0.9052000E+00 -0.2592554E-02
 0.9063000E+00 -0.2861401E-02
 0.9074000E+00 -0.3140935E-02
 0.9085000E+00 -0.3430549E-02
 0.9096000E+00 -0.3729440E-02
 0.9107000E+00 -0.4036589E-02
 0.9118000E+00 -0.4350751E-02
 0.9129000E+00 -0.4670439E-02
 0.9140000E+00 -0.4993919E-02
 0.9151000E+00 -0.5319208E-02
 0.9162000E+00 -0.5644070E-02
 0.9173000E+00 -0.5966024E-02
 0.9184000E+00 -0.6282350E-02
 0.9195000E+00 -0.6590106E-02
 0.9206000E+00 -0.6886149E-02
 0.9217000E+00 -0.7167161E-02
 0.9228000E+00 -0.7429681E-02
 0.9239000E+00 -0.7670145E-02
 0.9250000E+00 -0.7884925E-02
 0.9261000E+00 -0.8070368E-02
 0.9272000E+00 -0.8222852E-02
 0.9283000E+00 -0.8338830E-02
 0.9294000E+00 -0.8414883E-02
 0.9305000E+00 -0.8447783E-02
 0.9316000E+00 -0.8434542E-02
 0.9327000E+00 -0.8372463E-02
 0.9338000E+00 -0.8259204E-02
 0.9349000E+00 -0.8092814E-02
 0.9360000E+00 -0.7871786E-02
 0.9371000E+00 -0.7595095E-02
 0.9382000E+00 -0.7262239E-02
 0.9393000E+00 -0.6873266E-02
 0.9404000E+00 -0.6428796E-02
 0.9415000E+00 -0.5930040E-02
 0.9426000E+00 -0.5378795E-02
 0.9437000E+00 -0.4777454E-02
 0.9448000E+00 -0.4128989E-02
 0.9459000E+00 -0.3436941E-02
 0.9470000E+00 -0.2705393E-02
 0.9481000E+00 -0.1938937E-02
 0.9492000E+00 -0.1142633E-02
 0.9503000E+00 -0.3219532E-03
 0.9514000E+00  0.5172758E-03
 0.9525000E+00  0.1368933E-02
 0.9536000E+00  0.2226670E-02
 0.9547000E+00  0.3083980E-02
 0.9558000E+00  0.3934266E-02
 0.9569000E+00  0.4770922E-02
 0.9580000E+00  0.5587405E-02
 0.9591000E+00  0.6377316E-02
 0.9602000E+00  0.7134479E-02
 0.9613000E+00  0.7853005E-02
 0.9624000E+00  0.8527362E-02
 0.9635000E+00  0.9152433E-02
 0.9646000E+00  0.9723575E-02
 0.9657000E+00  0.1023666E-01
 0.9668000E+00  0.1068814E-01
 0.9679000E+00  0.1107506E-01
 0.9690000E+00  0.1139510E-01
 0.9701000E+00  0.1164660E-01
 0.9712000E+00  0.1182856E-01
 0.9723000E+00  0.1194063E-01
 0.9734000E+00  0.1198312E-01
 0.9745000E+00  0.1195696E-01
 0.9756000E+00  0.1186371E-01
 0.9767000E+00  0.1170548E-01
 0.9778000E+00  0.1148495E-01
 0.9789000E+00  0.1120527E-01