-0.1200000E+00  0.0000000E+00
-0.1189000E+00  0.0000000E+00
-0.1178000E+00  0.0000000E+00
-0.1167000E+00  0.0000000E+00
-0.1156000E+00  0.0000000E+00
-0.1145000E+00  0.0000000E+00
-0.1134000E+00  0.0000000E+00
-0.1123000E+00  0.0000000E+00
-0.1112000E+00  0.0000000E+00
-0.1101000E+00  0.0000000E+00
-0.1090000E+00  0.0000000E+00
-0.1079000E+00  0.0000000E+00
-0.1068000E+00  0.0000000E+00
-0.1057000E+00  0.0000000E+00
-0.1046000E+00  0.0000000E+00
-0.1035000E+00  0.0000000E+00
-0.1024000E+00  0.0000000E+00
-0.1013000E+00  0.0000000E+00
-0.1002000E+00  0.0000000E+00
-0.9910000E-01  0.0000000E+00
-0.9800000E-01  0.0000000E+00
-0.9690000E-01  0.0000000E+00
-0.9580000E-01  0.0000000E+00
-0.9470000E-01  0.0000000E+00
-0.9360000E-01  0.0000000E+00
-0.9250000E-01  0.0000000E+00
-0.9140000E-01  0.0000000E+00
-0.9030000E-01  0.0000000E+00
-0.8920000E-01  0.0000000E+00
-0.8810000E-01  0.0000000E+00
-0.8700000E-01  0.0000000E+00
-0.8590000E-01  0.0000000E+00
-0.8480000E-01  0.0000000E+00
-0.8370000E-01  0.0000000E+00
-0.8260000E-01  0.0000000E+00
-0.8150000E-01  0.0000000E+00
-0.8040000E-01  0.0000000E+00
-0.7930000E-01  0.0000000E+00
-0.7820000E-01  0.0000000E+00
-0.7710000E-01  0.0000000E+00
-0.7600000E-01  0.0000000E+00
-0.7490000E-01  0.0000000E+00
-0.7380000E-01  0.0000000E+00
-0.7270000E-01  0.0000000E+00
-0.7160000E-01  0.0000000E+00
-0.7050000E-01  0.0000000E+00
-0.6940000E-01 -0.0000000E+00
-0.6830000E-01 -0.3148305E-37
-0.6720000E-01 -0.5588398E-37
-0.6610000E-01  0.0000000E+00
-0.6500000E-01  0.2522884E-36
-0.6390000E-01  0.5710664E-36
-0.6280000E-01  0.5027499E-36
-0.6170000E-01 -0.8422428E-36
-0.6060000E-01 -0.4025622E-35
-0.5950000E-01 -0.7273248E-35
-0.5840000E-01 -0.4298999E-35
-0.5730000E-01  0.1437173E-34
-0.5620000E-01  0.5088638E-34
-0.5510000E-01  0.7931605E-34
-0.5400000E-01  0.2997483E-34
-0.5290000E-01 -0.1824655E-33
-0.5180000E-01 -0.5443502E-33
-0.5070000E-01 -0.7605442E-33
-0.4960000E-01 -0.1730592E-33
-0.4850000E-01  0.1888779E-32
-0.4740000E-01  0.5063645E-32
-0.4630000E-01  0.6562564E-32
-0.4520000E-01  0.9314564E-33
-0.4410000E-01 -0.1659383E-31
-0.4300000E-01 -0.4181777E-31
-0.4190000E-01 -0.5201208E-31
-0.4080000E-01 -0.6565343E-32
-0.3970000E-01  0.1261571E-30
-0.3860000E-01  0.3104522E-30
-0.3750000E-01  0.3828373E-30
-0.3640000E-01  0.6732885E-31
-0.3530000E-01 -0.8376732E-30
-0.3420000E-01 -0.2085557E-29
-0.3310000E-01 -0.2622958E-29
-0.3200000E-01 -0.7207700E-30
-0.3090000E-01  0.4870124E-29
-0.2980000E-01  0.1271844E-28
-0.2870000E-01  0.1668648E-28
-0.2760000E-01  0.6727890E-29
-0.2650000E-01 -0.2467120E-28
-0.2540000E-01 -0.7049264E-28
-0.2430000E-01 -0.9821013E-28
-0.2320000E-01 -0.5353573E-28
-0.2210000E-01  0.1069556E-27
-0.2100000E-01  0.3548946E-27
-0.1990000E-01  0.5330975E-27
-0.1880000E-01  0.3684694E-27
-0.1770000E-01 -0.3771623E-27
-0.1660000E-01 -0.1618179E-26
-0.1550000E-01 -0.2662236E-26
-0.1440000E-01 -0.2230916E-26
-0.1330000E-01  0.9032565E-27
-0.1220000E-01  0.6637023E-26
-0.1110000E-01  0.1220275E-25
-0.1000000E-01  0.1203919E-25
-0.8900000E-02  0.2411630E-27
-0.7800000E-02 -0.2414484E-25
-0.6700000E-02 -0.5118049E-25
-0.5600000E-02 -0.5844066E-25
-0.4500000E-02 -0.1951274E-25
-0.3400000E-02  0.7557332E-25
-0.2300000E-02  0.1954567E-24
-0.1200000E-02  0.2566386E-24
-0.1000000E-03  0.1495653E-24
 0.1000000E-02 -0.1881271E-24
 0.2100000E-02 -0.6738718E-24
 0.3200000E-02 -0.1022341E-23
 0.4300000E-02 -0.8130280E-24
 0.5400000E-02  0.2669691E-24
 0.6500000E-02  0.2064299E-23
 0.7600000E-02  0.3693196E-23
 0.8700000E-02  0.3663681E-23
 0.9800000E-02  0.6194566E-24
 0.1090000E-01 -0.5436253E-23
 0.1200000E-01 -0.1205069E-22
 0.1310000E-01 -0.1436793E-22
 0.1420000E-01 -0.7156271E-23
 0.1530000E-01  0.1130327E-22
 0.1640000E-01  0.3517806E-22
 0.1750000E-01  0.4999769E-22
 0.1860000E-01  0.3755369E-22
 0.1970000E-01 -0.1270978E-22
 0.2080000E-01 -0.9003621E-22
 0.2190000E-01 -0.1553959E-21
 0.2300000E-01 -0.1512569E-21
 0.2410000E-01 -0.3216424E-22
 0.2520000E-01  0.1929115E-21
 0.2630000E-01  0.4304724E-21
 0.2740000E-01  0.5153072E-21
 0.2850000E-01  0.2847665E-21
 0.2960000E-01 -0.3007424E-21
 0.3070000E-01 -0.1050157E-20
 0.3180000E-01 -0.1533798E-20
 0.3290000E-01 -0.1242690E-20
 0.3400000E-01  0.9734687E-22
 0.3510000E-01  0.2188730E-20
 0.3620000E-01  0.4029149E-20
 0.3730000E-01  0.4197189E-20
 0.3840000E-01  0.1598313E-20
 0.3950000E-01 -0.3588383E-20
 0.4060000E-01 -0.9310140E-20
 0.4170000E-01 -0.1199794E-19
 0.4280000E-01 -0.8162525E-20
 0.4390000E-01  0.3194089E-20
 0.4500000E-01  0.1856359E-19
 0.4610000E-01  0.2989530E-19
 0.4720000E-01  0.2759961E-19
 0.4830000E-01  0.6135244E-20
 0.4940000E-01 -0.3025364E-19
 0.5050000E-01 -0.6541042E-19
 0.5160000E-01 -0.7595861E-19
 0.5270000E-01 -0.4304901E-19
 0.5380000E-01  0.3317523E-19
 0.5490000E-01  0.1246037E-18
 0.5600000E-01  0.1801394E-18
 0.5710000E-01  0.1478896E-18
 0.5820000E-01  0.8068058E-20
 0.5930000E-01 -0.1998153E-18
 0.6040000E-01 -0.3755716E-18
 0.6150000E-01 -0.3950735E-18
 0.6260000E-01 -0.1782744E-18
 0.6370000E-01  0.2413729E-18
 0.6480000E-01  0.6896387E-18
 0.6590000E-01  0.9014261E-18
 0.6700000E-01  0.6484840E-18
 0.6810000E-01 -0.1034809E-18
 0.6920000E-01 -0.1094950E-17
 0.7030000E-01 -0.1815466E-17
 0.7140000E-01 -0.1719113E-17
 0.7250000E-01 -0.5462973E-18
 0.7360000E-01  0.1406489E-17
 0.7470000E-01  0.3255571E-17
 0.7580000E-01  0.3847099E-17
 0.7690000E-01  0.2357536E-17
 0.7800000E-01 -0.1085539E-17
 0.7910000E-01 -0.5134069E-17
 0.8020000E-01 -0.7592360E-17
 0.8130000E-01 -0.6434525E-17
 0.8240000E-01 -0.1077434E-17
 0.8350000E-01  0.6770467E-17
 0.8460000E-01  0.1334093E-16
 0.8570000E-01  0.1434556E-16
 0.8680000E-01  0.7339794E-17
 0.8790000E-01 -0.6227141E-17
 0.8900000E-01 -0.2059845E-16
 0.9010000E-01 -0.2770466E-16
 0.9120000E-01 -0.2115166E-16
 0.9230000E-01 -0.4725640E-18
 0.9340000E-01  0.2677857E-16
 0.9450000E-01  0.4697951E-16
 0.9560000E-01  0.4651276E-16
 0.9670000E-01  0.1963093E-16
 0.9780000E-01 -0.2595000E-16
 0.9890000E-01 -0.6964369E-16
 0.1000000E+00 -0.8619239E-16
 0.1011000E+00 -0.5885407E-16
 0.1022000E+00  0.8678783E-17
 0.1033000E+00  0.8887504E-16
 0.1044000E+00  0.1397529E-15
 0.1055000E+00  0.1250671E-15
 0.1066000E+00  0.3651183E-16
 0.1077000E+00 -0.9433222E-16
 0.1088000E+00 -0.2038536E-15
 0.1099000E+00 -0.2246446E-15
 0.1110000E+00 -0.1230733E-15
 0.1121000E+00  0.7303916E-16
 0.1132000E+00  0.2750231E-15
 0.1143000E+00  0.3689548E-15
 0.1154000E+00  0.2745111E-15
 0.1165000E+00 -0.8860522E-18
 0.1176000E+00 -0.3447427E-15
 0.1187000E+00 -0.5778123E-15
 0.1198000E+00 -0.5396569E-15
 0.1209000E+00 -0.1841290E-15
 0.1220000E+00  0.3669956E-15
 0.1231000E+00  0.8523755E-15
 0.1242000E+00  0.9845208E-15
 0.1253000E+00  0.6040759E-15
 0.1264000E+00 -0.2021608E-15
 0.1275000E+00 -0.1093433E-14
 0.1286000E+00 -0.1605970E-14
 0.1297000E+00 -0.1379990E-14
 0.1308000E+00 -0.3776082E-15
 0.1319000E+00  0.1030389E-14
 0.1330000E+00  0.2183278E-14
 0.1341000E+00  0.2430287E-14
 0.1352000E+00  0.1482391E-14
 0.1363000E+00 -0.3670308E-15
 0.1374000E+00 -0.2298252E-14
 0.1385000E+00 -0.3318038E-14
 0.1396000E+00 -0.2768792E-14
 0.1407000E+00 -0.7408857E-15
 0.1418000E+00  0.1857664E-14
 0.1429000E+00  0.3674165E-14
 0.1440000E+00  0.3597823E-14
 0.1451000E+00  0.1431040E-14
 0.1462000E+00 -0.1836649E-14
 0.1473000E+00 -0.4383061E-14
 0.1484000E+00 -0.4457650E-14
 0.1495000E+00 -0.1431245E-14
 0.1506000E+00  0.3576221E-14
 0.1517000E+00  0.7935961E-14
 0.1528000E+00  0.8670956E-14
 0.1539000E+00  0.4088479E-14
 0.1550000E+00 -0.4917437E-14
 0.1561000E+00 -0.1468114E-13
 0.1572000E+00 -0.2004222E-13
 0.1583000E+00 -0.1671566E-13
 0.1594000E+00 -0.3737765E-14
 0.1605000E+00  0.1526131E-13
 0.1616000E+00  0.3282857E-13
 0.1627000E+00  0.4048439E-13
 0.1638000E+00  0.3250799E-13
 0.1649000E+00  0.9033770E-14
 0.1660000E+00 -0.2310741E-13
 0.1671000E+00 -0.5246459E-13
 0.1682000E+00 -0.6729456E-13
 0.1693000E+00 -0.6034829E-13
 0.1704000E+00 -0.3198798E-13
 0.1715000E+00  0.9802712E-14
 0.1726000E+00  0.5251376E-13
 0.1737000E+00  0.8381984E-13
 0.1748000E+00  0.9566049E-13
 0.1759000E+00  0.8586358E-13
 0.1770000E+00  0.5691830E-13
 0.1781000E+00  0.1319082E-13
 0.1792000E+00 -0.4116176E-13
 0.1803000E+00 -0.1017582E-12
 0.1814000E+00 -0.1609782E-12
 0.1825000E+00 -0.2044940E-12
 0.1836000E+00 -0.2107840E-12
 0.1847000E+00 -0.1564207E-12
 0.1858000E+00 -0.2720727E-13
 0.1869000E+00  0.1684987E-12
 0.1880000E+00  0.3908138E-12
 0.1891000E+00  0.5704122E-12
 0.1902000E+00  0.6250479E-12
 0.1913000E+00  0.4879451E-12
 0.1924000E+00  0.1392939E-12
 0.1935000E+00 -0.3714658E-12
 0.1946000E+00 -0.9236912E-12
 0.1957000E+00 -0.1348967E-11
 0.1968000E+00 -0.1476063E-11
 0.1979000E+00 -0.1185296E-11
 0.1990000E+00 -0.4558514E-12
 0.2001000E+00  0.6090197E-12
 0.2012000E+00  0.1787849E-11
 0.2023000E+00  0.2778319E-11
 0.2034000E+00  0.3259303E-11
 0.2045000E+00  0.2966375E-11
 0.2056000E+00  0.1768218E-11
 0.2067000E+00 -0.2689807E-12
 0.2078000E+00 -0.2843184E-11
 0.2089000E+00 -0.5420292E-11
 0.2100000E+00 -0.7296369E-11
 0.2111000E+00 -0.7728449E-11
 0.2122000E+00 -0.6127920E-11
 0.2133000E+00 -0.2285014E-11
 0.2144000E+00  0.3434850E-11
 0.2155000E+00  0.9999896E-11
 0.2166000E+00  0.1579756E-10
 0.2177000E+00  0.1893216E-10
 0.2188000E+00  0.1770666E-10
 0.2199000E+00  0.1118716E-10
 0.2210000E+00 -0.3092771E-12
 0.2221000E+00 -0.1497773E-10
 0.2232000E+00 -0.2967233E-10
 0.2243000E+00 -0.4047380E-10
 0.2254000E+00 -0.4359034E-10
 0.2265000E+00 -0.3638997E-10
 0.2276000E+00 -0.1829820E-10
 0.2287000E+00  0.8695886E-11
 0.2298000E+00  0.4009603E-10
 0.2309000E+00  0.6955309E-10
 0.2320000E+00  0.9000703E-10
 0.2331000E+00  0.9509436E-10
 0.2342000E+00  0.8054666E-10
 0.2353000E+00  0.4531980E-10
 0.2364000E+00 -0.7745660E-11
 0.2375000E+00 -0.7185218E-10
 0.2386000E+00 -0.1368053E-09
 0.2397000E+00 -0.1901908E-09
 0.2408000E+00 -0.2191005E-09
 0.2419000E+00 -0.2122737E-09
 0.2430000E+00 -0.1624303E-09
 0.2441000E+00 -0.6846732E-10
 0.2452000E+00  0.6290845E-10
 0.2463000E+00  0.2165725E-09
 0.2474000E+00  0.3697889E-09
 0.2485000E+00  0.4946220E-09
 0.2496000E+00  0.5618348E-09
 0.2507000E+00  0.5458055E-09
 0.2518000E+00  0.4296845E-09
 0.2529000E+00  0.2098578E-09
 0.2540000E+00 -0.1011785E-09
 0.2551000E+00 -0.4741706E-09
 0.2562000E+00 -0.8649258E-09
 0.2573000E+00 -0.1218391E-08
 0.2584000E+00 -0.1474429E-08
 0.2595000E+00 -0.1574561E-08
 0.2606000E+00 -0.1468982E-08
 0.2617000E+00 -0.1123380E-08
 0.2628000E+00 -0.5253589E-09
 0.2639000E+00  0.3095916E-09
 0.2650000E+00  0.1332704E-08
 0.2661000E+00  0.2457640E-08
 0.2672000E+00  0.3558415E-08
 0.2683000E+00  0.4471253E-08
 0.2694000E+00  0.5002443E-08
 0.2705000E+00  0.4944011E-08
 0.2716000E+00  0.4098025E-08
 0.2727000E+00  0.2308737E-08
 0.2738000E+00 -0.5003227E-09
 0.2749000E+00 -0.4289037E-08
 0.2760000E+00 -0.8869021E-08
 0.2771000E+00 -0.1388323E-07
 0.2782000E+00 -0.1880083E-07
 0.2793000E+00 -0.2292842E-07
 0.2804000E+00 -0.2543485E-07
 0.2815000E+00 -0.2538391E-07
 0.2826000E+00 -0.2176627E-07
 0.2837000E+00 -0.1352212E-07
 0.2848000E+00  0.4536568E-09
 0.2859000E+00  0.2132884E-07
 0.2870000E+00  0.5037665E-07
 0.2881000E+00  0.8904410E-07
 0.2892000E+00  0.1390452E-06
 0.2903000E+00  0.2024779E-06
 0.2914000E+00  0.2819662E-06
 0.2925000E+00  0.3808267E-06
 0.2936000E+00  0.5032634E-06
 0.2947000E+00  0.6545895E-06
 0.2958000E+00  0.8414769E-06
 0.2969000E+00  0.1072231E-05
 0.2980000E+00  0.1357090E-05
 0.2991000E+00  0.1708548E-05
 0.3002000E+00  0.2141712E-05
 0.3013000E+00  0.2674700E-05
 0.3024000E+00  0.3329107E-05
 0.3035000E+00  0.4130550E-05
 0.3046000E+00  0.5109322E-05
 0.3057000E+00  0.6301166E-05
 0.3068000E+00  0.7748178E-05
 0.3079000E+00  0.9499836E-05
 0.3090000E+00  0.1161414E-04
 0.3101000E+00  0.1415884E-04
 0.3112000E+00  0.1721282E-04
 0.3123000E+00  0.2086744E-04
 0.3134000E+00  0.2522812E-04
 0.3145000E+00  0.3041589E-04
 0.3156000E+00  0.3656913E-04
 0.3167000E+00  0.4384545E-04
 0.3178000E+00  0.5242358E-04
 0.3189000E+00  0.6250550E-04
 0.3200000E+00  0.7431848E-04
 0.3211000E+00  0.8811730E-04
 0.3222000E+00  0.1041863E-03
 0.3233000E+00  0.1228412E-03
 0.3244000E+00  0.1444312E-03
 0.3255000E+00  0.1693402E-03
 0.3266000E+00  0.1979880E-03
 0.3277000E+00  0.2308316E-03
 0.3288000E+00  0.2683649E-03
 0.3299000E+00  0.3111191E-03
 0.3310000E+00  0.3596612E-03
 0.3321000E+00  0.4145925E-03
 0.3332000E+00  0.4765459E-03
 0.3343000E+00  0.5461822E-03
 0.3354000E+00  0.6241851E-03
 0.3365000E+00  0.7112555E-03
 0.3376000E+00  0.8081041E-03
 0.3387000E+00  0.9154427E-03
 0.3398000E+00  0.1033974E-02
 0.3409000E+00  0.1164380E-02
 0.3420000E+00  0.1307309E-02
 0.3431000E+00  0.1463361E-02
 0.3442000E+00  0.1633071E-02
 0.3453000E+00  0.1816891E-02
 0.3464000E+00  0.2015172E-02
 0.3475000E+00  0.2228142E-02
 0.3486000E+00  0.2455888E-02
 0.3497000E+00  0.2698329E-02
 0.3508000E+00  0.2955200E-02
 0.3519000E+00  0.3226030E-02
 0.3530000E+00  0.3510117E-02
 0.3541000E+00  0.3806516E-02
 0.3552000E+00  0.4114015E-02
 0.3563000E+00  0.4431125E-02
 0.3574000E+00  0.4756062E-02
 0.3585000E+00  0.5086741E-02
 0.3596000E+00  0.5420771E-02
 0.3607000E+00  0.5755452E-02
 0.3618000E+00  0.6087778E-02
 0.3629000E+00  0.6414453E-02
 0.3640000E+00  0.6731899E-02
 0.3651000E+00  0.7036279E-02
 0.3662000E+00  0.7323531E-02
 0.3673000E+00  0.7589396E-02
 0.3684000E+00  0.7829458E-02
 0.3695000E+00  0.8039201E-02
 0.3706000E+00  0.8214053E-02
 0.3717000E+00  0.8349450E-02
 0.3728000E+00  0.8440902E-02
 0.3739000E+00  0.8484055E-02
 0.3750000E+00  0.8474769E-02
 0.3761000E+00  0.8409184E-02
 0.3772000E+00  0.8283799E-02
 0.3783000E+00  0.8095542E-02
 0.3794000E+00  0.7841846E-02
 0.3805000E+00  0.7520709E-02
 0.3816000E+00  0.7130763E-02
 0.3827000E+00  0.6671327E-02
 0.3838000E+00  0.6142455E-02
 0.3849000E+00  0.5544980E-02
 0.3860000E+00  0.4880540E-02
 0.3871000E+00  0.4151599E-02
 0.3882000E+00  0.3361454E-02
 0.3893000E+00  0.2514219E-02
 0.3904000E+00  0.1614816E-02
 0.3915000E+00  0.6689295E-03
 0.3926000E+00 -0.3170349E-03
 0.3937000E+00 -0.1336012E-02
 0.3948000E+00 -0.2380353E-02
 0.3959000E+00 -0.3441905E-02
 0.3970000E+00 -0.4512111E-02
 0.3981000E+00 -0.5582113E-02
 0.3992000E+00 -0.6642860E-02
 0.4003000E+00 -0.7685230E-02
 0.4014000E+00 -0.8700142E-02
 0.4025000E+00 -0.9678684E-02
 0.4036000E+00 -0.1061223E-01
 0.4047000E+00 -0.1149256E-01
 0.4058000E+00 -0.1231195E-01
 0.4069000E+00 -0.1306332E-01
 0.4080000E+00 -0.1374029E-01
 0.4091000E+00 -0.1433727E-01
 0.4102000E+00 -0.1484954E-01
 0.4113000E+00 -0.1527331E-01
 0.4124000E+00 -0.1560574E-01
 0.4135000E+00 -0.1584502E-01
 0.4146000E+00 -0.1599032E-01
 0.4157000E+00 -0.1604182E-01
 0.4168000E+00 -0.1600071E-01
 0.4179000E+00 -0.1586910E-01
 0.4190000E+00 -0.1565003E-01
 0.4201000E+00 -0.1534738E-01
 0.4212000E+00 -0.1496580E-01
 0.4223000E+00 -0.1451064E-01
 0.4234000E+00 -0.1398786E-01
 0.4245000E+00 -0.1340392E-01
 0.4256000E+00 -0.1276570E-01
 0.4267000E+00 -0.1208037E-01
 0.4278000E+00 -0.1135532E-01
 0.4289000E+00 -0.1059804E-01
 0.4300000E+00 -0.9816019E-02
 0.4311000E+00 -0.9016651E-02
 0.4322000E+00 -0.8207154E-02
 0.4333000E+00 -0.7394476E-02
 0.4344000E+00 -0.6585231E-02
 0.4355000E+00 -0.5785621E-02
 0.4366000E+00 -0.5001396E-02
 0.4377000E+00 -0.4237801E-02
 0.4388000E+00 -0.3499547E-02
 0.4399000E+00 -0.2790784E-02
 0.4410000E+00 -0.2115084E-02
 0.4421000E+00 -0.1475437E-02
 0.4432000E+00 -0.8742529E-03
 0.4443000E+00 -0.3133736E-03
 0.4454000E+00  0.2059043E-03
 0.4465000E+00  0.6828029E-03
 0.4476000E+00  0.1117032E-02
 0.4487000E+00  0.1508754E-02
 0.4498000E+00  0.1858547E-02
 0.4509000E+00  0.2167360E-02
 0.4520000E+00  0.2436470E-02
 0.4531000E+00  0.2667435E-02
 0.4542000E+00  0.2862046E-02
 0.4553000E+00  0.3022283E-02
 0.4564000E+00  0.3150271E-02
 0.4575000E+00  0.3248244E-02
 0.4586000E+00  0.3318506E-02
 0.4597000E+00  0.3363397E-02
 0.4608000E+00  0.3385260E-02
 0.4619000E+00  0.3386411E-02
 0.4630000E+00  0.3369116E-02
 0.4641000E+00  0.3335562E-02
 0.4652000E+00  0.3287848E-02
 0.4663000E+00  0.3227966E-02
 0.4674000E+00  0.3157794E-02
 0.4685000E+00  0.3079083E-02
 0.4696000E+00  0.2993453E-02
 0.4707000E+00  0.2902390E-02
 0.4718000E+00  0.2807245E-02
 0.4729000E+00  0.2709234E-02
 0.4740000E+00  0.2609445E-02
 0.4751000E+00  0.2508841E-02
 0.4762000E+00  0.2408266E-02
 0.4773000E+00  0.2308452E-02
 0.4784000E+00  0.2210024E-02
 0.4795000E+00  0.2113514E-02
 0.4806000E+00  0.2019362E-02
 0.4817000E+00  0.1927925E-02
 0.4828000E+00  0.1839489E-02
 0.4839000E+00  0.1754267E-02
 0.4850000E+00  0.1672417E-02
 0.4861000E+00  0.1594040E-02
 0.4872000E+00  0.1519193E-02
 0.4883000E+00  0.1447895E-02
 0.4894000E+00  0.1380129E-02
 0.4905000E+00  0.1315849E-02
 0.4916000E+00  0.1254986E-02
 0.4927000E+00  0.1197447E-02
 0.4938000E+00  0.1143120E-02
 0.4949000E+00  0.1091885E-02
 0.4960000E+00  0.1043611E-02
 0.4971000E+00  0.9981596E-03
 0.4982000E+00  0.9553919E-03
 0.4993000E+00  0.9151641E-03
 0.5004000E+00  0.8773312E-03
 0.5015000E+00  0.8417487E-03
 0.5026000E+00  0.8082753E-03
 0.5037000E+00  0.7767756E-03
 0.5048000E+00  0.7471211E-03
 0.5059000E+00  0.7191896E-03
 0.5070000E+00  0.6928652E-03
 0.5081000E+00  0.6680362E-03
 0.5092000E+00  0.6445958E-03
 0.5103000E+00  0.6224428E-03
 0.5114000E+00  0.6014835E-03
 0.5125000E+00  0.5816322E-03
 0.5136000E+00  0.5628114E-03
 0.5147000E+00  0.5449500E-03
 0.5158000E+00  0.5279813E-03
 0.5169000E+00  0.5118416E-03
 0.5180000E+00  0.4964691E-03
 0.5191000E+00  0.4818045E-03
 0.5202000E+00  0.4677917E-03
 0.5213000E+00  0.4543785E-03
 0.5224000E+00  0.4415165E-03
 0.5235000E+00  0.4291607E-03
 0.5246000E+00  0.4172690E-03
 0.5257000E+00  0.4058013E-03
 0.5268000E+00  0.3947200E-03
 0.5279000E+00  0.3839898E-03
 0.5290000E+00  0.3735785E-03
 0.5301000E+00  0.3634572E-03
 0.5312000E+00  0.3536008E-03
 0.5323000E+00  0.3439879E-03
 0.5334000E+00  0.3346011E-03
 0.5345000E+00  0.3254276E-03
 0.5356000E+00  0.3164585E-03
 0.5367000E+00  0.3076894E-03
 0.5378000E+00  0.2991192E-03
 0.5389000E+00  0.2907500E-03
 0.5400000E+00  0.2825861E-03
 0.5411000E+00  0.2746337E-03
 0.5422000E+00  0.2669010E-03
 0.5433000E+00  0.2593970E-03
 0.5444000E+00  0.2521322E-03
 0.5455000E+00  0.2451167E-03
 0.5466000E+00  0.2383594E-03
 0.5477000E+00  0.2318667E-03
 0.5488000E+00  0.2256414E-03
 0.5499000E+00  0.2196823E-03
 0.5510000E+00  0.2139842E-03
 0.5521000E+00  0.2085378E-03
 0.5532000E+00  0.2033298E-03
 0.5543000E+00  0.1983414E-03
 0.5554000E+00  0.1935480E-03
 0.5565000E+00  0.1889173E-03
 0.5576000E+00  0.1844085E-03
 0.5587000E+00  0.1799725E-03
 0.5598000E+00  0.1755519E-03
 0.5609000E+00  0.1710818E-03
 0.5620000E+00  0.1664901E-03
 0.5631000E+00  0.1616972E-03
 0.5642000E+00  0.1566154E-03
 0.5653000E+00  0.1511473E-03
 0.5664000E+00  0.1451851E-03
 0.5675000E+00  0.1386096E-03
 0.5686000E+00  0.1312902E-03
 0.5697000E+00  0.1230842E-03
 0.5708000E+00  0.1138359E-03
 0.5719000E+00  0.1033761E-03
 0.5730000E+00  0.9152011E-04
 0.5741000E+00  0.7806635E-04
 0.5752000E+00  0.6279575E-04
 0.5763000E+00  0.4547132E-04
 0.5774000E+00  0.2583863E-04
 0.5785000E+00  0.3626375E-05
 0.5796000E+00 -0.2145305E-04
 0.5807000E+00 -0.4970328E-04
 0.5818000E+00 -0.8144372E-04
 0.5829000E+00 -0.1170091E-03
 0.5840000E+00 -0.1567481E-03
 0.5851000E+00 -0.2010214E-03
 0.5862000E+00 -0.2501982E-03
 0.5873000E+00 -0.3046514E-03
 0.5884000E+00 -0.3647524E-03
 0.5895000E+00 -0.4308642E-03
 0.5906000E+00 -0.5033345E-03
 0.5917000E+00 -0.5824875E-03
 0.5928000E+00 -0.6686154E-03
 0.5939000E+00 -0.7619692E-03
 0.5950000E+00 -0.8627482E-03
 0.5961000E+00 -0.9710896E-03
 0.5972000E+00 -0.1087056E-02
 0.5983000E+00 -0.1210625E-02
 0.5994000E+00 -0.1341673E-02
 0.6005000E+00 -0.1479967E-02
 0.6016000E+00 -0.1625151E-02
 0.6027000E+00 -0.1776732E-02
 0.6038000E+00 -0.1934071E-02
 0.6049000E+00 -0.2096370E-02
 0.6060000E+00 -0.2262662E-02
 0.6071000E+00 -0.2431799E-02
 0.6082000E+00 -0.2602442E-02
 0.6093000E+00 -0.2773054E-02
 0.6104000E+00 -0.2941896E-02
 0.6115000E+00 -0.3107022E-02
 0.6126000E+00 -0.3266274E-02
 0.6137000E+00 -0.3417292E-02
 0.6148000E+00 -0.3557502E-02
 0.6159000E+00 -0.3684129E-02
 0.6170000E+00 -0.3794198E-02
 0.6181000E+00 -0.3884539E-02
 0.6192000E+00 -0.3951801E-02
 0.6203000E+00 -0.3992467E-02
 0.6214000E+00 -0.4002864E-02
 0.6225000E+00 -0.3979184E-02
 0.6236000E+00 -0.3917500E-02
 0.6247000E+00 -0.3813781E-02
 0.6258000E+00 -0.3663918E-02
 0.6269000E+00 -0.3463738E-02
 0.6280000E+00 -0.3209033E-02
 0.6291000E+00 -0.2895585E-02
 0.6302000E+00 -0.2519191E-02
 0.6313000E+00 -0.2075695E-02
 0.6324000E+00 -0.1561014E-02
 0.6335000E+00 -0.9711715E-03
 0.6346000E+00 -0.3023265E-03
 0.6357000E+00  0.4491882E-03
 0.6368000E+00  0.1286828E-02
 0.6379000E+00  0.2213794E-02
 0.6390000E+00  0.3232986E-02
 0.6401000E+00  0.4346948E-02
 0.6412000E+00  0.5557815E-02
 0.6423000E+00  0.6867250E-02
 0.6434000E+00  0.8276379E-02
 0.6445000E+00  0.9785713E-02
 0.6456000E+00  0.1139508E-01
 0.6467000E+00  0.1310353E-01
 0.6478000E+00  0.1490924E-01
 0.6489000E+00  0.1680945E-01
 0.6500000E+00  0.1880035E-01
 0.6511000E+00  0.2087696E-01
 0.6522000E+00  0.2303310E-01
 0.6533000E+00  0.2526125E-01
 0.6544000E+00  0.2755249E-01
 0.6555000E+00  0.2989643E-01
 0.6566000E+00  0.3228116E-01
 0.6577000E+00  0.3469317E-01
 0.6588000E+00  0.3711742E-01
 0.6599000E+00  0.3953722E-01
 0.6610000E+00  0.4193440E-01
 0.6621000E+00  0.4428926E-01
 0.6632000E+00  0.4658069E-01
 0.6643000E+00  0.4878635E-01
 0.6654000E+00  0.5088275E-01
 0.6665000E+00  0.5284550E-01
 0.6676000E+00  0.5464955E-01
 0.6687000E+00  0.5626943E-01
 0.6698000E+00  0.5767956E-01
 0.6709000E+00  0.5885457E-01
 0.6720000E+00  0.5976968E-01
 0.6731000E+00  0.6040103E-01
 0.6742000E+00  0.6072610E-01
 0.6753000E+00  0.6072408E-01
 0.6764000E+00  0.6037629E-01
 0.6775000E+00  0.5966653E-01
 0.6786000E+00  0.5858148E-01
 0.6797000E+00  0.5711104E-01
 0.6808000E+00  0.5524862E-01
 0.6819000E+00  0.5299143E-01
 0.6830000E+00  0.5034072E-01
 0.6841000E+00  0.4730193E-01
 0.6852000E+00  0.4388482E-01
 0.6863000E+00  0.4010349E-01
 0.6874000E+00  0.3597640E-01
 0.6885000E+00  0.3152627E-01
 0.6896000E+00  0.2677991E-01
 0.6907000E+00  0.2176801E-01
 0.6918000E+00  0.1652486E-01
 0.6929000E+00  0.1108794E-01
 0.6940000E+00  0.5497579E-02
 0.6951000E+00 -0.2035922E-03
 0.6962000E+00 -0.5971095E-02
 0.6973000E+00 -0.1175917E-01
 0.6984000E+00 -0.1752135E-01
 0.6995000E+00 -0.2321102E-01
 0.7006000E+00 -0.2878207E-01
 0.7017000E+00 -0.3418945E-01
 0.7028000E+00 -0.3938976E-01
 0.7039000E+00 -0.4434179E-01
 0.7050000E+00 -0.4900706E-01
 0.7061000E+00 -0.5335027E-01
 0.7072000E+00 -0.5733975E-01
 0.7083000E+00 -0.6094778E-01
 0.7094000E+00 -0.6415093E-01
 0.7105000E+00 -0.6693028E-01
 0.7116000E+00 -0.6927160E-01
 0.7127000E+00 -0.7116542E-01
 0.7138000E+00 -0.7260703E-01
 0.7149000E+00 -0.7359648E-01
 0.7160000E+00 -0.7413840E-01
 0.7171000E+00 -0.7424185E-01
 0.7182000E+00 -0.7392008E-01
 0.7193000E+00 -0.7319015E-01
 0.7204000E+00 -0.7207269E-01
 0.7215000E+00 -0.7059146E-01
 0.7226000E+00 -0.6877293E-01
 0.7237000E+00 -0.6664588E-01
 0.7248000E+00 -0.6424090E-01
 0.7259000E+00 -0.6158995E-01
 0.7270000E+00 -0.5872590E-01
 0.7281000E+00 -0.5568210E-01
 0.7292000E+00 -0.5249186E-01
 0.7303000E+00 -0.4918814E-01
 0.7314000E+00 -0.4580310E-01
 0.7325000E+00 -0.4236782E-01
 0.7336000E+00 -0.3891190E-01
 0.7347000E+00 -0.3546326E-01
 0.7358000E+00 -0.3204784E-01
 0.7369000E+00 -0.2868946E-01
 0.7380000E+00 -0.2540962E-01
 0.7391000E+00 -0.2222745E-01
 0.7402000E+00 -0.1915960E-01
 0.7413000E+00 -0.1622028E-01
 0.7424000E+00 -0.1342120E-01
 0.7435000E+00 -0.1077169E-01
 0.7446000E+00 -0.8278712E-02
 0.7457000E+00 -0.5946998E-02
 0.7468000E+00 -0.3779177E-02
 0.7479000E+00 -0.1775924E-02
 0.7490000E+00  0.6386724E-04
 0.7501000E+00  0.1742904E-02
 0.7512000E+00  0.3265309E-02
 0.7523000E+00  0.4636432E-02
 0.7534000E+00  0.5862658E-02
 0.7545000E+00  0.6951226E-02
 0.7556000E+00  0.7910036E-02
 0.7567000E+00  0.8747474E-02
 0.7578000E+00  0.9472230E-02
 0.7589000E+00  0.1009314E-01
 0.7600000E+00  0.1061903E-01
 0.7611000E+00  0.1105860E-01
 0.7622000E+00  0.1142028E-01
 0.7633000E+00  0.1171216E-01
 0.7644000E+00  0.1194190E-01
 0.7655000E+00  0.1211662E-01
 0.7666000E+00  0.1224287E-01
 0.7677000E+00  0.1232656E-01
 0.7688000E+00  0.1237295E-01
 0.7699000E+00  0.1238662E-01
 0.7710000E+00  0.1237151E-01
 0.7721000E+00  0.1233086E-01
 0.7732000E+00  0.1226729E-01
 0.7743000E+00  0.1218280E-01
 0.7754000E+00  0.1207885E-01
 0.7765000E+00  0.1195634E-01
 0.7776000E+00  0.1181572E-01
 0.7787000E+00  0.1165701E-01
 0.7798000E+00  0.1147990E-01
 0.7809000E+00  0.1128382E-01
 0.7820000E+00  0.1106797E-01
 0.7831000E+00  0.1083142E-01
 0.7842000E+00  0.1057317E-01
 0.7853000E+00  0.1029222E-01
 0.7864000E+00  0.9987640E-02
 0.7875000E+00  0.9658600E-02
 0.7886000E+00  0.9304462E-02
 0.7897000E+00  0.8924812E-02
 0.7908000E+00  0.8519504E-02
 0.7919000E+00  0.8088700E-02
 0.7930000E+00  0.7632891E-02
 0.7941000E+00  0.7152926E-02
 0.7952000E+00  0.6650015E-02
 0.7963000E+00  0.6125737E-02
 0.7974000E+00  0.5582032E-02
 0.7985000E+00  0.5021188E-02
 0.7996000E+00  0.4445821E-02
 0.8007000E+00  0.3858848E-02
 0.8018000E+00  0.3263454E-02
 0.8029000E+00  0.2663054E-02
 0.8040000E+00  0.2061245E-02
 0.8051000E+00  0.1461759E-02
 0.8062000E+00  0.8684069E-03
 0.8073000E+00  0.2850280E-03
 0.8084000E+00 -0.2845607E-03
 0.8095000E+00 -0.8366177E-03
 0.8106000E+00 -0.1367529E-02
 0.8117000E+00 -0.1873859E-02
 0.8128000E+00 -0.2352402E-02
 0.8139000E+00 -0.2800222E-02
 0.8150000E+00 -0.3214697E-02
 0.8161000E+00 -0.3593545E-02
 0.8172000E+00 -0.3934851E-02
 0.8183000E+00 -0.4237087E-02
 0.8194000E+00 -0.4499124E-02
 0.8205000E+00 -0.4720243E-02
 0.8216000E+00 -0.4900140E-02
 0.8227000E+00 -0.5038914E-02
 0.8238000E+00 -0.5137062E-02
 0.8249000E+00 -0.5195454E-02
 0.8260000E+00 -0.5215315E-02
 0.8271000E+00 -0.5198194E-02
 0.8282000E+00 -0.5145937E-02
 0.8293000E+00 -0.5060654E-02
 0.8304000E+00 -0.4944679E-02
 0.8315000E+00 -0.4800534E-02
 0.8326000E+00 -0.4630888E-02
 0.8337000E+00 -0.4438519E-02
 0.8348000E+00 -0.4226274E-02
 0.8359000E+00 -0.3997031E-02
 0.8370000E+00 -0.3753660E-02
 0.8381000E+00 -0.3498990E-02
 0.8392000E+00 -0.3235774E-02
 0.8403000E+00 -0.2966661E-02
 0.8414000E+00 -0.2694172E-02
 0.8425000E+00 -0.2420678E-02
 0.8436000E+00 -0.2148386E-02
 0.8447000E+00 -0.1879325E-02
 0.8458000E+00 -0.1615330E-02
 0.8469000E+00 -0.1358038E-02
 0.8480000E+00 -0.1108878E-02
 0.8491000E+00 -0.8690759E-03
 0.8502000E+00 -0.6396600E-03
 0.8513000E+00 -0.4214658E-03
 0.8524000E+00 -0.2151466E-03
 0.8535000E+00 -0.2118231E-04
 0.8546000E+00  0.1601119E-03
 0.8557000E+00  0.3285744E-03
 0.8568000E+00  0.4841836E-03
 0.8579000E+00  0.6270418E-03
 0.8590000E+00  0.7573582E-03
 0.8601000E+00  0.8754316E-03
 0.8612000E+00  0.9816355E-03
 0.8623000E+00  0.1076405E-02
 0.8634000E+00  0.1160227E-02
 0.8645000E+00  0.1233626E-02
 0.8656000E+00  0.1297159E-02
 0.8667000E+00  0.1351403E-02
 0.8678000E+00  0.1396945E-02
 0.8689000E+00  0.1434373E-02
 0.8700000E+00  0.1464265E-02
 0.8711000E+00  0.1487192E-02
 0.8722000E+00  0.1503706E-02
 0.8733000E+00  0.1514344E-02
 0.8744000E+00  0.1519628E-02
 0.8755000E+00  0.1520065E-02
 0.8766000E+00  0.1516148E-02
 0.8777000E+00  0.1508350E-02
 0.8788000E+00  0.1497127E-02
 0.8799000E+00  0.1482911E-02
 0.8810000E+00  0.1466114E-02
 0.8821000E+00  0.1447130E-02
 0.8832000E+00  0.1426344E-02
 0.8843000E+00  0.1404129E-02
 0.8854000E+00  0.1380856E-02
 0.8865000E+00  0.1356882E-02
 0.8876000E+00  0.1332557E-02
 0.8887000E+00  0.1308213E-02
 0.8898000E+00  0.1284169E-02
 0.8909000E+00  0.1260728E-02
 0.8920000E+00  0.1238186E-02
 0.8931000E+00  0.1216835E-02
 0.8942000E+00  0.1196955E-02
 0.8953000E+00  0.1178816E-02
 0.8964000E+00  0.1162672E-02
 0.8975000E+00  0.1148752E-02
 0.8986000E+00  0.1137265E-02
 0.8997000E+00  0.1128398E-02
 0.9008000E+00  0.1122321E-02
 0.9019000E+00  0.1119189E-02
 0.9030000E+00  0.1119139E-02
 0.9041000E+00  0.1122286E-02
 0.9052000E+00  0.1128717E-02
 0.9063000E+00  0.1138483E-02
 0.9074000E+00  0.1151601E-02
 0.9085000E+00  0.1168054E-02
 0.9096000E+00  0.1187793E-02
 0.9107000E+00  0.1210740E-02
 0.9118000E+00  0.1236785E-02
 0.9129000E+00  0.1265783E-02
 0.9140000E+00  0.1297551E-02
 0.9151000E+00  0.1331856E-02
 0.9162000E+00  0.1368422E-02
 0.9173000E+00  0.1406926E-02
 0.9184000E+00  0.1447004E-02
 0.9195000E+00  0.1488258E-02
 0.9206000E+00  0.1530255E-02
 0.9217000E+00  0.1572527E-02
 0.9228000E+00  0.1614571E-02
 0.9239000E+00  0.1655845E-02
 0.9250000E+00  0.1695776E-02
 0.9261000E+00  0.1733761E-02
 0.9272000E+00  0.1769184E-02
 0.9283000E+00  0.1801427E-02
 0.9294000E+00  0.1829879E-02
 0.9305000E+00  0.1853941E-02
 0.9316000E+00  0.1873035E-02
 0.9327000E+00  0.1886601E-02
 0.9338000E+00  0.1894112E-02
 0.9349000E+00  0.1895083E-02
 0.9360000E+00  0.1889084E-02
 0.9371000E+00  0.1875755E-02
 0.9382000E+00  0.1854818E-02
 0.9393000E+00  0.1826077E-02
 0.9404000E+00  0.1789424E-02
 0.9415000E+00  0.1744838E-02
 0.9426000E+00  0.1692388E-02
 0.9437000E+00  0.1632234E-02
 0.9448000E+00  0.1564640E-02
 0.9459000E+00  0.1489965E-02
 0.9470000E+00  0.1408667E-02
 0.9481000E+00  0.1321291E-02
 0.9492000E+00  0.1228458E-02
 0.9503000E+00  0.1130857E-02
 0.9514000E+00  0.1029235E-02
 0.9525000E+00  0.9243910E-03
 0.9536000E+00  0.8171661E-03
 0.9547000E+00  0.7084357E-03
 0.9558000E+00  0.5990960E-03
 0.9569000E+00  0.4900483E-03
 0.9580000E+00  0.3821846E-03
 0.9591000E+00  0.2763748E-03
 0.9602000E+00  0.1734568E-03
 0.9613000E+00  0.7422757E-04
 0.9624000E+00 -0.2056510E-04
 0.9635000E+00 -0.1102312E-03
 0.9646000E+00 -0.1941473E-03
 0.9657000E+00 -0.2717627E-03
 0.9668000E+00 -0.3426032E-03
 0.9679000E+00 -0.4062713E-03
 0.9690000E+00 -0.4624453E-03
 0.9701000E+00 -0.5108783E-03
 0.9712000E+00 -0.5513988E-03
 0.9723000E+00 -0.5839125E-03
 0.9734000E+00 -0.6084018E-03
 0.9745000E+00 -0.6249246E-03
 0.9756000E+00 -0.6336083E-03
 0.9767000E+00 -0.6346437E-03
 0.9778000E+00 -0.6282775E-03
 0.9789000E+00 -0.6148086E-03