-0.1200000E+00  0.0000000E+00
-0.1189000E+00  0.0000000E+00
-0.1178000E+00  0.0000000E+00
-0.1167000E+00  0.0000000E+00
-0.1156000E+00  0.0000000E+00
-0.1145000E+00  0.0000000E+00
-0.1134000E+00  0.0000000E+00
-0.1123000E+00  0.0000000E+00
-0.1112000E+00  0.0000000E+00
-0.1101000E+00  0.0000000E+00
-0.1090000E+00  0.0000000E+00
-0.1079000E+00  0.0000000E+00
-0.1068000E+00  0.0000000E+00
-0.1057000E+00  0.0000000E+00
-0.1046000E+00 -0.0000000E+00
-0.1035000E+00 -0.0000000E+00
-0.1024000E+00  0.0000000E+00
-0.1013000E+00  0.1311508E-36
-0.1002000E+00  0.9222117E-36
-0.9910000E-01  0.2355738E-35
-0.9800000E-01 -0.1916359E-35
-0.9690000E-01 -0.2939636E-34
-0.9580000E-01 -0.6022760E-34
-0.9470000E-01  0.1620259E-33
-0.9360000E-01  0.1335018E-32
-0.9250000E-01  0.3675823E-32
-0.9140000E-01  0.2673918E-32
-0.9030000E-01 -0.1745186E-31
-0.8920000E-01 -0.7668324E-31
-0.8810000E-01 -0.1405018E-30
-0.8700000E-01  0.1010565E-31
-0.8590000E-01  0.8424555E-30
-0.8480000E-01  0.2607066E-29
-0.8370000E-01  0.3740402E-29
-0.8260000E-01 -0.1431851E-29
-0.8150000E-01 -0.2202430E-28
-0.8040000E-01 -0.5918764E-28
-0.7930000E-01 -0.7828049E-28
-0.7820000E-01  0.2063047E-28
-0.7710000E-01  0.3757539E-27
-0.7600000E-01  0.9858104E-27
-0.7490000E-01  0.1346111E-26
-0.7380000E-01  0.1256783E-27
-0.7270000E-01 -0.4439415E-26
-0.7160000E-01 -0.1250461E-25
-0.7050000E-01 -0.1875133E-25
-0.6940000E-01 -0.9090400E-26
-0.6830000E-01  0.3579897E-25
-0.6720000E-01  0.1220575E-24
-0.6610000E-01  0.2080444E-24
-0.6500000E-01  0.1727556E-24
-0.6390000E-01 -0.1640879E-24
-0.6280000E-01 -0.9080846E-24
-0.6170000E-01 -0.1825679E-23
-0.6060000E-01 -0.2071124E-23
-0.5950000E-01 -0.2272936E-24
-0.5840000E-01  0.4906819E-23
-0.5730000E-01  0.1258884E-22
-0.5620000E-01  0.1807531E-22
-0.5510000E-01  0.1206678E-22
-0.5400000E-01 -0.1566056E-22
-0.5290000E-01 -0.6668516E-22
-0.5180000E-01 -0.1206620E-21
-0.5070000E-01 -0.1272233E-21
-0.4960000E-01 -0.1770574E-22
-0.4850000E-01  0.2506195E-21
-0.4740000E-01  0.6218377E-21
-0.4630000E-01  0.8761400E-21
-0.4520000E-01  0.6415778E-21
-0.4410000E-01 -0.4418852E-21
-0.4300000E-01 -0.2387627E-20
-0.4190000E-01 -0.4471553E-20
-0.4080000E-01 -0.5067983E-20
-0.3970000E-01 -0.2085977E-20
-0.3860000E-01  0.5759858E-20
-0.3750000E-01  0.1708187E-19
-0.3640000E-01  0.2631289E-19
-0.3530000E-01  0.2412076E-19
-0.3420000E-01  0.1192866E-20
-0.3310000E-01 -0.4452233E-19
-0.3200000E-01 -0.9965005E-19
-0.3090000E-01 -0.1317333E-18
-0.2980000E-01 -0.9670464E-19
-0.2870000E-01  0.3872386E-19
-0.2760000E-01  0.2638943E-18
-0.2650000E-01  0.4955785E-18
-0.2540000E-01  0.5779753E-18
-0.2430000E-01  0.3336159E-18
-0.2320000E-01 -0.3314396E-18
-0.2210000E-01 -0.1299886E-17
-0.2100000E-01 -0.2163304E-17
-0.1990000E-01 -0.2278425E-17
-0.1880000E-01 -0.1018691E-17
-0.1770000E-01  0.1808185E-17
-0.1660000E-01  0.5534282E-17
-0.1550000E-01  0.8464976E-17
-0.1440000E-01  0.8248449E-17
-0.1330000E-01  0.2896036E-17
-0.1220000E-01 -0.7766421E-17
-0.1110000E-01 -0.2083816E-16
-0.1000000E-01 -0.3015594E-16
-0.8900000E-02 -0.2793680E-16
-0.7800000E-02 -0.8355252E-17
-0.6700000E-02  0.2792639E-16
-0.5600000E-02  0.7036620E-16
-0.4500000E-02  0.9887621E-16
-0.3400000E-02  0.8973260E-16
-0.2300000E-02  0.2673355E-16
-0.1200000E-02 -0.8584427E-16
-0.1000000E-03 -0.2147061E-15
 0.1000000E-02 -0.3003243E-15
 0.2100000E-02 -0.2751957E-15
 0.3200000E-02 -0.9538012E-16
 0.4300000E-02  0.2249937E-15
 0.5400000E-02  0.5929407E-15
 0.6500000E-02  0.8466730E-15
 0.7600000E-02  0.8053194E-15
 0.8700000E-02  0.3506768E-15
 0.9800000E-02 -0.4861689E-15
 0.1090000E-01 -0.1474415E-14
 0.1200000E-01 -0.2209335E-14
 0.1310000E-01 -0.2233018E-14
 0.1420000E-01 -0.1229943E-14
 0.1530000E-01  0.7666294E-15
 0.1640000E-01  0.3250951E-14
 0.1750000E-01  0.5293036E-14
 0.1860000E-01  0.5800207E-14
 0.1970000E-01  0.3949266E-14
 0.2080000E-01 -0.3464361E-15
 0.2190000E-01 -0.6132907E-14
 0.2300000E-01 -0.1146508E-13
 0.2410000E-01 -0.1390582E-13
 0.2520000E-01 -0.1140309E-13
 0.2630000E-01 -0.3287417E-14
 0.2740000E-01  0.8998159E-14
 0.2850000E-01  0.2182474E-13
 0.2960000E-01  0.3018566E-13
 0.3070000E-01  0.2930769E-13
 0.3180000E-01  0.1663467E-13
 0.3290000E-01 -0.6513286E-14
 0.3400000E-01 -0.3435309E-13
 0.3510000E-01 -0.5763546E-13
 0.3620000E-01 -0.6624044E-13
 0.3730000E-01 -0.5277109E-13
 0.3840000E-01 -0.1602364E-13
 0.3950000E-01  0.3699295E-13
 0.4060000E-01  0.9156373E-13
 0.4170000E-01  0.1286762E-12
 0.4280000E-01  0.1307329E-12
 0.4390000E-01  0.8803075E-13
 0.4500000E-01  0.3911815E-14
 0.4610000E-01 -0.1034436E-12
 0.4720000E-01 -0.2038296E-12
 0.4830000E-01 -0.2623681E-12
 0.4940000E-01 -0.2498487E-12
 0.5050000E-01 -0.1532922E-12
 0.5160000E-01  0.1652696E-13
 0.5270000E-01  0.2234446E-12
 0.5380000E-01  0.4116761E-12
 0.5490000E-01  0.5185863E-12
 0.5600000E-01  0.4919939E-12
 0.5710000E-01  0.3078928E-12
 0.5820000E-01 -0.1631734E-13
 0.5930000E-01 -0.4176415E-12
 0.6040000E-01 -0.7953266E-12
 0.6150000E-01 -0.1031132E-11
 0.6260000E-01 -0.1019252E-11
 0.6370000E-01 -0.6999079E-12
 0.6480000E-01 -0.8821285E-13
 0.6590000E-01  0.7110113E-12
 0.6700000E-01  0.1510369E-11
 0.6810000E-01  0.2072923E-11
 0.6920000E-01  0.2168714E-11
 0.7030000E-01  0.1644749E-11
 0.7140000E-01  0.4914274E-12
 0.7250000E-01 -0.1115605E-11
 0.7360000E-01 -0.2817895E-11
 0.7470000E-01 -0.4132696E-11
 0.7580000E-01 -0.4565295E-11
 0.7690000E-01 -0.3755401E-11
 0.7800000E-01 -0.1621601E-11
 0.7910000E-01  0.1541354E-11
 0.8020000E-01  0.5054970E-11
 0.8130000E-01  0.7964642E-11
 0.8240000E-01  0.9258426E-11
 0.8350000E-01  0.8157129E-11
 0.8460000E-01  0.4403993E-11
 0.8570000E-01 -0.1534585E-11
 0.8680000E-01 -0.8439013E-11
 0.8790000E-01 -0.1452488E-10
 0.8900000E-01 -0.1784151E-10
 0.9010000E-01 -0.1680697E-10
 0.9120000E-01 -0.1074949E-10
 0.9230000E-01 -0.2965747E-12
 0.9340000E-01  0.1253322E-10
 0.9450000E-01  0.2462177E-10
 0.9560000E-01  0.3241640E-10
 0.9670000E-01  0.3284881E-10
 0.9780000E-01  0.2429331E-10
 0.9890000E-01  0.7300322E-11
 0.1000000E+00 -0.1514164E-10
 0.1011000E+00 -0.3797263E-10
 0.1022000E+00 -0.5506499E-10
 0.1033000E+00 -0.6069828E-10
 0.1044000E+00 -0.5118272E-10
 0.1055000E+00 -0.2621602E-10
 0.1066000E+00  0.1043655E-10
 0.1077000E+00  0.5123254E-10
 0.1088000E+00  0.8619441E-10
 0.1099000E+00  0.1051190E-09
 0.1110000E+00  0.1002126E-09
 0.1121000E+00  0.6853047E-10
 0.1132000E+00  0.1355306E-10
 0.1143000E+00 -0.5464492E-10
 0.1154000E+00 -0.1208994E-09
 0.1165000E+00 -0.1680102E-09
 0.1176000E+00 -0.1808009E-09
 0.1187000E+00 -0.1503039E-09
 0.1198000E+00 -0.7702353E-10
 0.1209000E+00  0.2769481E-10
 0.1220000E+00  0.1428230E-09
 0.1231000E+00  0.2414248E-09
 0.1242000E+00  0.2964852E-09
 0.1253000E+00  0.2876285E-09
 0.1264000E+00  0.2071691E-09
 0.1275000E+00  0.6388203E-10
 0.1286000E+00 -0.1167731E-09
 0.1297000E+00 -0.2965251E-09
 0.1308000E+00 -0.4318605E-09
 0.1319000E+00 -0.4839102E-09
 0.1330000E+00 -0.4285162E-09
 0.1341000E+00 -0.2640246E-09
 0.1352000E+00 -0.1460697E-10
 0.1363000E+00  0.2722505E-09
 0.1374000E+00  0.5341740E-09
 0.1385000E+00  0.7068954E-09
 0.1396000E+00  0.7391940E-09
 0.1407000E+00  0.6064240E-09
 0.1418000E+00  0.3192504E-09
 0.1429000E+00 -0.7496124E-10
 0.1440000E+00 -0.4991602E-09
 0.1451000E+00 -0.8611893E-09
 0.1462000E+00 -0.1073241E-08
 0.1473000E+00 -0.1072134E-08
 0.1484000E+00 -0.8358452E-09
 0.1495000E+00 -0.3922192E-09
 0.1506000E+00  0.1827107E-09
 0.1517000E+00  0.7772298E-09
 0.1528000E+00  0.1265294E-08
 0.1539000E+00  0.1532661E-08
 0.1550000E+00  0.1502436E-08
 0.1561000E+00  0.1154450E-08
 0.1572000E+00  0.5339079E-09
 0.1583000E+00 -0.2532134E-09
 0.1594000E+00 -0.1057891E-08
 0.1605000E+00 -0.1715971E-08
 0.1616000E+00 -0.2081067E-08
 0.1627000E+00 -0.2055918E-08
 0.1638000E+00 -0.1615639E-08
 0.1649000E+00 -0.8176246E-09
 0.1660000E+00  0.2046980E-09
 0.1671000E+00  0.1263905E-08
 0.1682000E+00  0.2152832E-08
 0.1693000E+00  0.2684785E-08
 0.1704000E+00  0.2731930E-08
 0.1715000E+00  0.2254023E-08
 0.1726000E+00  0.1311226E-08
 0.1737000E+00  0.5765495E-10
 0.1748000E+00 -0.1283951E-08
 0.1759000E+00 -0.2462225E-08
 0.1770000E+00 -0.3244502E-08
 0.1781000E+00 -0.3462424E-08
 0.1792000E+00 -0.3046809E-08
 0.1803000E+00 -0.2044696E-08
 0.1814000E+00 -0.6148255E-09
 0.1825000E+00  0.9980562E-09
 0.1836000E+00  0.2505566E-08
 0.1847000E+00  0.3627108E-08
 0.1858000E+00  0.4141056E-08
 0.1869000E+00  0.3926545E-08
 0.1880000E+00  0.2988481E-08
 0.1891000E+00  0.1461375E-08
 0.1902000E+00 -0.4088514E-09
 0.1913000E+00 -0.2302476E-08
 0.1924000E+00 -0.3877448E-08
 0.1935000E+00 -0.4827152E-08
 0.1946000E+00 -0.4935805E-08
 0.1957000E+00 -0.4122727E-08
 0.1968000E+00 -0.2467641E-08
 0.1979000E+00 -0.2110386E-09
 0.1990000E+00  0.2273347E-08
 0.2001000E+00  0.4532851E-08
 0.2012000E+00  0.6111045E-08
 0.2023000E+00  0.6632916E-08
 0.2034000E+00  0.5885261E-08
 0.2045000E+00  0.3875738E-08
 0.2056000E+00  0.8555868E-09
 0.2067000E+00 -0.2703656E-08
 0.2078000E+00 -0.6180404E-08
 0.2089000E+00 -0.8910735E-08
 0.2100000E+00 -0.1031427E-07
 0.2111000E+00 -0.1001247E-07
 0.2122000E+00 -0.7912980E-08
 0.2133000E+00 -0.4239431E-08
 0.2144000E+00  0.5019962E-09
 0.2155000E+00  0.5613060E-08
 0.2166000E+00  0.1033066E-07
 0.2177000E+00  0.1396102E-07
 0.2188000E+00  0.1598960E-07
 0.2199000E+00  0.1614262E-07
 0.2210000E+00  0.1438997E-07
 0.2221000E+00  0.1089644E-07
 0.2232000E+00  0.5942257E-08
 0.2243000E+00 -0.1576492E-09
 0.2254000E+00 -0.7108619E-08
 0.2265000E+00 -0.1464837E-07
 0.2276000E+00 -0.2251511E-07
 0.2287000E+00 -0.3038589E-07
 0.2298000E+00 -0.3780874E-07
 0.2309000E+00 -0.4415227E-07
 0.2320000E+00 -0.4858601E-07
 0.2331000E+00 -0.5008886E-07
 0.2342000E+00 -0.4746569E-07
 0.2353000E+00 -0.3934227E-07
 0.2364000E+00 -0.2410946E-07
 0.2375000E+00  0.1991919E-09
 0.2386000E+00  0.3609138E-07
 0.2397000E+00  0.8683367E-07
 0.2408000E+00  0.1566619E-06
 0.2419000E+00  0.2509445E-06
 0.2430000E+00  0.3762783E-06
 0.2441000E+00  0.5405275E-06
 0.2452000E+00  0.7528573E-06
 0.2463000E+00  0.1023837E-05
 0.2474000E+00  0.1365706E-05
 0.2485000E+00  0.1792866E-05
 0.2496000E+00  0.2322653E-05
 0.2507000E+00  0.2976354E-05
 0.2518000E+00  0.3780414E-05
 0.2529000E+00  0.4767744E-05
 0.2540000E+00  0.5979040E-05
 0.2551000E+00  0.7464062E-05
 0.2562000E+00  0.9282891E-05
 0.2573000E+00  0.1150723E-04
 0.2584000E+00  0.1422190E-04
 0.2595000E+00  0.1752665E-04
 0.2606000E+00  0.2153842E-04
 0.2617000E+00  0.2639408E-04
 0.2628000E+00  0.3225372E-04
 0.2639000E+00  0.3930426E-04
 0.2650000E+00  0.4776346E-04
 0.2661000E+00  0.5788405E-04
 0.2672000E+00  0.6995805E-04
 0.2683000E+00  0.8432111E-04
 0.2694000E+00  0.1013571E-03
 0.2705000E+00  0.1215032E-03
 0.2716000E+00  0.1452547E-03
 0.2727000E+00  0.1731714E-03
 0.2738000E+00  0.2058829E-03
 0.2749000E+00  0.2440959E-03
 0.2760000E+00  0.2885998E-03
 0.2771000E+00  0.3402726E-03
 0.2782000E+00  0.4000870E-03
 0.2793000E+00  0.4691138E-03
 0.2804000E+00  0.5485259E-03
 0.2815000E+00  0.6396001E-03
 0.2826000E+00  0.7437184E-03
 0.2837000E+00  0.8623675E-03
 0.2848000E+00  0.9971369E-03
 0.2859000E+00  0.1149716E-02
 0.2870000E+00  0.1321887E-02
 0.2881000E+00  0.1515517E-02
 0.2892000E+00  0.1732547E-02
 0.2903000E+00  0.1974974E-02
 0.2914000E+00  0.2244833E-02
 0.2925000E+00  0.2544173E-02
 0.2936000E+00  0.2875028E-02
 0.2947000E+00  0.3239386E-02
 0.2958000E+00  0.3639154E-02
 0.2969000E+00  0.4076116E-02
 0.2980000E+00  0.4551892E-02
 0.2991000E+00  0.5067889E-02
 0.3002000E+00  0.5625254E-02
 0.3013000E+00  0.6224818E-02
 0.3024000E+00  0.6867039E-02
 0.3035000E+00  0.7551943E-02
 0.3046000E+00  0.8279068E-02
 0.3057000E+00  0.9047399E-02
 0.3068000E+00  0.9855312E-02
 0.3079000E+00  0.1070052E-01
 0.3090000E+00  0.1158002E-01
 0.3101000E+00  0.1249004E-01
 0.3112000E+00  0.1342604E-01
 0.3123000E+00  0.1438263E-01
 0.3134000E+00  0.1535359E-01
 0.3145000E+00  0.1633186E-01
 0.3156000E+00  0.1730953E-01
 0.3167000E+00  0.1827787E-01
 0.3178000E+00  0.1922735E-01
 0.3189000E+00  0.2014773E-01
 0.3200000E+00  0.2102810E-01
 0.3211000E+00  0.2185698E-01
 0.3222000E+00  0.2262240E-01
 0.3233000E+00  0.2331208E-01
 0.3244000E+00  0.2391353E-01
 0.3255000E+00  0.2441419E-01
 0.3266000E+00  0.2480166E-01
 0.3277000E+00  0.2506380E-01
 0.3288000E+00  0.2518898E-01
 0.3299000E+00  0.2516625E-01
 0.3310000E+00  0.2498552E-01
 0.3321000E+00  0.2463782E-01
 0.3332000E+00  0.2411541E-01
 0.3343000E+00  0.2341203E-01
 0.3354000E+00  0.2252307E-01
 0.3365000E+00  0.2144568E-01
 0.3376000E+00  0.2017898E-01
 0.3387000E+00  0.1872411E-01
 0.3398000E+00  0.1708438E-01
 0.3409000E+00  0.1526527E-01
 0.3420000E+00  0.1327449E-01
 0.3431000E+00  0.1112198E-01
 0.3442000E+00  0.8819846E-02
 0.3453000E+00  0.6382301E-02
 0.3464000E+00  0.3825537E-02
 0.3475000E+00  0.1167581E-02
 0.3486000E+00 -0.1571887E-02
 0.3497000E+00 -0.4371751E-02
 0.3508000E+00 -0.7209702E-02
 0.3519000E+00 -0.1006251E-01
 0.3530000E+00 -0.1290631E-01
 0.3541000E+00 -0.1571690E-01
 0.3552000E+00 -0.1847007E-01
 0.3563000E+00 -0.2114193E-01
 0.3574000E+00 -0.2370920E-01
 0.3585000E+00 -0.2614955E-01
 0.3596000E+00 -0.2844189E-01
 0.3607000E+00 -0.3056666E-01
 0.3618000E+00 -0.3250609E-01
 0.3629000E+00 -0.3424442E-01
 0.3640000E+00 -0.3576812E-01
 0.3651000E+00 -0.3706604E-01
 0.3662000E+00 -0.3812957E-01
 0.3673000E+00 -0.3895268E-01
 0.3684000E+00 -0.3953199E-01
 0.3695000E+00 -0.3986678E-01
 0.3706000E+00 -0.3995894E-01
 0.3717000E+00 -0.3981293E-01
 0.3728000E+00 -0.3943563E-01
 0.3739000E+00 -0.3883618E-01
 0.3750000E+00 -0.3802585E-01
 0.3761000E+00 -0.3701780E-01
 0.3772000E+00 -0.3582684E-01
 0.3783000E+00 -0.3446922E-01
 0.3794000E+00 -0.3296234E-01
 0.3805000E+00 -0.3132448E-01
 0.3816000E+00 -0.2957456E-01
 0.3827000E+00 -0.2773181E-01
 0.3838000E+00 -0.2581557E-01
 0.3849000E+00 -0.2384500E-01
 0.3860000E+00 -0.2183884E-01
 0.3871000E+00 -0.1981522E-01
 0.3882000E+00 -0.1779145E-01
 0.3893000E+00 -0.1578384E-01
 0.3904000E+00 -0.1380757E-01
 0.3915000E+00 -0.1187652E-01
 0.3926000E+00 -0.1000326E-01
 0.3937000E+00 -0.8198897E-02
 0.3948000E+00 -0.6473082E-02
 0.3959000E+00 -0.4833970E-02
 0.3970000E+00 -0.3288238E-02
 0.3981000E+00 -0.1841105E-02
 0.3992000E+00 -0.4963836E-03
 0.4003000E+00  0.7434555E-03
 0.4014000E+00  0.1877201E-02
 0.4025000E+00  0.2904809E-02
 0.4036000E+00  0.3827305E-02
 0.4047000E+00  0.4646675E-02
 0.4058000E+00  0.5365754E-02
 0.4069000E+00  0.5988116E-02
 0.4080000E+00  0.6517959E-02
 0.4091000E+00  0.6959994E-02
 0.4102000E+00  0.7319340E-02
 0.4113000E+00  0.7601421E-02
 0.4124000E+00  0.7811876E-02
 0.4135000E+00  0.7956469E-02
 0.4146000E+00  0.8041007E-02
 0.4157000E+00  0.8071266E-02
 0.4168000E+00  0.8052930E-02
 0.4179000E+00  0.7991531E-02
 0.4190000E+00  0.7892399E-02
 0.4201000E+00  0.7760631E-02
 0.4212000E+00  0.7601060E-02
 0.4223000E+00  0.7418233E-02
 0.4234000E+00  0.7216401E-02
 0.4245000E+00  0.6999502E-02
 0.4256000E+00  0.6771156E-02
 0.4267000E+00  0.6534658E-02
 0.4278000E+00  0.6292982E-02
 0.4289000E+00  0.6048780E-02
 0.4300000E+00  0.5804393E-02
 0.4311000E+00  0.5561860E-02
 0.4322000E+00  0.5322937E-02
 0.4333000E+00  0.5089109E-02
 0.4344000E+00  0.4861610E-02
 0.4355000E+00  0.4641441E-02
 0.4366000E+00  0.4429386E-02
 0.4377000E+00  0.4226033E-02
 0.4388000E+00  0.4031784E-02
 0.4399000E+00  0.3846877E-02
 0.4410000E+00  0.3671396E-02
 0.4421000E+00  0.3505289E-02
 0.4432000E+00  0.3348387E-02
 0.4443000E+00  0.3200419E-02
 0.4454000E+00  0.3061036E-02
 0.4465000E+00  0.2929825E-02
 0.4476000E+00  0.2806331E-02
 0.4487000E+00  0.2690065E-02
 0.4498000E+00  0.2580524E-02
 0.4509000E+00  0.2477198E-02
 0.4520000E+00  0.2379581E-02
 0.4531000E+00  0.2287186E-02
 0.4542000E+00  0.2199547E-02
 0.4553000E+00  0.2116233E-02
 0.4564000E+00  0.2036849E-02
 0.4575000E+00  0.1961040E-02
 0.4586000E+00  0.1888496E-02
 0.4597000E+00  0.1818955E-02
 0.4608000E+00  0.1752201E-02
 0.4619000E+00  0.1688070E-02
 0.4630000E+00  0.1626446E-02
 0.4641000E+00  0.1567258E-02
 0.4652000E+00  0.1510473E-02
 0.4663000E+00  0.1456090E-02
 0.4674000E+00  0.1404128E-02
 0.4685000E+00  0.1354623E-02
 0.4696000E+00  0.1307615E-02
 0.4707000E+00  0.1263145E-02
 0.4718000E+00  0.1221246E-02
 0.4729000E+00  0.1181938E-02
 0.4740000E+00  0.1145221E-02
 0.4751000E+00  0.1111071E-02
 0.4762000E+00  0.1079439E-02
 0.4773000E+00  0.1050248E-02
 0.4784000E+00  0.1023396E-02
 0.4795000E+00  0.9987552E-03
 0.4806000E+00  0.9761733E-03
 0.4817000E+00  0.9554783E-03
 0.4828000E+00  0.9364798E-03
 0.4839000E+00  0.9189746E-03
 0.4850000E+00  0.9027518E-03
 0.4861000E+00  0.8875997E-03
 0.4872000E+00  0.8733125E-03
 0.4883000E+00  0.8596964E-03
 0.4894000E+00  0.8465755E-03
 0.4905000E+00  0.8337979E-03
 0.4916000E+00  0.8212401E-03
 0.4927000E+00  0.8088119E-03
 0.4938000E+00  0.7964587E-03
 0.4949000E+00  0.7841610E-03
 0.4960000E+00  0.7719313E-03
 0.4971000E+00  0.7598078E-03
 0.4982000E+00  0.7478473E-03
 0.4993000E+00  0.7361172E-03
 0.5004000E+00  0.7246882E-03
 0.5015000E+00  0.7136280E-03
 0.5026000E+00  0.7029949E-03
 0.5037000E+00  0.6928319E-03
 0.5048000E+00  0.6831589E-03
 0.5059000E+00  0.6739669E-03
 0.5070000E+00  0.6652128E-03
 0.5081000E+00  0.6568169E-03
 0.5092000E+00  0.6486638E-03
 0.5103000E+00  0.6406068E-03
 0.5114000E+00  0.6324737E-03
 0.5125000E+00  0.6240755E-03
 0.5136000E+00  0.6152152E-03
 0.5147000E+00  0.6056986E-03
 0.5158000E+00  0.5953459E-03
 0.5169000E+00  0.5840051E-03
 0.5180000E+00  0.5715658E-03
 0.5191000E+00  0.5579734E-03
 0.5202000E+00  0.5432429E-03
 0.5213000E+00  0.5274705E-03
 0.5224000E+00  0.5108429E-03
 0.5235000E+00  0.4936435E-03
 0.5246000E+00  0.4762546E-03
 0.5257000E+00  0.4591559E-03
 0.5268000E+00  0.4429171E-03
 0.5279000E+00  0.4281862E-03
 0.5290000E+00  0.4156748E-03
 0.5301000E+00  0.4061394E-03
 0.5312000E+00  0.4003626E-03
 0.5323000E+00  0.3991336E-03
 0.5334000E+00  0.4032287E-03
 0.5345000E+00  0.4133918E-03
 0.5356000E+00  0.4303149E-03
 0.5367000E+00  0.4546199E-03
 0.5378000E+00  0.4868431E-03
 0.5389000E+00  0.5274236E-03
 0.5400000E+00  0.5767001E-03
 0.5411000E+00  0.6349140E-03
 0.5422000E+00  0.7022224E-03
 0.5433000E+00  0.7787180E-03
 0.5444000E+00  0.8644561E-03
 0.5455000E+00  0.9594894E-03
 0.5466000E+00  0.1063907E-02
 0.5477000E+00  0.1177881E-02
 0.5488000E+00  0.1301713E-02
 0.5499000E+00  0.1435892E-02
 0.5510000E+00  0.1581141E-02
 0.5521000E+00  0.1738473E-02
 0.5532000E+00  0.1909235E-02
 0.5543000E+00  0.2095147E-02
 0.5554000E+00  0.2298336E-02
 0.5565000E+00  0.2521352E-02
 0.5576000E+00  0.2767180E-02
 0.5587000E+00  0.3039226E-02
 0.5598000E+00  0.3341296E-02
 0.5609000E+00  0.3677546E-02
 0.5620000E+00  0.4052423E-02
 0.5631000E+00  0.4470578E-02
 0.5642000E+00  0.4936766E-02
 0.5653000E+00  0.5455731E-02
 0.5664000E+00  0.6032072E-02
 0.5675000E+00  0.6670097E-02
 0.5686000E+00  0.7373666E-02
 0.5697000E+00  0.8146023E-02
 0.5708000E+00  0.8989630E-02
 0.5719000E+00  0.9905998E-02
 0.5730000E+00  0.1089553E-01
 0.5741000E+00  0.1195735E-01
 0.5752000E+00  0.1308921E-01
 0.5763000E+00  0.1428732E-01
 0.5774000E+00  0.1554630E-01
 0.5785000E+00  0.1685909E-01
 0.5796000E+00  0.1821690E-01
 0.5807000E+00  0.1960924E-01
 0.5818000E+00  0.2102391E-01
 0.5829000E+00  0.2244712E-01
 0.5840000E+00  0.2386356E-01
 0.5851000E+00  0.2525657E-01
 0.5862000E+00  0.2660829E-01
 0.5873000E+00  0.2789990E-01
 0.5884000E+00  0.2911185E-01
 0.5895000E+00  0.3022416E-01
 0.5906000E+00  0.3121667E-01
 0.5917000E+00  0.3206942E-01
 0.5928000E+00  0.3276292E-01
 0.5939000E+00  0.3327853E-01
 0.5950000E+00  0.3359874E-01
 0.5961000E+00  0.3370754E-01
 0.5972000E+00  0.3359073E-01
 0.5983000E+00  0.3323618E-01
 0.5994000E+00  0.3263411E-01
 0.6005000E+00  0.3177733E-01
 0.6016000E+00  0.3066146E-01
 0.6027000E+00  0.2928503E-01
 0.6038000E+00  0.2764964E-01
 0.6049000E+00  0.2575998E-01
 0.6060000E+00  0.2362391E-01
 0.6071000E+00  0.2125236E-01
 0.6082000E+00  0.1865926E-01
 0.6093000E+00  0.1586142E-01
 0.6104000E+00  0.1287835E-01
 0.6115000E+00  0.9732012E-02
 0.6126000E+00  0.6446568E-02
 0.6137000E+00  0.3048075E-02
 0.6148000E+00 -0.4358514E-03
 0.6159000E+00 -0.3976393E-02
 0.6170000E+00 -0.7543907E-02
 0.6181000E+00 -0.1110831E-01
 0.6192000E+00 -0.1463946E-01
 0.6203000E+00 -0.1810756E-01
 0.6214000E+00 -0.2148353E-01
 0.6225000E+00 -0.2473934E-01
 0.6236000E+00 -0.2784840E-01
 0.6247000E+00 -0.3078585E-01
 0.6258000E+00 -0.3352884E-01
 0.6269000E+00 -0.3605683E-01
 0.6280000E+00 -0.3835178E-01
 0.6291000E+00 -0.4039830E-01
 0.6302000E+00 -0.4218384E-01
 0.6313000E+00 -0.4369872E-01
 0.6324000E+00 -0.4493621E-01
 0.6335000E+00 -0.4589248E-01
 0.6346000E+00 -0.4656665E-01
 0.6357000E+00 -0.4696064E-01
 0.6368000E+00 -0.4707909E-01
 0.6379000E+00 -0.4692920E-01
 0.6390000E+00 -0.4652061E-01
 0.6401000E+00 -0.4586511E-01
 0.6412000E+00 -0.4497649E-01
 0.6423000E+00 -0.4387026E-01
 0.6434000E+00 -0.4256341E-01
 0.6445000E+00 -0.4107415E-01
 0.6456000E+00 -0.3942162E-01
 0.6467000E+00 -0.3762570E-01
 0.6478000E+00 -0.3570667E-01
 0.6489000E+00 -0.3368503E-01
 0.6500000E+00 -0.3158121E-01
 0.6511000E+00 -0.2941540E-01
 0.6522000E+00 -0.2720730E-01
 0.6533000E+00 -0.2497594E-01
 0.6544000E+00 -0.2273951E-01
 0.6555000E+00 -0.2051522E-01
 0.6566000E+00 -0.1831913E-01
 0.6577000E+00 -0.1616611E-01
 0.6588000E+00 -0.1406970E-01
 0.6599000E+00 -0.1204208E-01
 0.6610000E+00 -0.1009401E-01
 0.6621000E+00 -0.8234826E-02
 0.6632000E+00 -0.6472442E-02
 0.6643000E+00 -0.4813343E-02
 0.6654000E+00 -0.3262632E-02
 0.6665000E+00 -0.1824078E-02
 0.6676000E+00 -0.5001700E-03
 0.6687000E+00  0.7078117E-03
 0.6698000E+00  0.1799723E-02
 0.6709000E+00  0.2776476E-02
 0.6720000E+00  0.3639952E-02
 0.6731000E+00  0.4392908E-02
 0.6742000E+00  0.5038879E-02
 0.6753000E+00  0.5582075E-02
 0.6764000E+00  0.6027278E-02
 0.6775000E+00  0.6379746E-02
 0.6786000E+00  0.6645120E-02
 0.6797000E+00  0.6829335E-02
 0.6808000E+00  0.6938542E-02
 0.6819000E+00  0.6979026E-02
 0.6830000E+00  0.6957143E-02
 0.6841000E+00  0.6879243E-02
 0.6852000E+00  0.6751614E-02
 0.6863000E+00  0.6580430E-02
 0.6874000E+00  0.6371701E-02
 0.6885000E+00  0.6131241E-02
 0.6896000E+00  0.5864635E-02
 0.6907000E+00  0.5577216E-02
 0.6918000E+00  0.5274044E-02
 0.6929000E+00  0.4959893E-02
 0.6940000E+00  0.4639245E-02
 0.6951000E+00  0.4316280E-02
 0.6962000E+00  0.3994881E-02
 0.6973000E+00  0.3678641E-02
 0.6984000E+00  0.3370863E-02
 0.6995000E+00  0.3074575E-02
 0.7006000E+00  0.2792541E-02
 0.7017000E+00  0.2527267E-02
 0.7028000E+00  0.2281016E-02
 0.7039000E+00  0.2055817E-02
 0.7050000E+00  0.1853467E-02
 0.7061000E+00  0.1675536E-02
 0.7072000E+00  0.1523371E-02
 0.7083000E+00  0.1398094E-02
 0.7094000E+00  0.1300606E-02
 0.7105000E+00  0.1231584E-02
 0.7116000E+00  0.1191486E-02
 0.7127000E+00  0.1180537E-02
 0.7138000E+00  0.1198731E-02
 0.7149000E+00  0.1245815E-02
 0.7160000E+00  0.1321282E-02
 0.7171000E+00  0.1424362E-02
 0.7182000E+00  0.1554024E-02
 0.7193000E+00  0.1708974E-02
 0.7204000E+00  0.1887664E-02
 0.7215000E+00  0.2088293E-02
 0.7226000E+00  0.2308824E-02
 0.7237000E+00  0.2546981E-02
 0.7248000E+00  0.2800268E-02
 0.7259000E+00  0.3065980E-02
 0.7270000E+00  0.3341227E-02
 0.7281000E+00  0.3622965E-02
 0.7292000E+00  0.3908035E-02
 0.7303000E+00  0.4193200E-02
 0.7314000E+00  0.4475189E-02
 0.7325000E+00  0.4750744E-02
 0.7336000E+00  0.5016661E-02
 0.7347000E+00  0.5269832E-02
 0.7358000E+00  0.5507287E-02
 0.7369000E+00  0.5726235E-02
 0.7380000E+00  0.5924101E-02
 0.7391000E+00  0.6098557E-02
 0.7402000E+00  0.6247567E-02
 0.7413000E+00  0.6369404E-02
 0.7424000E+00  0.6462685E-02
 0.7435000E+00  0.6526385E-02
 0.7446000E+00  0.6559844E-02
 0.7457000E+00  0.6562779E-02
 0.7468000E+00  0.6535272E-02
 0.7479000E+00  0.6477759E-02
 0.7490000E+00  0.6391021E-02
 0.7501000E+00  0.6276158E-02
 0.7512000E+00  0.6134570E-02
 0.7523000E+00  0.5967931E-02
 0.7534000E+00  0.5778152E-02
 0.7545000E+00  0.5567346E-02
 0.7556000E+00  0.5337783E-02
 0.7567000E+00  0.5091847E-02
 0.7578000E+00  0.4832000E-02
 0.7589000E+00  0.4560739E-02
 0.7600000E+00  0.4280566E-02
 0.7611000E+00  0.3993959E-02
 0.7622000E+00  0.3703336E-02
 0.7633000E+00  0.3411035E-02
 0.7644000E+00  0.3119279E-02
 0.7655000E+00  0.2830162E-02
 0.7666000E+00  0.2545624E-02
 0.7677000E+00  0.2267442E-02
 0.7688000E+00  0.1997227E-02
 0.7699000E+00  0.1736418E-02
 0.7710000E+00  0.1486280E-02
 0.7721000E+00  0.1247907E-02
 0.7732000E+00  0.1022219E-02
 0.7743000E+00  0.8099639E-03
 0.7754000E+00  0.6117257E-03
 0.7765000E+00  0.4279299E-03
 0.7776000E+00  0.2588556E-03
 0.7787000E+00  0.1046485E-03
 0.7798000E+00 -0.3466762E-04
 0.7809000E+00 -0.1591805E-03
 0.7820000E+00 -0.2690810E-03
 0.7831000E+00 -0.3646578E-03
 0.7842000E+00 -0.4462930E-03
 0.7853000E+00 -0.5144589E-03
 0.7864000E+00 -0.5697148E-03
 0.7875000E+00 -0.6127020E-03
 0.7886000E+00 -0.6441380E-03
 0.7897000E+00 -0.6648080E-03
 0.7908000E+00 -0.6755568E-03
 0.7919000E+00 -0.6772783E-03
 0.7930000E+00 -0.6709072E-03
 0.7941000E+00 -0.6574102E-03
 0.7952000E+00 -0.6377785E-03
 0.7963000E+00 -0.6130193E-03
 0.7974000E+00 -0.5841461E-03
 0.7985000E+00 -0.5521670E-03
 0.7996000E+00 -0.5180715E-03
 0.8007000E+00 -0.4828170E-03
 0.8018000E+00 -0.4473157E-03
 0.8029000E+00 -0.4124231E-03
 0.8040000E+00 -0.3789284E-03
 0.8051000E+00 -0.3475448E-03
 0.8062000E+00 -0.3189010E-03
 0.8073000E+00 -0.2935316E-03
 0.8084000E+00 -0.2718687E-03
 0.8095000E+00 -0.2542355E-03
 0.8106000E+00 -0.2408440E-03
 0.8117000E+00 -0.2317969E-03
 0.8128000E+00 -0.2270941E-03
 0.8139000E+00 -0.2266426E-03
 0.8150000E+00 -0.2302680E-03
 0.8161000E+00 -0.2377261E-03
 0.8172000E+00 -0.2487153E-03
 0.8183000E+00 -0.2628876E-03
 0.8194000E+00 -0.2798604E-03
 0.8205000E+00 -0.2992305E-03
 0.8216000E+00 -0.3205879E-03
 0.8227000E+00 -0.3435318E-03
 0.8238000E+00 -0.3676872E-03
 0.8249000E+00 -0.3927191E-03
 0.8260000E+00 -0.4183452E-03
 0.8271000E+00 -0.4443439E-03
 0.8282000E+00 -0.4705580E-03
 0.8293000E+00 -0.4968936E-03
 0.8304000E+00 -0.5233163E-03
 0.8315000E+00 -0.5498455E-03
 0.8326000E+00 -0.5765483E-03
 0.8337000E+00 -0.6035345E-03
 0.8348000E+00 -0.6309499E-03
 0.8359000E+00 -0.6589686E-03
 0.8370000E+00 -0.6877800E-03
 0.8381000E+00 -0.7175733E-03
 0.8392000E+00 -0.7485173E-03
 0.8403000E+00 -0.7807411E-03
 0.8414000E+00 -0.8143155E-03
 0.8425000E+00 -0.8492401E-03
 0.8436000E+00 -0.8854343E-03
 0.8447000E+00 -0.9227334E-03
 0.8458000E+00 -0.9608868E-03
 0.8469000E+00 -0.9995570E-03
 0.8480000E+00 -0.1038320E-02
 0.8491000E+00 -0.1076669E-02
 0.8502000E+00 -0.1114016E-02
 0.8513000E+00 -0.1149707E-02
 0.8524000E+00 -0.1183033E-02
 0.8535000E+00 -0.1213244E-02
 0.8546000E+00 -0.1239572E-02
 0.8557000E+00 -0.1261246E-02
 0.8568000E+00 -0.1277511E-02
 0.8579000E+00 -0.1287648E-02
 0.8590000E+00 -0.1290994E-02
 0.8601000E+00 -0.1286958E-02
 0.8612000E+00 -0.1275048E-02
 0.8623000E+00 -0.1254885E-02
 0.8634000E+00 -0.1226217E-02
 0.8645000E+00 -0.1188933E-02
 0.8656000E+00 -0.1143067E-02
 0.8667000E+00 -0.1088798E-02
 0.8678000E+00 -0.1026453E-02
 0.8689000E+00 -0.9564943E-03
 0.8700000E+00 -0.8795201E-03
 0.8711000E+00 -0.7962478E-03
 0.8722000E+00 -0.7075047E-03
 0.8733000E+00 -0.6142132E-03
 0.8744000E+00 -0.5173742E-03
 0.8755000E+00 -0.4180491E-03
 0.8766000E+00 -0.3173386E-03
 0.8777000E+00 -0.2163589E-03
 0.8788000E+00 -0.1162169E-03
 0.8799000E+00 -0.1798607E-04
 0.8810000E+00  0.7731572E-04
 0.8821000E+00  0.1687436E-03
 0.8832000E+00  0.2554388E-03
 0.8843000E+00  0.3366383E-03
 0.8854000E+00  0.4116826E-03
 0.8865000E+00  0.4800237E-03
 0.8876000E+00  0.5412333E-03
 0.8887000E+00  0.5950101E-03
 0.8898000E+00  0.6411836E-03
 0.8909000E+00  0.6797130E-03
 0.8920000E+00  0.7106812E-03
 0.8931000E+00  0.7342828E-03
 0.8942000E+00  0.7508113E-03
 0.8953000E+00  0.7606448E-03
 0.8964000E+00  0.7642338E-03
 0.8975000E+00  0.7620889E-03
 0.8986000E+00  0.7547698E-03
 0.8997000E+00  0.7428711E-03
 0.9008000E+00  0.7270087E-03
 0.9019000E+00  0.7078030E-03
 0.9030000E+00  0.6858651E-03
 0.9041000E+00  0.6617840E-03
 0.9052000E+00  0.6361171E-03
 0.9063000E+00  0.6093840E-03
 0.9074000E+00  0.5820613E-03
 0.9085000E+00  0.5545795E-03
 0.9096000E+00  0.5273191E-03
 0.9107000E+00  0.5006074E-03
 0.9118000E+00  0.4747162E-03
 0.9129000E+00  0.4498597E-03
 0.9140000E+00  0.4261944E-03
 0.9151000E+00  0.4038209E-03
 0.9162000E+00  0.3827874E-03
 0.9173000E+00  0.3630957E-03
 0.9184000E+00  0.3447085E-03
 0.9195000E+00  0.3275582E-03
 0.9206000E+00  0.3115553E-03
 0.9217000E+00  0.2965952E-03
 0.9228000E+00  0.2825634E-03
 0.9239000E+00  0.2693389E-03
 0.9250000E+00  0.2567965E-03
 0.9261000E+00  0.2448107E-03
 0.9272000E+00  0.2332605E-03
 0.9283000E+00  0.2220353E-03
 0.9294000E+00  0.2110412E-03
 0.9305000E+00  0.2002065E-03
 0.9316000E+00  0.1894833E-03
 0.9327000E+00  0.1788489E-03
 0.9338000E+00  0.1683042E-03
 0.9349000E+00  0.1578736E-03
 0.9360000E+00  0.1476056E-03
 0.9371000E+00  0.1375747E-03
 0.9382000E+00  0.1278826E-03
 0.9393000E+00  0.1186584E-03
 0.9404000E+00  0.1100565E-03
 0.9415000E+00  0.1022521E-03
 0.9426000E+00  0.9543502E-04
 0.9437000E+00  0.8980527E-04
 0.9448000E+00  0.8556889E-04
 0.9459000E+00  0.8293589E-04
 0.9470000E+00  0.8211884E-04
 0.9481000E+00  0.8333113E-04
 0.9492000E+00  0.8678396E-04
 0.9503000E+00  0.9268190E-04
 0.9514000E+00  0.1012173E-03
 0.9525000E+00  0.1125645E-03
 0.9536000E+00  0.1268745E-03
 0.9547000E+00  0.1442713E-03
 0.9558000E+00  0.1648494E-03
 0.9569000E+00  0.1886727E-03
 0.9580000E+00  0.2157752E-03
 0.9591000E+00  0.2461611E-03
 0.9602000E+00  0.2798047E-03
 0.9613000E+00  0.3166493E-03
 0.9624000E+00  0.3566048E-03
 0.9635000E+00  0.3995450E-03
 0.9646000E+00  0.4453060E-03
 0.9657000E+00  0.4936862E-03
 0.9668000E+00  0.5444504E-03
 0.9679000E+00  0.5973335E-03
 0.9690000E+00  0.6520468E-03
 0.9701000E+00  0.7082814E-03
 0.9712000E+00  0.7657098E-03
 0.9723000E+00  0.8239856E-03
 0.9734000E+00  0.8827423E-03
 0.9745000E+00  0.9415940E-03
 0.9756000E+00  0.1000139E-02
 0.9767000E+00  0.1057963E-02
 0.9778000E+00  0.1114648E-02
 0.9789000E+00  0.1169773E-02