-0.1200000E+00  0.0000000E+00
-0.1189000E+00  0.0000000E+00
-0.1178000E+00  0.0000000E+00
-0.1167000E+00  0.0000000E+00
-0.1156000E+00  0.0000000E+00
-0.1145000E+00  0.0000000E+00
-0.1134000E+00  0.0000000E+00
-0.1123000E+00  0.0000000E+00
-0.1112000E+00  0.0000000E+00
-0.1101000E+00  0.0000000E+00
-0.1090000E+00  0.0000000E+00
-0.1079000E+00  0.0000000E+00
-0.1068000E+00  0.0000000E+00
-0.1057000E+00  0.0000000E+00
-0.1046000E+00  0.0000000E+00
-0.1035000E+00  0.0000000E+00
-0.1024000E+00  0.0000000E+00
-0.1013000E+00  0.0000000E+00
-0.1002000E+00  0.0000000E+00
-0.9910000E-01  0.0000000E+00
-0.9800000E-01  0.0000000E+00
-0.9690000E-01  0.0000000E+00
-0.9580000E-01  0.0000000E+00
-0.9470000E-01  0.0000000E+00
-0.9360000E-01  0.0000000E+00
-0.9250000E-01  0.0000000E+00
-0.9140000E-01  0.0000000E+00
-0.9030000E-01  0.0000000E+00
-0.8920000E-01  0.0000000E+00
-0.8810000E-01  0.0000000E+00
-0.8700000E-01  0.0000000E+00
-0.8590000E-01  0.0000000E+00
-0.8480000E-01  0.0000000E+00
-0.8370000E-01  0.0000000E+00
-0.8260000E-01  0.0000000E+00
-0.8150000E-01  0.0000000E+00
-0.8040000E-01  0.0000000E+00
-0.7930000E-01  0.0000000E+00
-0.7820000E-01  0.0000000E+00
-0.7710000E-01  0.0000000E+00
-0.7600000E-01  0.0000000E+00
-0.7490000E-01  0.0000000E+00
-0.7380000E-01  0.0000000E+00
-0.7270000E-01  0.0000000E+00
-0.7160000E-01  0.0000000E+00
-0.7050000E-01  0.0000000E+00
-0.6940000E-01  0.0000000E+00
-0.6830000E-01  0.0000000E+00
-0.6720000E-01  0.0000000E+00
-0.6610000E-01  0.0000000E+00
-0.6500000E-01  0.0000000E+00
-0.6390000E-01  0.0000000E+00
-0.6280000E-01  0.0000000E+00
-0.6170000E-01  0.0000000E+00
-0.6060000E-01  0.0000000E+00
-0.5950000E-01  0.0000000E+00
-0.5840000E-01  0.0000000E+00
-0.5730000E-01  0.0000000E+00
-0.5620000E-01  0.0000000E+00
-0.5510000E-01  0.0000000E+00
-0.5400000E-01  0.0000000E+00
-0.5290000E-01  0.0000000E+00
-0.5180000E-01  0.0000000E+00
-0.5070000E-01  0.0000000E+00
-0.4960000E-01  0.0000000E+00
-0.4850000E-01  0.0000000E+00
-0.4740000E-01  0.0000000E+00
-0.4630000E-01  0.0000000E+00
-0.4520000E-01  0.0000000E+00
-0.4410000E-01  0.0000000E+00
-0.4300000E-01  0.0000000E+00
-0.4190000E-01  0.0000000E+00
-0.4080000E-01  0.0000000E+00
-0.3970000E-01  0.0000000E+00
-0.3860000E-01  0.0000000E+00
-0.3750000E-01  0.0000000E+00
-0.3640000E-01  0.0000000E+00
-0.3530000E-01  0.0000000E+00
-0.3420000E-01  0.0000000E+00
-0.3310000E-01  0.0000000E+00
-0.3200000E-01  0.0000000E+00
-0.3090000E-01  0.0000000E+00
-0.2980000E-01  0.0000000E+00
-0.2870000E-01  0.0000000E+00
-0.2760000E-01  0.0000000E+00
-0.2650000E-01  0.0000000E+00
-0.2540000E-01  0.0000000E+00
-0.2430000E-01  0.0000000E+00
-0.2320000E-01  0.0000000E+00
-0.2210000E-01  0.0000000E+00
-0.2100000E-01  0.0000000E+00
-0.1990000E-01  0.0000000E+00
-0.1880000E-01  0.0000000E+00
-0.1770000E-01  0.0000000E+00
-0.1660000E-01  0.0000000E+00
-0.1550000E-01  0.0000000E+00
-0.1440000E-01  0.0000000E+00
-0.1330000E-01  0.0000000E+00
-0.1220000E-01  0.0000000E+00
-0.1110000E-01  0.0000000E+00
-0.1000000E-01  0.0000000E+00
-0.8900000E-02  0.0000000E+00
-0.7800000E-02  0.0000000E+00
-0.6700000E-02  0.0000000E+00
-0.5600000E-02  0.0000000E+00
-0.4500000E-02  0.0000000E+00
-0.3400000E-02  0.0000000E+00
-0.2300000E-02  0.0000000E+00
-0.1200000E-02  0.0000000E+00
-0.1000000E-03  0.0000000E+00
 0.1000000E-02  0.0000000E+00
 0.2100000E-02  0.0000000E+00
 0.3200000E-02  0.0000000E+00
 0.4300000E-02  0.0000000E+00
 0.5400000E-02  0.0000000E+00
 0.6500000E-02  0.0000000E+00
 0.7600000E-02  0.0000000E+00
 0.8700000E-02  0.0000000E+00
 0.9800000E-02  0.0000000E+00
 0.1090000E-01  0.0000000E+00
 0.1200000E-01  0.0000000E+00
 0.1310000E-01  0.0000000E+00
 0.1420000E-01  0.0000000E+00
 0.1530000E-01  0.0000000E+00
 0.1640000E-01  0.0000000E+00
 0.1750000E-01  0.0000000E+00
 0.1860000E-01  0.0000000E+00
 0.1970000E-01  0.0000000E+00
 0.2080000E-01  0.0000000E+00
 0.2190000E-01  0.0000000E+00
 0.2300000E-01  0.0000000E+00
 0.2410000E-01  0.0000000E+00
 0.2520000E-01  0.0000000E+00
 0.2630000E-01  0.0000000E+00
 0.2740000E-01  0.0000000E+00
 0.2850000E-01  0.0000000E+00
 0.2960000E-01  0.0000000E+00
 0.3070000E-01  0.0000000E+00
 0.3180000E-01  0.0000000E+00
 0.3290000E-01  0.0000000E+00
 0.3400000E-01  0.0000000E+00
 0.3510000E-01  0.0000000E+00
 0.3620000E-01  0.0000000E+00
 0.3730000E-01  0.0000000E+00
 0.3840000E-01  0.0000000E+00
 0.3950000E-01  0.0000000E+00
 0.4060000E-01  0.0000000E+00
 0.4170000E-01  0.0000000E+00
 0.4280000E-01  0.0000000E+00
 0.4390000E-01  0.0000000E+00
 0.4500000E-01  0.0000000E+00
 0.4610000E-01  0.0000000E+00
 0.4720000E-01  0.0000000E+00
 0.4830000E-01  0.0000000E+00
 0.4940000E-01  0.0000000E+00
 0.5050000E-01  0.0000000E+00
 0.5160000E-01  0.0000000E+00
 0.5270000E-01  0.0000000E+00
 0.5380000E-01  0.0000000E+00
 0.5490000E-01  0.0000000E+00
 0.5600000E-01  0.0000000E+00
 0.5710000E-01  0.0000000E+00
 0.5820000E-01  0.0000000E+00
 0.5930000E-01  0.0000000E+00
 0.6040000E-01  0.0000000E+00
 0.6150000E-01  0.0000000E+00
 0.6260000E-01  0.0000000E+00
 0.6370000E-01  0.0000000E+00
 0.6480000E-01  0.0000000E+00
 0.6590000E-01  0.0000000E+00
 0.6700000E-01  0.0000000E+00
 0.6810000E-01  0.0000000E+00
 0.6920000E-01  0.0000000E+00
 0.7030000E-01  0.0000000E+00
 0.7140000E-01  0.0000000E+00
 0.7250000E-01  0.0000000E+00
 0.7360000E-01  0.0000000E+00
 0.7470000E-01  0.0000000E+00
 0.7580000E-01  0.0000000E+00
 0.7690000E-01  0.0000000E+00
 0.7800000E-01  0.0000000E+00
 0.7910000E-01  0.0000000E+00
 0.8020000E-01  0.0000000E+00
 0.8130000E-01  0.0000000E+00
 0.8240000E-01  0.0000000E+00
 0.8350000E-01  0.0000000E+00
 0.8460000E-01  0.0000000E+00
 0.8570000E-01  0.0000000E+00
 0.8680000E-01  0.0000000E+00
 0.8790000E-01  0.0000000E+00
 0.8900000E-01  0.0000000E+00
 0.9010000E-01  0.0000000E+00
 0.9120000E-01  0.0000000E+00
 0.9230000E-01  0.0000000E+00
 0.9340000E-01  0.0000000E+00
 0.9450000E-01  0.0000000E+00
 0.9560000E-01  0.0000000E+00
 0.9670000E-01  0.0000000E+00
 0.9780000E-01  0.0000000E+00
 0.9890000E-01  0.0000000E+00
 0.1000000E+00  0.0000000E+00
 0.1011000E+00  0.0000000E+00
 0.1022000E+00  0.0000000E+00
 0.1033000E+00  0.0000000E+00
 0.1044000E+00  0.0000000E+00
 0.1055000E+00  0.0000000E+00
 0.1066000E+00  0.0000000E+00
 0.1077000E+00  0.0000000E+00
 0.1088000E+00  0.0000000E+00
 0.1099000E+00  0.0000000E+00
 0.1110000E+00  0.0000000E+00
 0.1121000E+00  0.0000000E+00
 0.1132000E+00  0.0000000E+00
 0.1143000E+00  0.0000000E+00
 0.1154000E+00  0.0000000E+00
 0.1165000E+00  0.0000000E+00
 0.1176000E+00  0.0000000E+00
 0.1187000E+00  0.0000000E+00
 0.1198000E+00  0.0000000E+00
 0.1209000E+00  0.0000000E+00
 0.1220000E+00  0.0000000E+00
 0.1231000E+00  0.0000000E+00
 0.1242000E+00  0.0000000E+00
 0.1253000E+00  0.0000000E+00
 0.1264000E+00  0.0000000E+00
 0.1275000E+00  0.0000000E+00
 0.1286000E+00  0.0000000E+00
 0.1297000E+00  0.0000000E+00
 0.1308000E+00  0.0000000E+00
 0.1319000E+00  0.0000000E+00
 0.1330000E+00  0.0000000E+00
 0.1341000E+00  0.0000000E+00
 0.1352000E+00  0.0000000E+00
 0.1363000E+00  0.0000000E+00
 0.1374000E+00  0.0000000E+00
 0.1385000E+00  0.0000000E+00
 0.1396000E+00  0.0000000E+00
 0.1407000E+00  0.0000000E+00
 0.1418000E+00  0.0000000E+00
 0.1429000E+00  0.0000000E+00
 0.1440000E+00  0.0000000E+00
 0.1451000E+00  0.0000000E+00
 0.1462000E+00  0.0000000E+00
 0.1473000E+00  0.0000000E+00
 0.1484000E+00  0.0000000E+00
 0.1495000E+00  0.0000000E+00
 0.1506000E+00  0.0000000E+00
 0.1517000E+00  0.0000000E+00
 0.1528000E+00  0.0000000E+00
 0.1539000E+00  0.0000000E+00
 0.1550000E+00  0.0000000E+00
 0.1561000E+00  0.0000000E+00
 0.1572000E+00  0.0000000E+00
 0.1583000E+00  0.0000000E+00
 0.1594000E+00  0.0000000E+00
 0.1605000E+00  0.0000000E+00
 0.1616000E+00  0.0000000E+00
 0.1627000E+00  0.0000000E+00
 0.1638000E+00  0.0000000E+00
 0.1649000E+00  0.0000000E+00
 0.1660000E+00  0.0000000E+00
 0.1671000E+00  0.0000000E+00
 0.1682000E+00  0.0000000E+00
 0.1693000E+00  0.0000000E+00
 0.1704000E+00  0.0000000E+00
 0.1715000E+00  0.0000000E+00
 0.1726000E+00  0.0000000E+00
 0.1737000E+00  0.0000000E+00
 0.1748000E+00  0.0000000E+00
 0.1759000E+00  0.0000000E+00
 0.1770000E+00  0.0000000E+00
 0.1781000E+00  0.0000000E+00
 0.1792000E+00  0.0000000E+00
 0.1803000E+00  0.0000000E+00
 0.1814000E+00  0.0000000E+00
 0.1825000E+00  0.0000000E+00
 0.1836000E+00  0.0000000E+00
 0.1847000E+00  0.0000000E+00
 0.1858000E+00  0.0000000E+00
 0.1869000E+00  0.0000000E+00
 0.1880000E+00  0.0000000E+00
 0.1891000E+00  0.0000000E+00
 0.1902000E+00  0.0000000E+00
 0.1913000E+00  0.0000000E+00
 0.1924000E+00  0.0000000E+00
 0.1935000E+00  0.0000000E+00
 0.1946000E+00  0.0000000E+00
 0.1957000E+00  0.0000000E+00
 0.1968000E+00  0.0000000E+00
 0.1979000E+00  0.0000000E+00
 0.1990000E+00  0.0000000E+00
 0.2001000E+00  0.0000000E+00
 0.2012000E+00  0.0000000E+00
 0.2023000E+00 -0.2109647E-37
 0.2034000E+00 -0.6478140E-37
 0.2045000E+00 -0.9503297E-37
 0.2056000E+00 -0.7376681E-37
 0.2067000E+00 -0.0000000E+00
 0.2078000E+00  0.1349514E-36
 0.2089000E+00  0.1982336E-36
 0.2100000E+00  0.8166673E-37
 0.2111000E+00 -0.2225750E-36
 0.2122000E+00 -0.5879061E-36
 0.2133000E+00 -0.7315494E-36
 0.2144000E+00 -0.4154041E-36
 0.2155000E+00  0.3610910E-36
 0.2166000E+00  0.1296906E-35
 0.2177000E+00  0.1837176E-35
 0.2188000E+00  0.1444216E-35
 0.2199000E+00 -0.4280560E-37
 0.2210000E+00 -0.2172726E-35
 0.2221000E+00 -0.3923810E-35
 0.2232000E+00 -0.4063352E-35
 0.2243000E+00 -0.1817036E-35
 0.2254000E+00  0.2493458E-35
 0.2265000E+00  0.7183281E-35
 0.2276000E+00  0.9624476E-35
 0.2287000E+00  0.7400665E-35
 0.2298000E+00 -0.1884741E-36
 0.2309000E+00 -0.1096249E-34
 0.2320000E+00 -0.1990763E-34
 0.2331000E+00 -0.2092733E-34
 0.2342000E+00 -0.9976530E-35
 0.2353000E+00  0.1166056E-34
 0.2364000E+00  0.3578917E-34
 0.2375000E+00  0.4922570E-34
 0.2386000E+00  0.3939594E-34
 0.2397000E+00  0.2110302E-35
 0.2408000E+00 -0.5235834E-34
 0.2419000E+00 -0.9919047E-34
 0.2430000E+00 -0.1074923E-33
 0.2441000E+00 -0.5603038E-34
 0.2452000E+00  0.5011577E-34
 0.2463000E+00  0.1714756E-33
 0.2474000E+00  0.2430887E-33
 0.2485000E+00  0.2021693E-33
 0.2496000E+00  0.2598679E-34
 0.2507000E+00 -0.2382418E-33
 0.2518000E+00 -0.4723119E-33
 0.2529000E+00 -0.5272899E-33
 0.2540000E+00 -0.2981432E-33
 0.2551000E+00  0.1971278E-33
 0.2562000E+00  0.7784260E-33
 0.2573000E+00  0.1143427E-32
 0.2584000E+00  0.9945128E-33
 0.2595000E+00  0.2132524E-33
 0.2606000E+00 -0.1000336E-32
 0.2617000E+00 -0.2118389E-32
 0.2628000E+00 -0.2461654E-32
 0.2639000E+00 -0.1531696E-32
 0.2650000E+00  0.6329641E-33
 0.2661000E+00  0.3272799E-32
 0.2672000E+00  0.5066628E-32
 0.2683000E+00  0.4672856E-32
 0.2694000E+00  0.1486272E-32
 0.2705000E+00 -0.3741536E-32
 0.2716000E+00 -0.8822717E-32
 0.2727000E+00 -0.1083974E-31
 0.2738000E+00 -0.7525295E-32
 0.2749000E+00  0.1221025E-32
 0.2760000E+00  0.1248757E-31
 0.2771000E+00  0.2089622E-31
 0.2782000E+00  0.2072941E-31
 0.2793000E+00  0.9005722E-32
 0.2804000E+00 -0.1188585E-31
 0.2815000E+00 -0.3362269E-31
 0.2826000E+00 -0.4449383E-31
 0.2837000E+00 -0.3471265E-31
 0.2848000E+00 -0.2495174E-32
 0.2859000E+00  0.4220818E-31
 0.2870000E+00  0.7919175E-31
 0.2881000E+00  0.8562618E-31
 0.2892000E+00  0.4769533E-31
 0.2903000E+00 -0.2883288E-31
 0.2914000E+00 -0.1152606E-30
 0.2925000E+00 -0.1680459E-30
 0.2936000E+00 -0.1476242E-30
 0.2947000E+00 -0.4116989E-31
 0.2958000E+00  0.1218377E-30
 0.2969000E+00  0.2719999E-30
 0.2980000E+00  0.3247353E-30
 0.2991000E+00  0.2210089E-30
 0.3002000E+00 -0.3295556E-31
 0.3013000E+00 -0.3487086E-30
 0.3024000E+00 -0.5774937E-30
 0.3035000E+00 -0.5711710E-30
 0.3046000E+00 -0.2613360E-30
 0.3057000E+00  0.2802076E-30
 0.3068000E+00  0.8374870E-30
 0.3079000E+00  0.1121809E-29
 0.3090000E+00  0.9028646E-30
 0.3101000E+00  0.1473644E-30
 0.3112000E+00 -0.9060388E-30
 0.3123000E+00 -0.1793531E-29
 0.3134000E+00 -0.2004774E-29
 0.3145000E+00 -0.1236782E-29
 0.3156000E+00  0.3891914E-30
 0.3167000E+00  0.2271896E-29
 0.3178000E+00  0.3509401E-29
 0.3189000E+00  0.3284557E-29
 0.3200000E+00  0.1311872E-29
 0.3211000E+00 -0.1870230E-29
 0.3222000E+00 -0.4955340E-29
 0.3233000E+00 -0.6337218E-29
 0.3244000E+00 -0.4857016E-29
 0.3255000E+00 -0.5166257E-30
 0.3266000E+00  0.5218929E-29
 0.3277000E+00  0.9792443E-29
 0.3288000E+00  0.1058121E-28
 0.3299000E+00  0.6219558E-29
 0.3310000E+00 -0.2386132E-29
 0.3321000E+00 -0.1194693E-28
 0.3332000E+00 -0.1786800E-28
 0.3343000E+00 -0.1625731E-28
 0.3354000E+00 -0.6072039E-29
 0.3365000E+00  0.9655758E-29
 0.3376000E+00  0.2436081E-28
 0.3387000E+00  0.3040521E-28
 0.3398000E+00  0.2267120E-28
 0.3409000E+00  0.1738651E-29
 0.3420000E+00 -0.2505555E-28
 0.3431000E+00 -0.4570735E-28
 0.3442000E+00 -0.4846698E-28
 0.3453000E+00 -0.2777449E-28
 0.3464000E+00  0.1153517E-28
 0.3475000E+00  0.5425820E-28
 0.3486000E+00  0.8002516E-28
 0.3497000E+00  0.7224842E-28
 0.3508000E+00  0.2719166E-28
 0.3519000E+00 -0.4132334E-28
 0.3530000E+00 -0.1048695E-27
 0.3541000E+00 -0.1312340E-27
 0.3552000E+00 -0.9945223E-28
 0.3563000E+00 -0.1252873E-28
 0.3574000E+00  0.9892606E-28
 0.3585000E+00  0.1858600E-27
 0.3596000E+00  0.2009218E-27
 0.3607000E+00  0.1219694E-27
 0.3618000E+00 -0.3190620E-28
 0.3629000E+00 -0.2012413E-27
 0.3640000E+00 -0.3069795E-27
 0.3651000E+00 -0.2850490E-27
 0.3662000E+00 -0.1206172E-27
 0.3673000E+00  0.1347806E-27
 0.3684000E+00  0.3750303E-27
 0.3695000E+00  0.4801699E-27
 0.3706000E+00  0.3719761E-27
 0.3717000E+00  0.6030858E-28
 0.3728000E+00 -0.3441233E-27
 0.3739000E+00 -0.6633589E-27
 0.3750000E+00 -0.7249529E-27
 0.3761000E+00 -0.4463697E-27
 0.3772000E+00  0.1074455E-27
 0.3783000E+00  0.7261978E-27
 0.3794000E+00  0.1126485E-26
 0.3805000E+00  0.1072883E-26
 0.3816000E+00  0.4992404E-27
 0.3827000E+00 -0.4275848E-27
 0.3838000E+00 -0.1342486E-26
 0.3849000E+00 -0.1816945E-26
 0.3860000E+00 -0.1548284E-26
 0.3871000E+00 -0.5237805E-27
 0.3882000E+00  0.9220911E-27
 0.3893000E+00  0.2202824E-26
 0.3904000E+00  0.2709009E-26
 0.3915000E+00  0.2086767E-26
 0.3926000E+00  0.4432972E-27
 0.3937000E+00 -0.1628846E-26
 0.3948000E+00 -0.3249912E-26
 0.3959000E+00 -0.3616987E-26
 0.3970000E+00 -0.2390029E-26
 0.3981000E+00  0.7782111E-28
 0.3992000E+00  0.2799110E-26
 0.4003000E+00  0.4519269E-26
 0.4014000E+00  0.4269189E-26
 0.4025000E+00  0.1872817E-26
 0.4036000E+00 -0.1837312E-26
 0.4047000E+00 -0.5247080E-26
 0.4058000E+00 -0.6597751E-26
 0.4069000E+00 -0.4802530E-26
 0.4080000E+00 -0.8981399E-28
 0.4091000E+00  0.5857825E-26
 0.4102000E+00  0.1042055E-25
 0.4113000E+00  0.1108709E-25
 0.4124000E+00  0.6637861E-26
 0.4135000E+00 -0.2053209E-26
 0.4146000E+00 -0.1202572E-25
 0.4157000E+00 -0.1917680E-25
 0.4168000E+00 -0.1986686E-25
 0.4179000E+00 -0.1257400E-25
 0.4190000E+00  0.1126919E-26
 0.4201000E+00  0.1678462E-25
 0.4212000E+00  0.2855404E-25
 0.4223000E+00  0.3145325E-25
 0.4234000E+00  0.2350423E-25
 0.4245000E+00  0.6813861E-26
 0.4256000E+00 -0.1298486E-25
 0.4267000E+00 -0.2884295E-25
 0.4278000E+00 -0.3516358E-25
 0.4289000E+00 -0.3020947E-25
 0.4300000E+00 -0.1691651E-25
 0.4311000E+00 -0.1599122E-26
 0.4322000E+00  0.9033415E-26
 0.4333000E+00  0.1127781E-25
 0.4344000E+00  0.6620649E-26
 0.4355000E+00  0.1438114E-26
 0.4366000E+00  0.3971809E-26
 0.4377000E+00  0.1964402E-25
 0.4388000E+00  0.4678292E-25
 0.4399000E+00  0.7502192E-25
 0.4410000E+00  0.8779465E-25
 0.4421000E+00  0.6869004E-25
 0.4432000E+00  0.9583796E-26
 0.4443000E+00 -0.8276985E-25
 0.4454000E+00 -0.1849702E-24
 0.4465000E+00 -0.2618328E-24
 0.4476000E+00 -0.2771952E-24
 0.4487000E+00 -0.2073987E-24
 0.4498000E+00 -0.5259614E-25
 0.4509000E+00  0.1587571E-24
 0.4520000E+00  0.3747710E-24
 0.4531000E+00  0.5335674E-24
 0.4542000E+00  0.5812502E-24
 0.4553000E+00  0.4884582E-24
 0.4564000E+00  0.2599197E-24
 0.4575000E+00 -0.6601505E-25
 0.4586000E+00 -0.4271359E-24
 0.4597000E+00 -0.7523366E-24
 0.4608000E+00 -0.9761975E-24
 0.4619000E+00 -0.1048687E-23
 0.4630000E+00 -0.9386554E-24
 0.4641000E+00 -0.6335291E-24
 0.4652000E+00 -0.1398902E-24
 0.4663000E+00  0.5109562E-24
 0.4674000E+00  0.1252058E-23
 0.4685000E+00  0.1969529E-23
 0.4696000E+00  0.2500327E-23
 0.4707000E+00  0.2649254E-23
 0.4718000E+00  0.2230743E-23
 0.4729000E+00  0.1131642E-23
 0.4740000E+00 -0.6200120E-24
 0.4751000E+00 -0.2803909E-23
 0.4762000E+00 -0.4999481E-23
 0.4773000E+00 -0.6638824E-23
 0.4784000E+00 -0.7122187E-23
 0.4795000E+00 -0.5977138E-23
 0.4806000E+00 -0.3024214E-23
 0.4817000E+00  0.1497838E-23
 0.4828000E+00  0.6890740E-23
 0.4839000E+00  0.1206620E-22
 0.4850000E+00  0.1572727E-22
 0.4861000E+00  0.1663428E-22
 0.4872000E+00  0.1390522E-22
 0.4883000E+00  0.7288379E-23
 0.4894000E+00 -0.2653791E-23
 0.4905000E+00 -0.1449798E-22
 0.4916000E+00 -0.2607873E-22
 0.4927000E+00 -0.3477702E-22
 0.4938000E+00 -0.3795834E-22
 0.4949000E+00 -0.3351433E-22
 0.4960000E+00 -0.2043534E-22
 0.4971000E+00  0.6854601E-24
 0.4982000E+00  0.2733707E-22
 0.4993000E+00  0.5509159E-22
 0.5004000E+00  0.7802706E-22
 0.5015000E+00  0.8961917E-22
 0.5026000E+00  0.8405168E-22
 0.5037000E+00  0.5777082E-22
 0.5048000E+00  0.1098406E-22
 0.5059000E+00 -0.5128360E-22
 0.5070000E+00 -0.1189744E-21
 0.5081000E+00 -0.1779305E-21
 0.5092000E+00 -0.2120787E-21
 0.5103000E+00 -0.2066887E-21
 0.5114000E+00 -0.1522074E-21
 0.5125000E+00 -0.4790355E-22
 0.5136000E+00  0.9559557E-22
 0.5147000E+00  0.2557548E-21
 0.5158000E+00  0.4002015E-21
 0.5169000E+00  0.4915931E-21
 0.5180000E+00  0.4948692E-21
 0.5191000E+00  0.3858409E-21
 0.5202000E+00  0.1595224E-21
 0.5213000E+00 -0.1637169E-21
 0.5224000E+00 -0.5361011E-21
 0.5235000E+00 -0.8860045E-21
 0.5246000E+00 -0.1127784E-20
 0.5257000E+00 -0.1177359E-20
 0.5268000E+00 -0.9716170E-21
 0.5279000E+00 -0.4883409E-21
 0.5290000E+00  0.2376504E-21
 0.5301000E+00  0.1106817E-20
 0.5312000E+00  0.1959747E-20
 0.5323000E+00  0.2596944E-20
 0.5334000E+00  0.2813219E-20
 0.5345000E+00  0.2442967E-20
 0.5356000E+00  0.1409027E-20
 0.5367000E+00 -0.2350364E-21
 0.5378000E+00 -0.2280768E-20
 0.5389000E+00 -0.4369373E-20
 0.5400000E+00 -0.6031987E-20
 0.5411000E+00 -0.6766430E-20
 0.5422000E+00 -0.6143077E-20
 0.5433000E+00 -0.3923770E-20
 0.5444000E+00 -0.1702895E-21
 0.5455000E+00  0.4685268E-20
 0.5466000E+00  0.9834899E-20
 0.5477000E+00  0.1417331E-19
 0.5488000E+00  0.1646660E-19
 0.5499000E+00  0.1559807E-19
 0.5510000E+00  0.1085738E-19
 0.5521000E+00  0.2219830E-20
 0.5532000E+00 -0.9450283E-20
 0.5543000E+00 -0.2233996E-19
 0.5554000E+00 -0.3382627E-19
 0.5565000E+00 -0.4083960E-19
 0.5576000E+00 -0.4043451E-19
 0.5587000E+00 -0.3049964E-19
 0.5598000E+00 -0.1048699E-19
 0.5609000E+00  0.1799836E-19
 0.5620000E+00  0.5092286E-19
 0.5631000E+00  0.8201848E-19
 0.5642000E+00  0.1035422E-18
 0.5653000E+00  0.1075980E-18
 0.5664000E+00  0.8789250E-19
 0.5675000E+00  0.4165620E-19
 0.5686000E+00 -0.2864985E-19
 0.5697000E+00 -0.1142940E-18
 0.5708000E+00 -0.2003350E-18
 0.5719000E+00 -0.2671049E-18
 0.5730000E+00 -0.2932132E-18
 0.5741000E+00 -0.2598629E-18
 0.5752000E+00 -0.1559113E-18
 0.5763000E+00  0.1722773E-19
 0.5774000E+00  0.2419821E-18
 0.5785000E+00  0.4835251E-18
 0.5796000E+00  0.6921979E-18
 0.5807000E+00  0.8100005E-18
 0.5818000E+00  0.7809706E-18
 0.5829000E+00  0.5643558E-18
 0.5840000E+00  0.1485378E-18
 0.5851000E+00 -0.4371313E-18
 0.5862000E+00 -0.1115840E-17
 0.5873000E+00 -0.1765270E-17
 0.5884000E+00 -0.2230215E-17
 0.5895000E+00 -0.2346419E-17
 0.5906000E+00 -0.1973967E-17
 0.5917000E+00 -0.1035916E-17
 0.5928000E+00  0.4445917E-18
 0.5939000E+00  0.2317286E-17
 0.5950000E+00  0.4296814E-17
 0.5961000E+00  0.5981621E-17
 0.5972000E+00  0.6904029E-17
 0.5983000E+00  0.6610560E-17
 0.5994000E+00  0.4764792E-17
 0.6005000E+00  0.1257819E-17
 0.6016000E+00 -0.3694892E-17
 0.6027000E+00 -0.9495200E-17
 0.6038000E+00 -0.1516709E-16
 0.6049000E+00 -0.1944352E-16
 0.6060000E+00 -0.2094278E-16
 0.6071000E+00 -0.1842557E-16
 0.6082000E+00 -0.1110396E-16
 0.6093000E+00  0.1046085E-17
 0.6104000E+00  0.1703297E-16
 0.6115000E+00  0.3473042E-16
 0.6126000E+00  0.5095770E-16
 0.6137000E+00  0.6180527E-16
 0.6148000E+00  0.6321592E-16
 0.6159000E+00  0.5178160E-16
 0.6170000E+00  0.2565978E-16
 0.6181000E+00 -0.1454139E-16
 0.6192000E+00 -0.6510038E-16
 0.6203000E+00 -0.1189472E-15
 0.6214000E+00 -0.1660381E-15
 0.6225000E+00 -0.1944547E-15
 0.6236000E+00 -0.1922324E-15
 0.6247000E+00 -0.1497767E-15
 0.6258000E+00 -0.6256465E-16
 0.6269000E+00  0.6632006E-16
 0.6280000E+00  0.2243784E-15
 0.6291000E+00  0.3891995E-15
 0.6302000E+00  0.5297853E-15
 0.6313000E+00  0.6099978E-15
 0.6324000E+00  0.5941099E-15
 0.6335000E+00  0.4540188E-15
 0.6346000E+00  0.1772179E-15
 0.6357000E+00 -0.2257972E-15
 0.6368000E+00 -0.7163119E-15
 0.6379000E+00 -0.1226055E-14
 0.6390000E+00 -0.1661194E-14
 0.6401000E+00 -0.1912526E-14
 0.6412000E+00 -0.1871799E-14
 0.6423000E+00 -0.1452907E-14
 0.6434000E+00 -0.6153878E-15
 0.6445000E+00  0.6135476E-15
 0.6456000E+00  0.2123081E-14
 0.6467000E+00  0.3713809E-14
 0.6478000E+00  0.5107989E-14
 0.6489000E+00  0.5977681E-14
 0.6500000E+00  0.5990952E-14
 0.6511000E+00  0.4872939E-14
 0.6522000E+00  0.2474932E-14
 0.6533000E+00 -0.1158980E-14
 0.6544000E+00 -0.5740704E-14
 0.6555000E+00 -0.1071649E-13
 0.6566000E+00 -0.1528755E-13
 0.6577000E+00 -0.1848189E-13
 0.6588000E+00 -0.1927923E-13
 0.6599000E+00 -0.1678228E-13
 0.6610000E+00 -0.1041697E-13
 0.6621000E+00 -0.1341686E-15
 0.6632000E+00  0.1342269E-13
 0.6643000E+00  0.2882402E-13
 0.6654000E+00  0.4387265E-13
 0.6665000E+00  0.5576409E-13
 0.6676000E+00  0.6140137E-13
 0.6687000E+00  0.5785420E-13
 0.6698000E+00  0.4292397E-13
 0.6709000E+00  0.1574668E-13
 0.6720000E+00 -0.2265991E-13
 0.6731000E+00 -0.6901557E-13
 0.6742000E+00 -0.1176766E-12
 0.6753000E+00 -0.1609116E-12
 0.6764000E+00 -0.1896134E-12
 0.6775000E+00 -0.1944510E-12
 0.6786000E+00 -0.1673891E-12
 0.6797000E+00 -0.1034240E-12
 0.6808000E+00 -0.2305648E-14
 0.6819000E+00  0.1300439E-12
 0.6830000E+00  0.2807369E-12
 0.6841000E+00  0.4300530E-12
 0.6852000E+00  0.5527358E-12
 0.6863000E+00  0.6205601E-12
 0.6874000E+00  0.6061036E-12
 0.6885000E+00  0.4874413E-12
 0.6896000E+00  0.2532581E-12
 0.6907000E+00 -0.9232580E-13
 0.6918000E+00 -0.5260670E-12
 0.6929000E+00 -0.1003941E-11
 0.6940000E+00 -0.1462319E-11
 0.6951000E+00 -0.1822559E-11
 0.6962000E+00 -0.1999194E-11
 0.6973000E+00 -0.1911399E-11
 0.6984000E+00 -0.1496836E-11
 0.6995000E+00 -0.7263682E-12
 0.7006000E+00  0.3823829E-12
 0.7017000E+00  0.1754975E-11
 0.7028000E+00  0.3256020E-11
 0.7039000E+00  0.4693143E-11
 0.7050000E+00  0.5830498E-11
 0.7061000E+00  0.6412299E-11
 0.7072000E+00  0.6195451E-11
 0.7083000E+00  0.4988786E-11
 0.7094000E+00  0.2694867E-11
 0.7105000E+00 -0.6510475E-12
 0.7116000E+00 -0.4851207E-11
 0.7127000E+00 -0.9531268E-11
 0.7138000E+00 -0.1414776E-10
 0.7149000E+00 -0.1802132E-10
 0.7160000E+00 -0.2039740E-10
 0.7171000E+00 -0.2053245E-10
 0.7182000E+00 -0.1780011E-10
 0.7193000E+00 -0.1180736E-10
 0.7204000E+00 -0.2507389E-11
 0.7215000E+00  0.9706839E-11
 0.7226000E+00  0.2394536E-10
 0.7237000E+00  0.3881636E-10
 0.7248000E+00  0.5248648E-10
 0.7259000E+00  0.6281327E-10
 0.7270000E+00  0.6754925E-10
 0.7281000E+00  0.6460741E-10
 0.7292000E+00  0.5236821E-10
 0.7303000E+00  0.2999852E-10
 0.7314000E+00 -0.2254871E-11
 0.7325000E+00 -0.4283904E-10
 0.7336000E+00 -0.8877857E-10
 0.7347000E+00 -0.1357066E-09
 0.7358000E+00 -0.1780712E-09
 0.7369000E+00 -0.2095281E-09
 0.7380000E+00 -0.2235141E-09
 0.7391000E+00 -0.2139695E-09
 0.7402000E+00 -0.1761576E-09
 0.7413000E+00 -0.1075072E-09
 0.7424000E+00 -0.8388567E-11
 0.7435000E+00  0.1172772E-09
 0.7446000E+00  0.2616755E-09
 0.7457000E+00  0.4131096E-09
 0.7468000E+00  0.5564347E-09
 0.7479000E+00  0.6739478E-09
 0.7490000E+00  0.7467243E-09
 0.7501000E+00  0.7563471E-09
 0.7512000E+00  0.6869215E-09
 0.7523000E+00  0.5272270E-09
 0.7534000E+00  0.2728194E-09
 0.7545000E+00 -0.7212288E-10
 0.7556000E+00 -0.4934209E-09
 0.7567000E+00 -0.9661821E-09
 0.7578000E+00 -0.1454917E-08
 0.7589000E+00 -0.1914595E-08
 0.7600000E+00 -0.2292693E-08
 0.7611000E+00 -0.2532199E-08
 0.7622000E+00 -0.2575456E-08
 0.7633000E+00 -0.2368661E-08
 0.7644000E+00 -0.1866747E-08
 0.7655000E+00 -0.1038343E-08
 0.7666000E+00  0.1295139E-09
 0.7677000E+00  0.1627226E-08
 0.7688000E+00  0.3419294E-08
 0.7699000E+00  0.5441961E-08
 0.7710000E+00  0.7601906E-08
 0.7721000E+00  0.9775935E-08
 0.7732000E+00  0.1181146E-07
 0.7743000E+00  0.1352743E-07
 0.7754000E+00  0.1471531E-07
 0.7765000E+00  0.1513934E-07
 0.7776000E+00  0.1453555E-07
 0.7787000E+00  0.1260851E-07
 0.7798000E+00  0.9025007E-08
 0.7809000E+00  0.3403812E-08
 0.7820000E+00 -0.4699488E-08
 0.7831000E+00 -0.1581336E-07
 0.7842000E+00 -0.3057776E-07
 0.7853000E+00 -0.4977890E-07
 0.7864000E+00 -0.7439245E-07
 0.7875000E+00 -0.1056360E-06
 0.7886000E+00 -0.1450321E-06
 0.7897000E+00 -0.1944824E-06
 0.7908000E+00 -0.2563554E-06
 0.7919000E+00 -0.3335884E-06
 0.7930000E+00 -0.4298059E-06
 0.7941000E+00 -0.5494568E-06
 0.7952000E+00 -0.6979722E-06
 0.7963000E+00 -0.8819480E-06
 0.7974000E+00 -0.1109356E-05
 0.7985000E+00 -0.1389783E-05
 0.7996000E+00 -0.1734711E-05
 0.8007000E+00 -0.2157831E-05
 0.8018000E+00 -0.2675403E-05
 0.8029000E+00 -0.3306661E-05
 0.8040000E+00 -0.4074276E-05
 0.8051000E+00 -0.5004859E-05
 0.8062000E+00 -0.6129540E-05
 0.8073000E+00 -0.7484594E-05
 0.8084000E+00 -0.9112138E-05
 0.8095000E+00 -0.1106088E-04
 0.8106000E+00 -0.1338694E-04
 0.8117000E+00 -0.1615468E-04
 0.8128000E+00 -0.1943769E-04
 0.8139000E+00 -0.2331966E-04
 0.8150000E+00 -0.2789544E-04
 0.8161000E+00 -0.3327199E-04
 0.8172000E+00 -0.3956942E-04
 0.8183000E+00 -0.4692195E-04
 0.8194000E+00 -0.5547884E-04
 0.8205000E+00 -0.6540523E-04
 0.8216000E+00 -0.7688289E-04
 0.8227000E+00 -0.9011080E-04
 0.8238000E+00 -0.1053056E-03
 0.8249000E+00 -0.1227016E-03
 0.8260000E+00 -0.1425508E-03
 0.8271000E+00 -0.1651226E-03
 0.8282000E+00 -0.1907024E-03
 0.8293000E+00 -0.2195908E-03
 0.8304000E+00 -0.2521018E-03
 0.8315000E+00 -0.2885601E-03
 0.8326000E+00 -0.3292984E-03
 0.8337000E+00 -0.3746540E-03
 0.8348000E+00 -0.4249641E-03
 0.8359000E+00 -0.4805610E-03
 0.8370000E+00 -0.5417669E-03
 0.8381000E+00 -0.6088865E-03
 0.8392000E+00 -0.6822009E-03
 0.8403000E+00 -0.7619591E-03
 0.8414000E+00 -0.8483698E-03
 0.8425000E+00 -0.9415927E-03
 0.8436000E+00 -0.1041729E-02
 0.8447000E+00 -0.1148810E-02
 0.8458000E+00 -0.1262791E-02
 0.8469000E+00 -0.1383538E-02
 0.8480000E+00 -0.1510820E-02
 0.8491000E+00 -0.1644298E-02
 0.8502000E+00 -0.1783517E-02
 0.8513000E+00 -0.1927900E-02
 0.8524000E+00 -0.2076736E-02
 0.8535000E+00 -0.2229184E-02
 0.8546000E+00 -0.2384261E-02
 0.8557000E+00 -0.2540843E-02
 0.8568000E+00 -0.2697667E-02
 0.8579000E+00 -0.2853334E-02
 0.8590000E+00 -0.3006312E-02
 0.8601000E+00 -0.3154946E-02
 0.8612000E+00 -0.3297470E-02
 0.8623000E+00 -0.3432020E-02
 0.8634000E+00 -0.3556652E-02
 0.8645000E+00 -0.3669360E-02
 0.8656000E+00 -0.3768102E-02
 0.8667000E+00 -0.3850819E-02
 0.8678000E+00 -0.3915470E-02
 0.8689000E+00 -0.3960058E-02
 0.8700000E+00 -0.3982659E-02
 0.8711000E+00 -0.3981459E-02
 0.8722000E+00 -0.3954782E-02
 0.8733000E+00 -0.3901127E-02
 0.8744000E+00 -0.3819195E-02
 0.8755000E+00 -0.3707924E-02
 0.8766000E+00 -0.3566517E-02
 0.8777000E+00 -0.3394464E-02
 0.8788000E+00 -0.3191577E-02
 0.8799000E+00 -0.2957995E-02
 0.8810000E+00 -0.2694209E-02
 0.8821000E+00 -0.2401070E-02
 0.8832000E+00 -0.2079789E-02
 0.8843000E+00 -0.1731942E-02
 0.8854000E+00 -0.1359459E-02
 0.8865000E+00 -0.9646191E-03
 0.8876000E+00 -0.5500259E-03
 0.8887000E+00 -0.1185871E-03
 0.8898000E+00  0.3265172E-03
 0.8909000E+00  0.7818697E-03
 0.8920000E+00  0.1243855E-02
 0.8931000E+00  0.1708701E-02
 0.8942000E+00  0.2172529E-02
 0.8953000E+00  0.2631398E-02
 0.8964000E+00  0.3081358E-02
 0.8975000E+00  0.3518504E-02
 0.8986000E+00  0.3939027E-02
 0.8997000E+00  0.4339267E-02
 0.9008000E+00  0.4715756E-02
 0.9019000E+00  0.5065272E-02
 0.9030000E+00  0.5384872E-02
 0.9041000E+00  0.5671940E-02
 0.9052000E+00  0.5924212E-02
 0.9063000E+00  0.6139812E-02
 0.9074000E+00  0.6317265E-02
 0.9085000E+00  0.6455520E-02
 0.9096000E+00  0.6553951E-02
 0.9107000E+00  0.6612362E-02
 0.9118000E+00  0.6630983E-02
 0.9129000E+00  0.6610456E-02
 0.9140000E+00  0.6551825E-02
 0.9151000E+00  0.6456504E-02
 0.9162000E+00  0.6326255E-02
 0.9173000E+00  0.6163153E-02
 0.9184000E+00  0.5969549E-02
 0.9195000E+00  0.5748031E-02
 0.9206000E+00  0.5501387E-02
 0.9217000E+00  0.5232557E-02
 0.9228000E+00  0.4944594E-02
 0.9239000E+00  0.4640618E-02
 0.9250000E+00  0.4323775E-02
 0.9261000E+00  0.3997194E-02
 0.9272000E+00  0.3663949E-02
 0.9283000E+00  0.3327022E-02
 0.9294000E+00  0.2989277E-02
 0.9305000E+00  0.2653426E-02
 0.9316000E+00  0.2322004E-02
 0.9327000E+00  0.1997350E-02
 0.9338000E+00  0.1681588E-02
 0.9349000E+00  0.1376614E-02
 0.9360000E+00  0.1084089E-02
 0.9371000E+00  0.8054335E-03
 0.9382000E+00  0.5418305E-03
 0.9393000E+00  0.2942267E-03
 0.9404000E+00  0.6333832E-04
 0.9415000E+00 -0.1503405E-03
 0.9426000E+00 -0.3465271E-03
 0.9437000E+00 -0.5251358E-03
 0.9448000E+00 -0.6862622E-03
 0.9459000E+00 -0.8301653E-03
 0.9470000E+00 -0.9572505E-03
 0.9481000E+00 -0.1068051E-02
 0.9492000E+00 -0.1163211E-02
 0.9503000E+00 -0.1243469E-02
 0.9514000E+00 -0.1309639E-02
 0.9525000E+00 -0.1362591E-02
 0.9536000E+00 -0.1403239E-02
 0.9547000E+00 -0.1432521E-02
 0.9558000E+00 -0.1451387E-02
 0.9569000E+00 -0.1460789E-02
 0.9580000E+00 -0.1461665E-02
 0.9591000E+00 -0.1454936E-02
 0.9602000E+00 -0.1441492E-02
 0.9613000E+00 -0.1422184E-02
 0.9624000E+00 -0.1397824E-02
 0.9635000E+00 -0.1369171E-02
 0.9646000E+00 -0.1336940E-02
 0.9657000E+00 -0.1301788E-02
 0.9668000E+00 -0.1264323E-02
 0.9679000E+00 -0.1225098E-02
 0.9690000E+00 -0.1184611E-02
 0.9701000E+00 -0.1143308E-02
 0.9712000E+00 -0.1101583E-02
 0.9723000E+00 -0.1059783E-02
 0.9734000E+00 -0.1018209E-02
 0.9745000E+00 -0.9771205E-03
 0.9756000E+00 -0.9367355E-03
 0.9767000E+00 -0.8972373E-03
 0.9778000E+00 -0.8587748E-03
 0.9789000E+00 -0.8214668E-03