-0.1200000E+00  0.0000000E+00
-0.1189000E+00  0.0000000E+00
-0.1178000E+00  0.0000000E+00
-0.1167000E+00  0.0000000E+00
-0.1156000E+00  0.0000000E+00
-0.1145000E+00  0.0000000E+00
-0.1134000E+00  0.0000000E+00
-0.1123000E+00  0.0000000E+00
-0.1112000E+00  0.0000000E+00
-0.1101000E+00  0.0000000E+00
-0.1090000E+00  0.0000000E+00
-0.1079000E+00  0.0000000E+00
-0.1068000E+00  0.0000000E+00
-0.1057000E+00  0.0000000E+00
-0.1046000E+00  0.0000000E+00
-0.1035000E+00  0.0000000E+00
-0.1024000E+00  0.0000000E+00
-0.1013000E+00  0.0000000E+00
-0.1002000E+00  0.0000000E+00
-0.9910000E-01  0.0000000E+00
-0.9800000E-01  0.0000000E+00
-0.9690000E-01  0.0000000E+00
-0.9580000E-01  0.0000000E+00
-0.9470000E-01  0.0000000E+00
-0.9360000E-01  0.0000000E+00
-0.9250000E-01  0.0000000E+00
-0.9140000E-01  0.0000000E+00
-0.9030000E-01  0.0000000E+00
-0.8920000E-01  0.0000000E+00
-0.8810000E-01  0.0000000E+00
-0.8700000E-01  0.0000000E+00
-0.8590000E-01  0.0000000E+00
-0.8480000E-01  0.0000000E+00
-0.8370000E-01  0.0000000E+00
-0.8260000E-01 -0.0000000E+00
-0.8150000E-01 -0.0000000E+00
-0.8040000E-01  0.0000000E+00
-0.7930000E-01  0.0000000E+00
-0.7820000E-01 -0.0000000E+00
-0.7710000E-01 -0.0000000E+00
-0.7600000E-01 -0.0000000E+00
-0.7490000E-01 -0.0000000E+00
-0.7380000E-01  0.2554975E-37
-0.7270000E-01  0.9446497E-37
-0.7160000E-01  0.1949647E-36
-0.7050000E-01  0.1532411E-36
-0.6940000E-01 -0.4350678E-36
-0.6830000E-01 -0.1999437E-35
-0.6720000E-01 -0.4040165E-35
-0.6610000E-01 -0.3540489E-35
-0.6500000E-01  0.5838457E-35
-0.6390000E-01  0.3008189E-34
-0.6280000E-01  0.6229982E-34
-0.6170000E-01  0.6290299E-34
-0.6060000E-01 -0.4924852E-34
-0.5950000E-01 -0.3537254E-33
-0.5840000E-01 -0.7896808E-33
-0.5730000E-01 -0.9410157E-33
-0.5620000E-01  0.7148000E-34
-0.5510000E-01  0.3201987E-32
-0.5400000E-01  0.8188348E-32
-0.5290000E-01  0.1150109E-31
-0.5180000E-01  0.5042824E-32
-0.5070000E-01 -0.2118045E-31
-0.4960000E-01 -0.6889780E-31
-0.4850000E-01 -0.1143337E-30
-0.4740000E-01 -0.9430504E-31
-0.4630000E-01  0.8090319E-31
-0.4520000E-01  0.4600541E-30
-0.4410000E-01  0.9241519E-30
-0.4300000E-01  0.1059910E-29
-0.4190000E-01  0.1832488E-30
-0.4080000E-01 -0.2289103E-29
-0.3970000E-01 -0.6030394E-29
-0.3860000E-01 -0.8829423E-29
-0.3750000E-01 -0.6284581E-29
-0.3640000E-01  0.6582233E-29
-0.3530000E-01  0.3090103E-28
-0.3420000E-01  0.5758881E-28
-0.3310000E-01  0.6302436E-28
-0.3200000E-01  0.1370760E-28
-0.3090000E-01 -0.1134746E-27
-0.2980000E-01 -0.2959662E-27
-0.2870000E-01 -0.4309914E-27
-0.2760000E-01 -0.3352210E-27
-0.2650000E-01  0.1813596E-27
-0.2540000E-01  0.1150617E-26
-0.2430000E-01  0.2237724E-26
-0.2320000E-01  0.2626739E-26
-0.2210000E-01  0.1202445E-26
-0.2100000E-01 -0.2815115E-26
-0.1990000E-01 -0.8854626E-26
-0.1880000E-01 -0.1406335E-25
-0.1770000E-01 -0.1332469E-25
-0.1660000E-01 -0.1146918E-26
-0.1550000E-01  0.2429136E-25
-0.1440000E-01  0.5612377E-25
-0.1330000E-01  0.7587246E-25
-0.1220000E-01  0.5684778E-25
-0.1110000E-01 -0.2300574E-25
-0.1000000E-01 -0.1601947E-24
-0.8900000E-02 -0.3054191E-24
-0.7800000E-02 -0.3597066E-24
-0.6700000E-02 -0.2037799E-24
-0.5600000E-02  0.2329589E-24
-0.4500000E-02  0.8810826E-24
-0.3400000E-02  0.1464730E-23
-0.2300000E-02  0.1527165E-23
-0.1200000E-02  0.6027407E-24
-0.1000000E-03 -0.1470787E-23
 0.1000000E-02 -0.4207377E-23
 0.2100000E-02 -0.6305571E-23
 0.3200000E-02 -0.5903011E-23
 0.4300000E-02 -0.1389098E-23
 0.5400000E-02  0.7362195E-23
 0.6500000E-02  0.1785073E-22
 0.7600000E-02  0.2470322E-22
 0.8700000E-02  0.2108951E-22
 0.9800000E-02  0.2016269E-23
 0.1090000E-01 -0.3133933E-22
 0.1200000E-01 -0.6828880E-22
 0.1310000E-01 -0.8898800E-22
 0.1420000E-01 -0.7059600E-22
 0.1530000E-01  0.9187593E-24
 0.1640000E-01  0.1170071E-21
 0.1750000E-01  0.2378600E-21
 0.1860000E-01  0.2969670E-21
 0.1970000E-01  0.2239056E-21
 0.2080000E-01 -0.1752982E-22
 0.2190000E-01 -0.3893008E-21
 0.2300000E-01 -0.7591021E-21
 0.2410000E-01 -0.9225713E-21
 0.2520000E-01 -0.6777156E-21
 0.2630000E-01  0.6273229E-22
 0.2740000E-01  0.1163868E-20
 0.2850000E-01  0.2227751E-20
 0.2960000E-01  0.2674571E-20
 0.3070000E-01  0.1961508E-20
 0.3180000E-01 -0.1124167E-21
 0.3290000E-01 -0.3137743E-20
 0.3400000E-01 -0.6021491E-20
 0.3510000E-01 -0.7237058E-20
 0.3620000E-01 -0.5410915E-20
 0.3730000E-01 -0.8953717E-22
 0.3840000E-01  0.7630844E-20
 0.3950000E-01  0.1499189E-19
 0.4060000E-01  0.1825026E-19
 0.4170000E-01  0.1412418E-19
 0.4280000E-01  0.1592154E-20
 0.4390000E-01 -0.1671370E-19
 0.4500000E-01 -0.3436546E-19
 0.4610000E-01 -0.4279107E-19
 0.4720000E-01 -0.3457828E-19
 0.4830000E-01 -0.7427055E-20
 0.4940000E-01  0.3292606E-19
 0.5050000E-01  0.7257606E-19
 0.5160000E-01  0.9313311E-19
 0.5270000E-01  0.7876109E-19
 0.5380000E-01  0.2435981E-19
 0.5490000E-01 -0.5858050E-19
 0.5600000E-01 -0.1419314E-18
 0.5710000E-01 -0.1885315E-18
 0.5820000E-01 -0.1662884E-18
 0.5930000E-01 -0.6425704E-19
 0.6040000E-01  0.9608478E-19
 0.6150000E-01  0.2609215E-18
 0.6260000E-01  0.3587999E-18
 0.6370000E-01  0.3274758E-18
 0.6480000E-01  0.1442502E-18
 0.6590000E-01 -0.1528287E-18
 0.6700000E-01 -0.4648725E-18
 0.6810000E-01 -0.6589633E-18
 0.6920000E-01 -0.6172866E-18
 0.7030000E-01 -0.2929503E-18
 0.7140000E-01  0.2501509E-18
 0.7250000E-01  0.8349821E-18
 0.7360000E-01  0.1217376E-17
 0.7470000E-01  0.1173216E-17
 0.7580000E-01  0.6002310E-18
 0.7690000E-01 -0.4050330E-18
 0.7800000E-01 -0.1533870E-17
 0.7910000E-01 -0.2337574E-17
 0.8020000E-01 -0.2377004E-17
 0.8130000E-01 -0.1407772E-17
 0.8240000E-01  0.4653947E-18
 0.8350000E-01  0.2735213E-17
 0.8460000E-01  0.4586116E-17
 0.8570000E-01  0.5136050E-17
 0.8680000E-01  0.3767989E-17
 0.8790000E-01  0.4449902E-18
 0.8900000E-01 -0.4116198E-17
 0.9010000E-01 -0.8514043E-17
 0.9120000E-01 -0.1100782E-16
 0.9230000E-01 -0.1007965E-16
 0.9340000E-01 -0.5059437E-17
 0.9450000E-01  0.3399789E-17
 0.9560000E-01  0.1320436E-16
 0.9670000E-01  0.2119031E-16
 0.9780000E-01  0.2396942E-16
 0.9890000E-01  0.1906969E-16
 0.1000000E+00  0.6043456E-17
 0.1011000E+00 -0.1284913E-16
 0.1022000E+00 -0.3272046E-16
 0.1033000E+00 -0.4705771E-16
 0.1044000E+00 -0.4952809E-16
 0.1055000E+00 -0.3616739E-16
 0.1066000E+00 -0.7302254E-17
 0.1077000E+00  0.3150665E-16
 0.1088000E+00  0.7005071E-16
 0.1099000E+00  0.9575059E-16
 0.1110000E+00  0.9725279E-16
 0.1121000E+00  0.6843993E-16
 0.1132000E+00  0.1160213E-16
 0.1143000E+00 -0.6148258E-16
 0.1154000E+00 -0.1313773E-15
 0.1165000E+00 -0.1757294E-15
 0.1176000E+00 -0.1759334E-15
 0.1187000E+00 -0.1238477E-15
 0.1198000E+00 -0.2629650E-16
 0.1209000E+00  0.9459956E-16
 0.1220000E+00  0.2061407E-15
 0.1231000E+00  0.2740740E-15
 0.1242000E+00  0.2735144E-15
 0.1253000E+00  0.1982195E-15
 0.1264000E+00  0.6464907E-16
 0.1275000E+00 -0.9145394E-16
 0.1286000E+00 -0.2258007E-15
 0.1297000E+00 -0.3006063E-15
 0.1308000E+00 -0.2987253E-15
 0.1319000E+00 -0.2310578E-15
 0.1330000E+00 -0.1330697E-15
 0.1341000E+00 -0.5000727E-16
 0.1352000E+00 -0.1515531E-16
 0.1363000E+00 -0.2955278E-16
 0.1374000E+00 -0.5305947E-16
 0.1385000E+00 -0.1427532E-16
 0.1396000E+00  0.1594944E-15
 0.1407000E+00  0.4996704E-15
 0.1418000E+00  0.9566785E-15
 0.1429000E+00  0.1382393E-14
 0.1440000E+00  0.1550997E-14
 0.1451000E+00  0.1223719E-14
 0.1462000E+00  0.2465442E-15
 0.1473000E+00 -0.1347123E-14
 0.1484000E+00 -0.3268165E-14
 0.1495000E+00 -0.4976638E-14
 0.1506000E+00 -0.5783181E-14
 0.1517000E+00 -0.5041543E-14
 0.1528000E+00 -0.2391859E-14
 0.1539000E+00  0.2015899E-14
 0.1550000E+00  0.7402027E-14
 0.1561000E+00  0.1241199E-13
 0.1572000E+00  0.1537701E-13
 0.1583000E+00  0.1475046E-13
 0.1594000E+00  0.9625181E-14
 0.1605000E+00  0.1873574E-15
 0.1616000E+00 -0.1205016E-13
 0.1627000E+00 -0.2435852E-13
 0.1638000E+00 -0.3329110E-13
 0.1649000E+00 -0.3550426E-13
 0.1660000E+00 -0.2872643E-13
 0.1671000E+00 -0.1262559E-13
 0.1682000E+00  0.1069028E-13
 0.1693000E+00  0.3674480E-13
 0.1704000E+00  0.5941530E-13
 0.1715000E+00  0.7221665E-13
 0.1726000E+00  0.6989477E-13
 0.1737000E+00  0.4996223E-13
 0.1748000E+00  0.1377938E-13
 0.1759000E+00 -0.3314603E-13
 0.1770000E+00 -0.8180854E-13
 0.1781000E+00 -0.1212595E-12
 0.1792000E+00 -0.1408072E-12
 0.1803000E+00 -0.1324362E-12
 0.1814000E+00 -0.9294464E-13
 0.1825000E+00 -0.2532275E-13
 0.1836000E+00  0.6097572E-13
 0.1847000E+00  0.1510245E-12
 0.1858000E+00  0.2266101E-12
 0.1869000E+00  0.2693323E-12
 0.1880000E+00  0.2641670E-12
 0.1891000E+00  0.2029327E-12
 0.1902000E+00  0.8705191E-13
 0.1913000E+00 -0.7096768E-13
 0.1924000E+00 -0.2478089E-12
 0.1935000E+00 -0.4116670E-12
 0.1946000E+00 -0.5266345E-12
 0.1957000E+00 -0.5588142E-12
 0.1968000E+00 -0.4834249E-12
 0.1979000E+00 -0.2917754E-12
 0.1990000E+00  0.3297816E-14
 0.2001000E+00  0.3650117E-12
 0.2012000E+00  0.7344965E-12
 0.2023000E+00  0.1037633E-11
 0.2034000E+00  0.1196685E-11
 0.2045000E+00  0.1145486E-11
 0.2056000E+00  0.8458361E-12
 0.2067000E+00  0.3019712E-12
 0.2078000E+00 -0.4304144E-12
 0.2089000E+00 -0.1243755E-11
 0.2100000E+00 -0.1988894E-11
 0.2111000E+00 -0.2496375E-11
 0.2122000E+00 -0.2606817E-11
 0.2133000E+00 -0.2206151E-11
 0.2144000E+00 -0.1259528E-11
 0.2155000E+00  0.1634095E-12
 0.2166000E+00  0.1879038E-11
 0.2177000E+00  0.3601616E-11
 0.2188000E+00  0.4978926E-11
 0.2199000E+00  0.5649766E-11
 0.2210000E+00  0.5316468E-11
 0.2221000E+00  0.3820824E-11
 0.2232000E+00  0.1208420E-11
 0.2243000E+00 -0.2234761E-11
 0.2254000E+00 -0.5987556E-11
 0.2265000E+00 -0.9349221E-11
 0.2276000E+00 -0.1154521E-10
 0.2287000E+00 -0.1187211E-10
 0.2298000E+00 -0.9859755E-11
 0.2309000E+00 -0.5419699E-11
 0.2320000E+00  0.1054724E-11
 0.2331000E+00  0.8668716E-11
 0.2342000E+00  0.1610818E-10
 0.2353000E+00  0.2182744E-10
 0.2364000E+00  0.2432407E-10
 0.2375000E+00  0.2245925E-10
 0.2386000E+00  0.1576413E-10
 0.2397000E+00  0.4663777E-11
 0.2408000E+00 -0.9444509E-11
 0.2419000E+00 -0.2430192E-10
 0.2430000E+00 -0.3709783E-10
 0.2441000E+00 -0.4494732E-10
 0.2452000E+00 -0.4546374E-10
 0.2463000E+00 -0.3732154E-10
 0.2474000E+00 -0.2069014E-10
 0.2485000E+00  0.2570687E-11
 0.2496000E+00  0.2902888E-10
 0.2507000E+00  0.5413093E-10
 0.2518000E+00  0.7293759E-10
 0.2529000E+00  0.8103173E-10
 0.2540000E+00  0.7543614E-10
 0.2551000E+00  0.5535965E-10
 0.2562000E+00  0.2260482E-10
 0.2573000E+00 -0.1847714E-10
 0.2584000E+00 -0.6151930E-10
 0.2595000E+00 -0.9910114E-10
 0.2606000E+00 -0.1239931E-09
 0.2617000E+00 -0.1304721E-09
 0.2628000E+00 -0.1154702E-09
 0.2639000E+00 -0.7933579E-10
 0.2650000E+00 -0.2604888E-10
 0.2661000E+00  0.3717546E-10
 0.2672000E+00  0.1008566E-09
 0.2683000E+00  0.1546497E-09
 0.2694000E+00  0.1889651E-09
 0.2705000E+00  0.1965516E-09
 0.2716000E+00  0.1737956E-09
 0.2727000E+00  0.1215305E-09
 0.2738000E+00  0.4522193E-10
 0.2749000E+00 -0.4551926E-10
 0.2760000E+00 -0.1380554E-09
 0.2771000E+00 -0.2183505E-09
 0.2782000E+00 -0.2729214E-09
 0.2793000E+00 -0.2908785E-09
 0.2804000E+00 -0.2657911E-09
 0.2815000E+00 -0.1971110E-09
 0.2826000E+00 -0.9090369E-10
 0.2837000E+00  0.4030576E-10
 0.2848000E+00  0.1786804E-09
 0.2859000E+00  0.3031909E-09
 0.2870000E+00  0.3925321E-09
 0.2881000E+00  0.4284992E-09
 0.2892000E+00  0.3993435E-09
 0.2903000E+00  0.3025396E-09
 0.2914000E+00  0.1463981E-09
 0.2925000E+00 -0.4993558E-10
 0.2936000E+00 -0.2583357E-09
 0.2947000E+00 -0.4453453E-09
 0.2958000E+00 -0.5772173E-09
 0.2969000E+00 -0.6256360E-09
 0.2980000E+00 -0.5731877E-09
 0.2991000E+00 -0.4175823E-09
 0.3002000E+00 -0.1737415E-09
 0.3013000E+00  0.1268398E-09
 0.3024000E+00  0.4396266E-09
 0.3035000E+00  0.7131434E-09
 0.3046000E+00  0.8968437E-09
 0.3057000E+00  0.9495822E-09
 0.3068000E+00  0.8473364E-09
 0.3079000E+00  0.5888449E-09
 0.3090000E+00  0.1980749E-09
 0.3101000E+00 -0.2771358E-09
 0.3112000E+00 -0.7703546E-09
 0.3123000E+00 -0.1205229E-08
 0.3134000E+00 -0.1506464E-08
 0.3145000E+00 -0.1611566E-08
 0.3156000E+00 -0.1481561E-08
 0.3167000E+00 -0.1108928E-08
 0.3178000E+00 -0.5212726E-09
 0.3189000E+00  0.2201371E-09
 0.3200000E+00  0.1027118E-08
 0.3211000E+00  0.1795826E-08
 0.3222000E+00  0.2420946E-08
 0.3233000E+00  0.2810611E-08
 0.3244000E+00  0.2899573E-08
 0.3255000E+00  0.2658319E-08
 0.3266000E+00  0.2096482E-08
 0.3277000E+00  0.1259927E-08
 0.3288000E+00  0.2221655E-09
 0.3299000E+00 -0.9280109E-09
 0.3310000E+00 -0.2099895E-08
 0.3321000E+00 -0.3212072E-08
 0.3332000E+00 -0.4198724E-08
 0.3343000E+00 -0.5009333E-08
 0.3354000E+00 -0.5601732E-08
 0.3365000E+00 -0.5930214E-08
 0.3376000E+00 -0.5931978E-08
 0.3387000E+00 -0.5516141E-08
 0.3398000E+00 -0.4559603E-08
 0.3409000E+00 -0.2913167E-08
 0.3420000E+00 -0.4196892E-09
 0.3431000E+00  0.3056041E-08
 0.3442000E+00  0.7588112E-08
 0.3453000E+00  0.1314503E-07
 0.3464000E+00  0.1954494E-07
 0.3475000E+00  0.2641542E-07
 0.3486000E+00  0.3316181E-07
 0.3497000E+00  0.3894655E-07
 0.3508000E+00  0.4267955E-07
 0.3519000E+00  0.4301808E-07
 0.3530000E+00  0.3837196E-07
 0.3541000E+00  0.2690893E-07
 0.3552000E+00  0.6553208E-08
 0.3563000E+00 -0.2503010E-07
 0.3574000E+00 -0.7047325E-07
 0.3585000E+00 -0.1327754E-06
 0.3596000E+00 -0.2154128E-06
 0.3607000E+00 -0.3224975E-06
 0.3618000E+00 -0.4589936E-06
 0.3629000E+00 -0.6309954E-06
 0.3640000E+00 -0.8460719E-06
 0.3651000E+00 -0.1113677E-05
 0.3662000E+00 -0.1445623E-05
 0.3673000E+00 -0.1856621E-05
 0.3684000E+00 -0.2364874E-05
 0.3695000E+00 -0.2992740E-05
 0.3706000E+00 -0.3767465E-05
 0.3717000E+00 -0.4721996E-05
 0.3728000E+00 -0.5895912E-05
 0.3739000E+00 -0.7336472E-05
 0.3750000E+00 -0.9099845E-05
 0.3761000E+00 -0.1125251E-04
 0.3772000E+00 -0.1387292E-04
 0.3783000E+00 -0.1705333E-04
 0.3794000E+00 -0.2090198E-04
 0.3805000E+00 -0.2554549E-04
 0.3816000E+00 -0.3113149E-04
 0.3827000E+00 -0.3783157E-04
 0.3838000E+00 -0.4584446E-04
 0.3849000E+00 -0.5539939E-04
 0.3860000E+00 -0.6675980E-04
 0.3871000E+00 -0.8022713E-04
 0.3882000E+00 -0.9614496E-04
 0.3893000E+00 -0.1149031E-03
 0.3904000E+00 -0.1369422E-03
 0.3915000E+00 -0.1627577E-03
 0.3926000E+00 -0.1929051E-03
 0.3937000E+00 -0.2280034E-03
 0.3948000E+00 -0.2687399E-03
 0.3959000E+00 -0.3158739E-03
 0.3970000E+00 -0.3702402E-03
 0.3981000E+00 -0.4327518E-03
 0.3992000E+00 -0.5044017E-03
 0.4003000E+00 -0.5862642E-03
 0.4014000E+00 -0.6794945E-03
 0.4025000E+00 -0.7853269E-03
 0.4036000E+00 -0.9050716E-03
 0.4047000E+00 -0.1040109E-02
 0.4058000E+00 -0.1191883E-02
 0.4069000E+00 -0.1361891E-02
 0.4080000E+00 -0.1551669E-02
 0.4091000E+00 -0.1762783E-02
 0.4102000E+00 -0.1996802E-02
 0.4113000E+00 -0.2255285E-02
 0.4124000E+00 -0.2539753E-02
 0.4135000E+00 -0.2851662E-02
 0.4146000E+00 -0.3192374E-02
 0.4157000E+00 -0.3563121E-02
 0.4168000E+00 -0.3964975E-02
 0.4179000E+00 -0.4398799E-02
 0.4190000E+00 -0.4865217E-02
 0.4201000E+00 -0.5364566E-02
 0.4212000E+00 -0.5896851E-02
 0.4223000E+00 -0.6461708E-02
 0.4234000E+00 -0.7058351E-02
 0.4245000E+00 -0.7685538E-02
 0.4256000E+00 -0.8341529E-02
 0.4267000E+00 -0.9024051E-02
 0.4278000E+00 -0.9730260E-02
 0.4289000E+00 -0.1045672E-01
 0.4300000E+00 -0.1119940E-01
 0.4311000E+00 -0.1195362E-01
 0.4322000E+00 -0.1271409E-01
 0.4333000E+00 -0.1347490E-01
 0.4344000E+00 -0.1422955E-01
 0.4355000E+00 -0.1497095E-01
 0.4366000E+00 -0.1569149E-01
 0.4377000E+00 -0.1638309E-01
 0.4388000E+00 -0.1703725E-01
 0.4399000E+00 -0.1764516E-01
 0.4410000E+00 -0.1819777E-01
 0.4421000E+00 -0.1868589E-01
 0.4432000E+00 -0.1910030E-01
 0.4443000E+00 -0.1943192E-01
 0.4454000E+00 -0.1967186E-01
 0.4465000E+00 -0.1981164E-01
 0.4476000E+00 -0.1984328E-01
 0.4487000E+00 -0.1975945E-01
 0.4498000E+00 -0.1955361E-01
 0.4509000E+00 -0.1922017E-01
 0.4520000E+00 -0.1875460E-01
 0.4531000E+00 -0.1815354E-01
 0.4542000E+00 -0.1741495E-01
 0.4553000E+00 -0.1653817E-01
 0.4564000E+00 -0.1552399E-01
 0.4575000E+00 -0.1437476E-01
 0.4586000E+00 -0.1309438E-01
 0.4597000E+00 -0.1168833E-01
 0.4608000E+00 -0.1016365E-01
 0.4619000E+00 -0.8528941E-02
 0.4630000E+00 -0.6794252E-02
 0.4641000E+00 -0.4971033E-02
 0.4652000E+00 -0.3072014E-02
 0.4663000E+00 -0.1111072E-02
 0.4674000E+00  0.8969167E-03
 0.4685000E+00  0.2936255E-02
 0.4696000E+00  0.4990610E-02
 0.4707000E+00  0.7043215E-02
 0.4718000E+00  0.9077084E-02
 0.4729000E+00  0.1107523E-01
 0.4740000E+00  0.1302088E-01
 0.4751000E+00  0.1489770E-01
 0.4762000E+00  0.1669001E-01
 0.4773000E+00  0.1838299E-01
 0.4784000E+00  0.1996284E-01
 0.4795000E+00  0.2141701E-01
 0.4806000E+00  0.2273434E-01
 0.4817000E+00  0.2390516E-01
 0.4828000E+00  0.2492143E-01
 0.4839000E+00  0.2577685E-01
 0.4850000E+00  0.2646685E-01
 0.4861000E+00  0.2698869E-01
 0.4872000E+00  0.2734139E-01
 0.4883000E+00  0.2752580E-01
 0.4894000E+00  0.2754447E-01
 0.4905000E+00  0.2740158E-01
 0.4916000E+00  0.2710290E-01
 0.4927000E+00  0.2665560E-01
 0.4938000E+00  0.2606817E-01
 0.4949000E+00  0.2535025E-01
 0.4960000E+00  0.2451243E-01
 0.4971000E+00  0.2356615E-01
 0.4982000E+00  0.2252347E-01
 0.4993000E+00  0.2139691E-01
 0.5004000E+00  0.2019927E-01
 0.5015000E+00  0.1894348E-01
 0.5026000E+00  0.1764238E-01
 0.5037000E+00  0.1630863E-01
 0.5048000E+00  0.1495454E-01
 0.5059000E+00  0.1359189E-01
 0.5070000E+00  0.1223192E-01
 0.5081000E+00  0.1088512E-01
 0.5092000E+00  0.9561202E-02
 0.5103000E+00  0.8269045E-02
 0.5114000E+00  0.7016602E-02
 0.5125000E+00  0.5810895E-02
 0.5136000E+00  0.4657993E-02
 0.5147000E+00  0.3562998E-02
 0.5158000E+00  0.2530070E-02
 0.5169000E+00  0.1562442E-02
 0.5180000E+00  0.6624588E-03
 0.5191000E+00 -0.1683840E-03
 0.5202000E+00 -0.9293855E-03
 0.5213000E+00 -0.1620583E-02
 0.5224000E+00 -0.2242686E-02
 0.5235000E+00 -0.2797013E-02
 0.5246000E+00 -0.3285421E-02
 0.5257000E+00 -0.3710235E-02
 0.5268000E+00 -0.4074181E-02
 0.5279000E+00 -0.4380316E-02
 0.5290000E+00 -0.4631965E-02
 0.5301000E+00 -0.4832657E-02
 0.5312000E+00 -0.4986061E-02
 0.5323000E+00 -0.5095936E-02
 0.5334000E+00 -0.5166075E-02
 0.5345000E+00 -0.5200262E-02
 0.5356000E+00 -0.5202231E-02
 0.5367000E+00 -0.5175632E-02
 0.5378000E+00 -0.5123995E-02
 0.5389000E+00 -0.5050708E-02
 0.5400000E+00 -0.4958993E-02
 0.5411000E+00 -0.4851885E-02
 0.5422000E+00 -0.4732220E-02
 0.5433000E+00 -0.4602626E-02
 0.5444000E+00 -0.4465512E-02
 0.5455000E+00 -0.4323070E-02
 0.5466000E+00 -0.4177269E-02
 0.5477000E+00 -0.4029862E-02
 0.5488000E+00 -0.3882381E-02
 0.5499000E+00 -0.3736150E-02
 0.5510000E+00 -0.3592288E-02
 0.5521000E+00 -0.3451721E-02
 0.5532000E+00 -0.3315193E-02
 0.5543000E+00 -0.3183282E-02
 0.5554000E+00 -0.3056409E-02
 0.5565000E+00 -0.2934851E-02
 0.5576000E+00 -0.2818757E-02
 0.5587000E+00 -0.2708161E-02
 0.5598000E+00 -0.2602992E-02
 0.5609000E+00 -0.2503096E-02
 0.5620000E+00 -0.2408247E-02
 0.5631000E+00 -0.2318167E-02
 0.5642000E+00 -0.2232534E-02
 0.5653000E+00 -0.2150998E-02
 0.5664000E+00 -0.2073193E-02
 0.5675000E+00 -0.1998747E-02
 0.5686000E+00 -0.1927294E-02
 0.5697000E+00 -0.1858484E-02
 0.5708000E+00 -0.1791991E-02
 0.5719000E+00 -0.1727521E-02
 0.5730000E+00 -0.1664816E-02
 0.5741000E+00 -0.1603660E-02
 0.5752000E+00 -0.1543878E-02
 0.5763000E+00 -0.1485336E-02
 0.5774000E+00 -0.1427950E-02
 0.5785000E+00 -0.1371678E-02
 0.5796000E+00 -0.1316523E-02
 0.5807000E+00 -0.1262533E-02
 0.5818000E+00 -0.1209790E-02
 0.5829000E+00 -0.1158408E-02
 0.5840000E+00 -0.1108527E-02
 0.5851000E+00 -0.1060300E-02
 0.5862000E+00 -0.1013892E-02
 0.5873000E+00 -0.9694720E-03
 0.5884000E+00 -0.9272042E-03
 0.5895000E+00 -0.8872449E-03
 0.5906000E+00 -0.8497338E-03
 0.5917000E+00 -0.8147873E-03
 0.5928000E+00 -0.7824934E-03
 0.5939000E+00 -0.7529074E-03
 0.5950000E+00 -0.7260496E-03
 0.5961000E+00 -0.7019045E-03
 0.5972000E+00 -0.6804193E-03
 0.5983000E+00 -0.6615039E-03
 0.5994000E+00 -0.6450305E-03
 0.6005000E+00 -0.6308341E-03
 0.6016000E+00 -0.6187153E-03
 0.6027000E+00 -0.6084434E-03
 0.6038000E+00 -0.5997628E-03
 0.6049000E+00 -0.5924000E-03
 0.6060000E+00 -0.5860707E-03
 0.6071000E+00 -0.5804870E-03
 0.6082000E+00 -0.5753642E-03
 0.6093000E+00 -0.5704274E-03
 0.6104000E+00 -0.5654178E-03
 0.6115000E+00 -0.5600988E-03
 0.6126000E+00 -0.5542617E-03
 0.6137000E+00 -0.5477312E-03
 0.6148000E+00 -0.5403683E-03
 0.6159000E+00 -0.5320730E-03
 0.6170000E+00 -0.5227849E-03
 0.6181000E+00 -0.5124828E-03
 0.6192000E+00 -0.5011841E-03
 0.6203000E+00 -0.4889438E-03
 0.6214000E+00 -0.4758509E-03
 0.6225000E+00 -0.4620259E-03
 0.6236000E+00 -0.4476148E-03
 0.6247000E+00 -0.4327834E-03
 0.6258000E+00 -0.4177102E-03
 0.6269000E+00 -0.4025794E-03
 0.6280000E+00 -0.3875746E-03
 0.6291000E+00 -0.3728734E-03
 0.6302000E+00 -0.3586416E-03
 0.6313000E+00 -0.3450293E-03
 0.6324000E+00 -0.3321659E-03
 0.6335000E+00 -0.3201572E-03
 0.6346000E+00 -0.3090827E-03
 0.6357000E+00 -0.2989941E-03
 0.6368000E+00 -0.2899159E-03
 0.6379000E+00 -0.2818462E-03
 0.6390000E+00 -0.2747585E-03
 0.6401000E+00 -0.2686036E-03
 0.6412000E+00 -0.2633119E-03
 0.6423000E+00 -0.2587960E-03
 0.6434000E+00 -0.2549541E-03
 0.6445000E+00 -0.2516740E-03
 0.6456000E+00 -0.2488381E-03
 0.6467000E+00 -0.2463277E-03
 0.6478000E+00 -0.2440271E-03
 0.6489000E+00 -0.2418268E-03
 0.6500000E+00 -0.2396245E-03
 0.6511000E+00 -0.2373266E-03
 0.6522000E+00 -0.2348480E-03
 0.6533000E+00 -0.2321121E-03
 0.6544000E+00 -0.2290501E-03
 0.6555000E+00 -0.2256000E-03
 0.6566000E+00 -0.2217049E-03
 0.6577000E+00 -0.2173103E-03
 0.6588000E+00 -0.2123613E-03
 0.6599000E+00 -0.2068006E-03
 0.6610000E+00 -0.2005662E-03
 0.6621000E+00 -0.1935904E-03
 0.6632000E+00 -0.1857996E-03
 0.6643000E+00 -0.1771140E-03
 0.6654000E+00 -0.1674472E-03
 0.6665000E+00 -0.1567073E-03
 0.6676000E+00 -0.1447962E-03
 0.6687000E+00 -0.1316123E-03
 0.6698000E+00 -0.1170519E-03
 0.6709000E+00 -0.1010127E-03
 0.6720000E+00 -0.8339638E-04
 0.6731000E+00 -0.6411080E-04
 0.6742000E+00 -0.4307041E-04
 0.6753000E+00 -0.2019540E-04
 0.6764000E+00  0.4590632E-05
 0.6775000E+00  0.3136370E-04
 0.6786000E+00  0.6020304E-04
 0.6797000E+00  0.9119515E-04
 0.6808000E+00  0.1244386E-03
 0.6819000E+00  0.1600500E-03
 0.6830000E+00  0.1981707E-03
 0.6841000E+00  0.2389753E-03
 0.6852000E+00  0.2826793E-03
 0.6863000E+00  0.3295475E-03
 0.6874000E+00  0.3799005E-03
 0.6885000E+00  0.4341204E-03
 0.6896000E+00  0.4926552E-03
 0.6907000E+00  0.5560213E-03
 0.6918000E+00  0.6248040E-03
 0.6929000E+00  0.6996552E-03
 0.6940000E+00  0.7812869E-03
 0.6951000E+00  0.8704604E-03
 0.6962000E+00  0.9679705E-03
 0.6973000E+00  0.1074624E-02
 0.6984000E+00  0.1191218E-02
 0.6995000E+00  0.1318505E-02
 0.7006000E+00  0.1457172E-02
 0.7017000E+00  0.1607800E-02
 0.7028000E+00  0.1770837E-02
 0.7039000E+00  0.1946558E-02
 0.7050000E+00  0.2135033E-02
 0.7061000E+00  0.2336091E-02
 0.7072000E+00  0.2549286E-02
 0.7083000E+00  0.2773870E-02
 0.7094000E+00  0.3008761E-02
 0.7105000E+00  0.3252529E-02
 0.7116000E+00  0.3503375E-02
 0.7127000E+00  0.3759130E-02
 0.7138000E+00  0.4017246E-02
 0.7149000E+00  0.4274816E-02
 0.7160000E+00  0.4528580E-02
 0.7171000E+00  0.4774962E-02
 0.7182000E+00  0.5010101E-02
 0.7193000E+00  0.5229899E-02
 0.7204000E+00  0.5430071E-02
 0.7215000E+00  0.5606206E-02
 0.7226000E+00  0.5753831E-02
 0.7237000E+00  0.5868481E-02
 0.7248000E+00  0.5945774E-02
 0.7259000E+00  0.5981479E-02
 0.7270000E+00  0.5971602E-02
 0.7281000E+00  0.5912458E-02
 0.7292000E+00  0.5800744E-02
 0.7303000E+00  0.5633612E-02
 0.7314000E+00  0.5408729E-02
 0.7325000E+00  0.5124342E-02
 0.7336000E+00  0.4779317E-02
 0.7347000E+00  0.4373191E-02
 0.7358000E+00  0.3906192E-02
 0.7369000E+00  0.3379264E-02
 0.7380000E+00  0.2794074E-02
 0.7391000E+00  0.2153009E-02
 0.7402000E+00  0.1459162E-02
 0.7413000E+00  0.7163059E-03
 0.7424000E+00 -0.7114164E-04
 0.7435000E+00 -0.8981592E-03
 0.7446000E+00 -0.1759175E-02
 0.7457000E+00 -0.2648124E-02
 0.7468000E+00 -0.3558511E-02
 0.7479000E+00 -0.4483480E-02
 0.7490000E+00 -0.5415886E-02
 0.7501000E+00 -0.6348365E-02
 0.7512000E+00 -0.7273408E-02
 0.7523000E+00 -0.8183433E-02
 0.7534000E+00 -0.9070851E-02
 0.7545000E+00 -0.9928140E-02
 0.7556000E+00 -0.1074790E-01
 0.7567000E+00 -0.1152291E-01
 0.7578000E+00 -0.1224620E-01
 0.7589000E+00 -0.1291108E-01
 0.7600000E+00 -0.1351118E-01
 0.7611000E+00 -0.1404051E-01
 0.7622000E+00 -0.1449347E-01
 0.7633000E+00 -0.1486490E-01
 0.7644000E+00 -0.1515011E-01
 0.7655000E+00 -0.1534485E-01
 0.7666000E+00 -0.1544541E-01
 0.7677000E+00 -0.1544858E-01
 0.7688000E+00 -0.1535168E-01
 0.7699000E+00 -0.1515259E-01
 0.7710000E+00 -0.1484976E-01
 0.7721000E+00 -0.1444221E-01
 0.7732000E+00 -0.1392958E-01
 0.7743000E+00 -0.1331216E-01
 0.7754000E+00 -0.1259084E-01
 0.7765000E+00 -0.1176722E-01
 0.7776000E+00 -0.1084355E-01
 0.7787000E+00 -0.9822818E-02
 0.7798000E+00 -0.8708711E-02
 0.7809000E+00 -0.7505653E-02
 0.7820000E+00 -0.6218809E-02
 0.7831000E+00 -0.4854090E-02
 0.7842000E+00 -0.3418149E-02
 0.7853000E+00 -0.1918372E-02
 0.7864000E+00 -0.3628545E-03
 0.7875000E+00  0.1239617E-02
 0.7886000E+00  0.2879606E-02
 0.7897000E+00  0.4547073E-02
 0.7908000E+00  0.6231431E-02
 0.7919000E+00  0.7921617E-02
 0.7930000E+00  0.9606170E-02
 0.7941000E+00  0.1127333E-01
 0.7952000E+00  0.1291112E-01
 0.7963000E+00  0.1450749E-01
 0.7974000E+00  0.1605040E-01
 0.7985000E+00  0.1752797E-01
 0.7996000E+00  0.1892856E-01
 0.8007000E+00  0.2024097E-01
 0.8018000E+00  0.2145451E-01
 0.8029000E+00  0.2255916E-01
 0.8040000E+00  0.2354565E-01
 0.8051000E+00  0.2440563E-01
 0.8062000E+00  0.2513175E-01
 0.8073000E+00  0.2571776E-01
 0.8084000E+00  0.2615861E-01
 0.8095000E+00  0.2645052E-01
 0.8106000E+00  0.2659102E-01
 0.8117000E+00  0.2657905E-01
 0.8128000E+00  0.2641491E-01
 0.8139000E+00  0.2610034E-01
 0.8150000E+00  0.2563846E-01
 0.8161000E+00  0.2503376E-01
 0.8172000E+00  0.2429204E-01
 0.8183000E+00  0.2342038E-01
 0.8194000E+00  0.2242703E-01
 0.8205000E+00  0.2132129E-01
 0.8216000E+00  0.2011347E-01
 0.8227000E+00  0.1881472E-01
 0.8238000E+00  0.1743689E-01
 0.8249000E+00  0.1599242E-01
 0.8260000E+00  0.1449417E-01
 0.8271000E+00  0.1295528E-01
 0.8282000E+00  0.1138900E-01
 0.8293000E+00  0.9808540E-02
 0.8304000E+00  0.8226916E-02
 0.8315000E+00  0.6656807E-02
 0.8326000E+00  0.5110407E-02
 0.8337000E+00  0.3599294E-02
 0.8348000E+00  0.2134311E-02
 0.8359000E+00  0.7254435E-03
 0.8370000E+00 -0.6182651E-03
 0.8381000E+00 -0.1888805E-02
 0.8392000E+00 -0.3079264E-02
 0.8403000E+00 -0.4183873E-02
 0.8414000E+00 -0.5198042E-02
 0.8425000E+00 -0.6118372E-02
 0.8436000E+00 -0.6942652E-02
 0.8447000E+00 -0.7669845E-02
 0.8458000E+00 -0.8300047E-02
 0.8469000E+00 -0.8834443E-02
 0.8480000E+00 -0.9275236E-02
 0.8491000E+00 -0.9625569E-02
 0.8502000E+00 -0.9889441E-02
 0.8513000E+00 -0.1007160E-01
 0.8524000E+00 -0.1017746E-01
 0.8535000E+00 -0.1021296E-01
 0.8546000E+00 -0.1018449E-01
 0.8557000E+00 -0.1009873E-01
 0.8568000E+00 -0.9962573E-02
 0.8579000E+00 -0.9782994E-02
 0.8590000E+00 -0.9566941E-02
 0.8601000E+00 -0.9321238E-02
 0.8612000E+00 -0.9052487E-02
 0.8623000E+00 -0.8766990E-02
 0.8634000E+00 -0.8470672E-02
 0.8645000E+00 -0.8169021E-02
 0.8656000E+00 -0.7867035E-02
 0.8667000E+00 -0.7569180E-02
 0.8678000E+00 -0.7279363E-02
 0.8689000E+00 -0.7000916E-02
 0.8700000E+00 -0.6736591E-02
 0.8711000E+00 -0.6488568E-02
 0.8722000E+00 -0.6258469E-02
 0.8733000E+00 -0.6047384E-02
 0.8744000E+00 -0.5855900E-02
 0.8755000E+00 -0.5684143E-02
 0.8766000E+00 -0.5531819E-02
 0.8777000E+00 -0.5398264E-02
 0.8788000E+00 -0.5282498E-02
 0.8799000E+00 -0.5183279E-02
 0.8810000E+00 -0.5099154E-02
 0.8821000E+00 -0.5028515E-02
 0.8832000E+00 -0.4969645E-02
 0.8843000E+00 -0.4920762E-02
 0.8854000E+00 -0.4880065E-02
 0.8865000E+00 -0.4845772E-02
 0.8876000E+00 -0.4816156E-02
 0.8887000E+00 -0.4789574E-02
 0.8898000E+00 -0.4764493E-02
 0.8909000E+00 -0.4739506E-02
 0.8920000E+00 -0.4713348E-02
 0.8931000E+00 -0.4684899E-02
 0.8942000E+00 -0.4653192E-02
 0.8953000E+00 -0.4617416E-02
 0.8964000E+00 -0.4576911E-02
 0.8975000E+00 -0.4531164E-02
 0.8986000E+00 -0.4479802E-02
 0.8997000E+00 -0.4422578E-02
 0.9008000E+00 -0.4359362E-02
 0.9019000E+00 -0.4290124E-02
 0.9030000E+00 -0.4214922E-02
 0.9041000E+00 -0.4133891E-02
 0.9052000E+00 -0.4047228E-02
 0.9063000E+00 -0.3955182E-02
 0.9074000E+00 -0.3858044E-02
 0.9085000E+00 -0.3756131E-02
 0.9096000E+00 -0.3649782E-02
 0.9107000E+00 -0.3539344E-02
 0.9118000E+00 -0.3425168E-02
 0.9129000E+00 -0.3307604E-02
 0.9140000E+00 -0.3186996E-02
 0.9151000E+00 -0.3063678E-02
 0.9162000E+00 -0.2937973E-02
 0.9173000E+00 -0.2810192E-02
 0.9184000E+00 -0.2680631E-02
 0.9195000E+00 -0.2549577E-02
 0.9206000E+00 -0.2417306E-02
 0.9217000E+00 -0.2284088E-02
 0.9228000E+00 -0.2150191E-02
 0.9239000E+00 -0.2015875E-02
 0.9250000E+00 -0.1881405E-02
 0.9261000E+00 -0.1747040E-02
 0.9272000E+00 -0.1613046E-02
 0.9283000E+00 -0.1479692E-02
 0.9294000E+00 -0.1347255E-02
 0.9305000E+00 -0.1216023E-02
 0.9316000E+00 -0.1086294E-02
 0.9327000E+00 -0.9583766E-03
 0.9338000E+00 -0.8325916E-03
 0.9349000E+00 -0.7092673E-03
 0.9360000E+00 -0.5887417E-03
 0.9371000E+00 -0.4713597E-03
 0.9382000E+00 -0.3574718E-03
 0.9393000E+00 -0.2474296E-03
 0.9404000E+00 -0.1415814E-03
 0.9415000E+00 -0.4026500E-04
 0.9426000E+00  0.5619764E-04
 0.9437000E+00  0.1475056E-03
 0.9448000E+00  0.2333829E-03
 0.9459000E+00  0.3135822E-03
 0.9470000E+00  0.3878886E-03
 0.9481000E+00  0.4561250E-03
 0.9492000E+00  0.5181585E-03
 0.9503000E+00  0.5739064E-03
 0.9514000E+00  0.6233418E-03
 0.9525000E+00  0.6664957E-03
 0.9536000E+00  0.7034577E-03
 0.9547000E+00  0.7343742E-03
 0.9558000E+00  0.7594458E-03
 0.9569000E+00  0.7789254E-03
 0.9580000E+00  0.7931151E-03
 0.9591000E+00  0.8023624E-03
 0.9602000E+00  0.8070556E-03
 0.9613000E+00  0.8076150E-03
 0.9624000E+00  0.8044846E-03
 0.9635000E+00  0.7981216E-03
 0.9646000E+00  0.7889876E-03
 0.9657000E+00  0.7775409E-03
 0.9668000E+00  0.7642303E-03
 0.9679000E+00  0.7494880E-03
 0.9690000E+00  0.7337219E-03
 0.9701000E+00  0.7173074E-03
 0.9712000E+00  0.7005782E-03
 0.9723000E+00  0.6838182E-03
 0.9734000E+00  0.6672575E-03
 0.9745000E+00  0.6510701E-03
 0.9756000E+00  0.6353754E-03
 0.9767000E+00  0.6202406E-03
 0.9778000E+00  0.6056841E-03
 0.9789000E+00  0.5916771E-03