-0.1200000E+00  0.0000000E+00
-0.1189000E+00  0.0000000E+00
-0.1178000E+00  0.0000000E+00
-0.1167000E+00  0.0000000E+00
-0.1156000E+00  0.0000000E+00
-0.1145000E+00  0.0000000E+00
-0.1134000E+00  0.0000000E+00
-0.1123000E+00  0.0000000E+00
-0.1112000E+00  0.0000000E+00
-0.1101000E+00  0.0000000E+00
-0.1090000E+00  0.0000000E+00
-0.1079000E+00  0.0000000E+00
-0.1068000E+00  0.0000000E+00
-0.1057000E+00  0.0000000E+00
-0.1046000E+00  0.0000000E+00
-0.1035000E+00  0.0000000E+00
-0.1024000E+00  0.0000000E+00
-0.1013000E+00  0.0000000E+00
-0.1002000E+00  0.0000000E+00
-0.9910000E-01  0.0000000E+00
-0.9800000E-01  0.0000000E+00
-0.9690000E-01  0.0000000E+00
-0.9580000E-01  0.0000000E+00
-0.9470000E-01  0.0000000E+00
-0.9360000E-01  0.0000000E+00
-0.9250000E-01  0.0000000E+00
-0.9140000E-01  0.0000000E+00
-0.9030000E-01  0.0000000E+00
-0.8920000E-01  0.0000000E+00
-0.8810000E-01  0.0000000E+00
-0.8700000E-01  0.0000000E+00
-0.8590000E-01  0.0000000E+00
-0.8480000E-01  0.0000000E+00
-0.8370000E-01  0.0000000E+00
-0.8260000E-01  0.0000000E+00
-0.8150000E-01  0.0000000E+00
-0.8040000E-01  0.0000000E+00
-0.7930000E-01  0.0000000E+00
-0.7820000E-01  0.0000000E+00
-0.7710000E-01  0.0000000E+00
-0.7600000E-01  0.0000000E+00
-0.7490000E-01  0.0000000E+00
-0.7380000E-01  0.0000000E+00
-0.7270000E-01  0.0000000E+00
-0.7160000E-01  0.0000000E+00
-0.7050000E-01  0.0000000E+00
-0.6940000E-01  0.0000000E+00
-0.6830000E-01  0.0000000E+00
-0.6720000E-01  0.0000000E+00
-0.6610000E-01  0.0000000E+00
-0.6500000E-01  0.0000000E+00
-0.6390000E-01  0.0000000E+00
-0.6280000E-01  0.0000000E+00
-0.6170000E-01  0.0000000E+00
-0.6060000E-01  0.0000000E+00
-0.5950000E-01  0.0000000E+00
-0.5840000E-01  0.0000000E+00
-0.5730000E-01  0.0000000E+00
-0.5620000E-01  0.0000000E+00
-0.5510000E-01  0.0000000E+00
-0.5400000E-01  0.0000000E+00
-0.5290000E-01  0.0000000E+00
-0.5180000E-01  0.0000000E+00
-0.5070000E-01  0.0000000E+00
-0.4960000E-01  0.0000000E+00
-0.4850000E-01  0.0000000E+00
-0.4740000E-01  0.0000000E+00
-0.4630000E-01  0.0000000E+00
-0.4520000E-01  0.0000000E+00
-0.4410000E-01  0.0000000E+00
-0.4300000E-01  0.0000000E+00
-0.4190000E-01  0.0000000E+00
-0.4080000E-01  0.0000000E+00
-0.3970000E-01  0.0000000E+00
-0.3860000E-01  0.0000000E+00
-0.3750000E-01  0.0000000E+00
-0.3640000E-01  0.0000000E+00
-0.3530000E-01  0.0000000E+00
-0.3420000E-01  0.0000000E+00
-0.3310000E-01  0.0000000E+00
-0.3200000E-01  0.0000000E+00
-0.3090000E-01 -0.0000000E+00
-0.2980000E-01 -0.0000000E+00
-0.2870000E-01 -0.0000000E+00
-0.2760000E-01  0.0000000E+00
-0.2650000E-01  0.0000000E+00
-0.2540000E-01 -0.0000000E+00
-0.2430000E-01 -0.0000000E+00
-0.2320000E-01 -0.0000000E+00
-0.2210000E-01  0.0000000E+00
-0.2100000E-01  0.0000000E+00
-0.1990000E-01 -0.2105869E-37
-0.1880000E-01 -0.6982146E-37
-0.1770000E-01 -0.9874896E-37
-0.1660000E-01 -0.0000000E+00
-0.1550000E-01  0.2683513E-36
-0.1440000E-01  0.6084867E-36
-0.1330000E-01  0.6790391E-36
-0.1220000E-01  0.2109799E-37
-0.1110000E-01 -0.1631626E-35
-0.1000000E-01 -0.3752999E-35
-0.8900000E-02 -0.4496280E-35
-0.7800000E-02 -0.1065970E-35
-0.6700000E-02  0.8246454E-35
-0.5600000E-02  0.2077804E-34
-0.4500000E-02  0.2673277E-34
-0.3400000E-02  0.1090165E-34
-0.2300000E-02 -0.3736235E-34
-0.1200000E-02 -0.1065824E-33
-0.1000000E-03 -0.1478774E-33
 0.1000000E-02 -0.8163417E-34
 0.2100000E-02  0.1542650E-33
 0.3200000E-02  0.5164199E-33
 0.4300000E-02  0.7748969E-33
 0.5400000E-02  0.5338969E-33
 0.6500000E-02 -0.5485235E-33
 0.7600000E-02 -0.2341507E-32
 0.8700000E-02 -0.3831220E-32
 0.9800000E-02 -0.3153370E-32
 0.1090000E-01  0.1468865E-32
 0.1200000E-01  0.9833126E-32
 0.1310000E-01  0.1777871E-31
 0.1420000E-01  0.1700976E-31
 0.1530000E-01 -0.1173396E-32
 0.1640000E-01 -0.3778307E-31
 0.1750000E-01 -0.7706400E-31
 0.1860000E-01 -0.8424010E-31
 0.1970000E-01 -0.1925237E-31
 0.2080000E-01  0.1305151E-30
 0.2190000E-01  0.3107100E-30
 0.2300000E-01  0.3843647E-30
 0.2410000E-01  0.1781991E-30
 0.2520000E-01 -0.3924188E-30
 0.2630000E-01 -0.1160474E-29
 0.2740000E-01 -0.1620450E-29
 0.2850000E-01 -0.1068396E-29
 0.2960000E-01  0.9483935E-30
 0.3070000E-01  0.3995025E-29
 0.3180000E-01  0.6328506E-29
 0.3290000E-01  0.5262053E-29
 0.3400000E-01 -0.1313283E-29
 0.3510000E-01 -0.1257696E-28
 0.3620000E-01 -0.2293981E-28
 0.3730000E-01 -0.2276187E-28
 0.3840000E-01 -0.3178274E-29
 0.3950000E-01  0.3567361E-28
 0.4060000E-01  0.7725202E-28
 0.4170000E-01  0.8903023E-28
 0.4280000E-01  0.3676308E-28
 0.4390000E-01 -0.8826318E-28
 0.4500000E-01 -0.2415098E-27
 0.4610000E-01 -0.3197930E-27
 0.4720000E-01 -0.2002087E-27
 0.4830000E-01  0.1744442E-27
 0.4940000E-01  0.6983620E-27
 0.5050000E-01  0.1064278E-26
 0.5160000E-01  0.8595929E-27
 0.5270000E-01 -0.1804840E-27
 0.5380000E-01 -0.1851270E-26
 0.5490000E-01 -0.3297077E-26
 0.5600000E-01 -0.3216912E-26
 0.5710000E-01 -0.5717783E-27
 0.5820000E-01  0.4410765E-26
 0.5930000E-01  0.9519151E-26
 0.6040000E-01  0.1089289E-25
 0.6150000E-01  0.4876572E-26
 0.6260000E-01 -0.9011597E-26
 0.6370000E-01 -0.2554588E-25
 0.6480000E-01 -0.3394734E-25
 0.6590000E-01 -0.2240226E-25
 0.6700000E-01  0.1363638E-25
 0.6810000E-01  0.6322998E-25
 0.6920000E-01  0.9812862E-25
 0.7030000E-01  0.8283788E-25
 0.7140000E-01 -0.3439623E-26
 0.7250000E-01 -0.1419887E-24
 0.7360000E-01 -0.2636870E-24
 0.7470000E-01 -0.2688038E-24
 0.7580000E-01 -0.8164542E-25
 0.7690000E-01  0.2791938E-24
 0.7800000E-01  0.6573952E-24
 0.7910000E-01  0.7902785E-24
 0.8020000E-01  0.4363469E-24
 0.8130000E-01 -0.4375473E-24
 0.8240000E-01 -0.1510815E-23
 0.8350000E-01 -0.2134995E-23
 0.8460000E-01 -0.1610138E-23
 0.8570000E-01  0.3451694E-24
 0.8680000E-01  0.3158475E-23
 0.8790000E-01  0.5333299E-23
 0.8900000E-01  0.4995629E-23
 0.9010000E-01  0.1006253E-23
 0.9120000E-01 -0.5841621E-23
 0.9230000E-01 -0.1233862E-22
 0.9340000E-01 -0.1380970E-22
 0.9450000E-01 -0.6589622E-23
 0.9560000E-01  0.8908934E-23
 0.9670000E-01  0.2636525E-22
 0.9780000E-01  0.3486661E-22
 0.9890000E-01  0.2406290E-22
 0.1000000E+00 -0.8460375E-23
 0.1011000E+00 -0.5155683E-22
 0.1022000E+00 -0.8137319E-22
 0.1033000E+00 -0.7128991E-22
 0.1044000E+00 -0.8599011E-23
 0.1055000E+00  0.9017417E-22
 0.1066000E+00  0.1763611E-21
 0.1077000E+00  0.1865339E-21
 0.1088000E+00  0.7802684E-22
 0.1099000E+00 -0.1328326E-21
 0.1110000E+00 -0.3542023E-21
 0.1121000E+00 -0.4449750E-21
 0.1132000E+00 -0.2857909E-21
 0.1143000E+00  0.1322273E-21
 0.1154000E+00  0.6520171E-21
 0.1165000E+00  0.9799461E-21
 0.1176000E+00  0.8180272E-21
 0.1187000E+00  0.5682596E-22
 0.1198000E+00 -0.1071418E-20
 0.1209000E+00 -0.1996935E-20
 0.1220000E+00 -0.2038127E-20
 0.1231000E+00 -0.7952069E-21
 0.1242000E+00  0.1473983E-20
 0.1253000E+00  0.3747215E-20
 0.1264000E+00  0.4579912E-20
 0.1275000E+00  0.2858046E-20
 0.1286000E+00 -0.1357042E-20
 0.1297000E+00 -0.6397988E-20
 0.1308000E+00 -0.9415308E-20
 0.1319000E+00 -0.7720815E-20
 0.1330000E+00 -0.5516083E-21
 0.1341000E+00  0.9706230E-20
 0.1352000E+00  0.1781883E-19
 0.1363000E+00  0.1791870E-19
 0.1374000E+00  0.6950750E-20
 0.1385000E+00 -0.1236665E-19
 0.1396000E+00 -0.3111182E-19
 0.1407000E+00 -0.3746095E-19
 0.1418000E+00 -0.2300568E-19
 0.1429000E+00  0.1078371E-19
 0.1440000E+00  0.4994126E-19
 0.1451000E+00  0.7223597E-19
 0.1462000E+00  0.5802801E-19
 0.1473000E+00  0.3313862E-20
 0.1484000E+00 -0.7238023E-19
 0.1495000E+00 -0.1299231E-18
 0.1506000E+00 -0.1279323E-18
 0.1517000E+00 -0.4739554E-19
 0.1528000E+00  0.8916261E-19
 0.1539000E+00  0.2175703E-18
 0.1550000E+00  0.2573229E-18
 0.1561000E+00  0.1551636E-18
 0.1572000E+00 -0.7374737E-19
 0.1583000E+00 -0.3329367E-18
 0.1594000E+00 -0.4768577E-18
 0.1605000E+00 -0.3829761E-18
 0.1616000E+00 -0.3254635E-19
 0.1627000E+00  0.4460104E-18
 0.1638000E+00  0.8087474E-18
 0.1649000E+00  0.8066115E-18
 0.1660000E+00  0.3320494E-18
 0.1671000E+00 -0.4752688E-18
 0.1682000E+00 -0.1238886E-17
 0.1693000E+00 -0.1499787E-17
 0.1704000E+00 -0.9639618E-18
 0.1715000E+00  0.2774614E-18
 0.1726000E+00  0.1694234E-17
 0.1737000E+00  0.2507849E-17
 0.1748000E+00  0.2082023E-17
 0.1759000E+00  0.3361720E-18
 0.1770000E+00 -0.2057020E-17
 0.1781000E+00 -0.3865769E-17
 0.1792000E+00 -0.3875971E-17
 0.1803000E+00 -0.1611898E-17
 0.1814000E+00  0.2187172E-17
 0.1825000E+00  0.5681261E-17
 0.1836000E+00  0.6724015E-17
 0.1847000E+00  0.4047657E-17
 0.1858000E+00 -0.1757399E-17
 0.1869000E+00 -0.8098810E-17
 0.1880000E+00 -0.1137681E-16
 0.1891000E+00 -0.8828911E-17
 0.1902000E+00 -0.3646492E-18
 0.1913000E+00  0.1068281E-16
 0.1924000E+00  0.1860087E-16
 0.1935000E+00  0.1798415E-16
 0.1946000E+00  0.6919995E-17
 0.1957000E+00 -0.1103948E-16
 0.1968000E+00 -0.2754595E-16
 0.1979000E+00 -0.3301481E-16
 0.1990000E+00 -0.2172892E-16
 0.2001000E+00  0.4056720E-17
 0.2012000E+00  0.3356362E-16
 0.2023000E+00  0.5159895E-16
 0.2034000E+00  0.4602917E-16
 0.2045000E+00  0.1513131E-16
 0.2056000E+00 -0.2934407E-16
 0.2067000E+00 -0.6601329E-16
 0.2078000E+00 -0.7385001E-16
 0.2089000E+00 -0.4392687E-16
 0.2100000E+00  0.1338237E-16
 0.2111000E+00  0.7072212E-16
 0.2122000E+00  0.9615032E-16
 0.2133000E+00  0.7051496E-16
 0.2144000E+00  0.8319176E-18
 0.2155000E+00 -0.7883961E-16
 0.2166000E+00 -0.1220655E-15
 0.2177000E+00 -0.9494968E-16
 0.2188000E+00  0.1031345E-17
 0.2199000E+00  0.1219964E-15
 0.2210000E+00  0.1979594E-15
 0.2221000E+00  0.1681678E-15
 0.2232000E+00  0.1931824E-16
 0.2243000E+00 -0.1946741E-15
 0.2254000E+00 -0.3668096E-15
 0.2265000E+00 -0.3846617E-15
 0.2276000E+00 -0.1922490E-15
 0.2287000E+00  0.1652026E-15
 0.2298000E+00  0.5419597E-15
 0.2309000E+00  0.7470504E-15
 0.2320000E+00  0.6352233E-15
 0.2331000E+00  0.1917623E-15
 0.2342000E+00 -0.4350756E-15
 0.2353000E+00 -0.9803612E-15
 0.2364000E+00 -0.1176370E-14
 0.2375000E+00 -0.8851519E-15
 0.2386000E+00 -0.1834485E-15
 0.2397000E+00  0.6508127E-15
 0.2408000E+00  0.1256014E-14
 0.2419000E+00  0.1359131E-14
 0.2430000E+00  0.9178457E-15
 0.2441000E+00  0.1532628E-15
 0.2452000E+00 -0.5559875E-15
 0.2463000E+00 -0.8742585E-15
 0.2474000E+00 -0.7012474E-15
 0.2485000E+00 -0.2442322E-15
 0.2496000E+00  0.8847345E-16
 0.2507000E+00 -0.6399635E-16
 0.2518000E+00 -0.7516377E-15
 0.2529000E+00 -0.1594474E-14
 0.2540000E+00 -0.1912622E-14
 0.2551000E+00 -0.1084562E-14
 0.2562000E+00  0.1026222E-14
 0.2573000E+00  0.3811680E-14
 0.2584000E+00  0.6019797E-14
 0.2595000E+00  0.6249121E-14
 0.2606000E+00  0.3660366E-14
 0.2617000E+00 -0.1427782E-14
 0.2628000E+00 -0.7398525E-14
 0.2639000E+00 -0.1181998E-13
 0.2650000E+00 -0.1242807E-13
 0.2661000E+00 -0.8210113E-14
 0.2672000E+00 -0.7575755E-16
 0.2683000E+00  0.9268477E-14
 0.2694000E+00  0.1628392E-13
 0.2705000E+00  0.1804246E-13
 0.2716000E+00  0.1351745E-13
 0.2727000E+00  0.4111721E-14
 0.2738000E+00 -0.6863273E-14
 0.2749000E+00 -0.1555079E-13
 0.2760000E+00 -0.1912917E-13
 0.2771000E+00 -0.1686167E-13
 0.2782000E+00 -0.1012915E-13
 0.2793000E+00 -0.1488726E-14
 0.2804000E+00  0.6672426E-14
 0.2815000E+00  0.1309165E-13
 0.2826000E+00  0.1762755E-13
 0.2837000E+00  0.2033048E-13
 0.2848000E+00  0.2026836E-13
 0.2859000E+00  0.1509792E-13
 0.2870000E+00  0.2083514E-14
 0.2881000E+00 -0.1956399E-13
 0.2892000E+00 -0.4613850E-13
 0.2903000E+00 -0.6836623E-13
 0.2914000E+00 -0.7321901E-13
 0.2925000E+00 -0.4883392E-13
 0.2936000E+00  0.8906629E-14
 0.2947000E+00  0.9093702E-13
 0.2958000E+00  0.1737801E-12
 0.2969000E+00  0.2243972E-12
 0.2980000E+00  0.2106273E-12
 0.2991000E+00  0.1141333E-12
 0.3002000E+00 -0.5888157E-13
 0.3013000E+00 -0.2737697E-12
 0.3024000E+00 -0.4728383E-12
 0.3035000E+00 -0.5892829E-12
 0.3046000E+00 -0.5657798E-12
 0.3057000E+00 -0.3722256E-12
 0.3068000E+00 -0.1756294E-13
 0.3079000E+00  0.4471590E-12
 0.3090000E+00  0.9345580E-12
 0.3101000E+00  0.1333578E-11
 0.3112000E+00  0.1526646E-11
 0.3123000E+00  0.1409814E-11
 0.3134000E+00  0.9154333E-12
 0.3145000E+00  0.3659990E-13
 0.3156000E+00 -0.1149672E-11
 0.3167000E+00 -0.2467371E-11
 0.3178000E+00 -0.3644402E-11
 0.3189000E+00 -0.4343243E-11
 0.3200000E+00 -0.4223855E-11
 0.3211000E+00 -0.3033251E-11
 0.3222000E+00 -0.7039775E-12
 0.3233000E+00  0.2565871E-11
 0.3244000E+00  0.6281020E-11
 0.3255000E+00  0.9688392E-11
 0.3266000E+00  0.1189386E-10
 0.3277000E+00  0.1204192E-10
 0.3288000E+00  0.9524595E-11
 0.3299000E+00  0.4174465E-11
 0.3310000E+00 -0.3603512E-11
 0.3321000E+00 -0.1279667E-10
 0.3332000E+00 -0.2186351E-10
 0.3343000E+00 -0.2892552E-10
 0.3354000E+00 -0.3205307E-10
 0.3365000E+00 -0.2961313E-10
 0.3376000E+00 -0.2063537E-10
 0.3387000E+00 -0.5143258E-11
 0.3398000E+00  0.1561085E-10
 0.3409000E+00  0.3907148E-10
 0.3420000E+00  0.6152414E-10
 0.3431000E+00  0.7849175E-10
 0.3442000E+00  0.8537625E-10
 0.3453000E+00  0.7828332E-10
 0.3464000E+00  0.5491202E-10
 0.3475000E+00  0.1534843E-10
 0.3486000E+00 -0.3741043E-10
 0.3497000E+00 -0.9735278E-10
 0.3508000E+00 -0.1558592E-09
 0.3519000E+00 -0.2026283E-09
 0.3530000E+00 -0.2270399E-09
 0.3541000E+00 -0.2197945E-09
 0.3552000E+00 -0.1746179E-09
 0.3563000E+00 -0.8979160E-10
 0.3574000E+00  0.3072240E-10
 0.3585000E+00  0.1767671E-09
 0.3596000E+00  0.3322403E-09
 0.3607000E+00  0.4761937E-09
 0.3618000E+00  0.5847789E-09
 0.3629000E+00  0.6339325E-09
 0.3640000E+00  0.6025809E-09
 0.3651000E+00  0.4760440E-09
 0.3662000E+00  0.2492402E-09
 0.3673000E+00 -0.7073201E-10
 0.3684000E+00 -0.4630419E-09
 0.3695000E+00 -0.8929371E-09
 0.3706000E+00 -0.1313146E-08
 0.3717000E+00 -0.1666980E-08
 0.3728000E+00 -0.1893092E-08
 0.3739000E+00 -0.1931733E-08
 0.3750000E+00 -0.1732151E-08
 0.3761000E+00 -0.1260611E-08
 0.3772000E+00 -0.5083233E-09
 0.3783000E+00  0.5016312E-09
 0.3794000E+00  0.1709387E-08
 0.3805000E+00  0.3016404E-08
 0.3816000E+00  0.4287473E-08
 0.3827000E+00  0.5357136E-08
 0.3838000E+00  0.6040670E-08
 0.3849000E+00  0.6149217E-08
 0.3860000E+00  0.5508235E-08
 0.3871000E+00  0.3978048E-08
 0.3882000E+00  0.1475020E-08
 0.3893000E+00 -0.2008203E-08
 0.3904000E+00 -0.6384927E-08
 0.3915000E+00 -0.1146050E-07
 0.3926000E+00 -0.1692332E-07
 0.3937000E+00 -0.2234144E-07
 0.3948000E+00 -0.2716453E-07
 0.3959000E+00 -0.3073040E-07
 0.3970000E+00 -0.3227396E-07
 0.3981000E+00 -0.3093555E-07
 0.3992000E+00 -0.2576481E-07
 0.4003000E+00 -0.1571564E-07
 0.4014000E+00  0.3721643E-09
 0.4025000E+00  0.2380856E-07
 0.4036000E+00  0.5610919E-07
 0.4047000E+00  0.9907384E-07
 0.4058000E+00  0.1548885E-06
 0.4069000E+00  0.2262520E-06
 0.4080000E+00  0.3165276E-06
 0.4091000E+00  0.4299210E-06
 0.4102000E+00  0.5716864E-06
 0.4113000E+00  0.7483634E-06
 0.4124000E+00  0.9680499E-06
 0.4135000E+00  0.1240714E-05
 0.4146000E+00  0.1578556E-05
 0.4157000E+00  0.1996418E-05
 0.4168000E+00  0.2512264E-05
 0.4179000E+00  0.3147725E-05
 0.4190000E+00  0.3928729E-05
 0.4201000E+00  0.4886232E-05
 0.4212000E+00  0.6057043E-05
 0.4223000E+00  0.7484775E-05
 0.4234000E+00  0.9220917E-05
 0.4245000E+00  0.1132604E-04
 0.4256000E+00  0.1387116E-04
 0.4267000E+00  0.1693923E-04
 0.4278000E+00  0.2062677E-04
 0.4289000E+00  0.2504575E-04
 0.4300000E+00  0.3032544E-04
 0.4311000E+00  0.3661462E-04
 0.4322000E+00  0.4408381E-04
 0.4333000E+00  0.5292771E-04
 0.4344000E+00  0.6336770E-04
 0.4355000E+00  0.7565447E-04
 0.4366000E+00  0.9007074E-04
 0.4377000E+00  0.1069339E-03
 0.4388000E+00  0.1265988E-03
 0.4399000E+00  0.1494601E-03
 0.4410000E+00  0.1759550E-03
 0.4421000E+00  0.2065648E-03
 0.4432000E+00  0.2418174E-03
 0.4443000E+00  0.2822881E-03
 0.4454000E+00  0.3286005E-03
 0.4465000E+00  0.3814268E-03
 0.4476000E+00  0.4414868E-03
 0.4487000E+00  0.5095464E-03
 0.4498000E+00  0.5864147E-03
 0.4509000E+00  0.6729402E-03
 0.4520000E+00  0.7700052E-03
 0.4531000E+00  0.8785192E-03
 0.4542000E+00  0.9994104E-03
 0.4553000E+00  0.1133615E-02
 0.4564000E+00  0.1282066E-02
 0.4575000E+00  0.1445678E-02
 0.4586000E+00  0.1625333E-02
 0.4597000E+00  0.1821860E-02
 0.4608000E+00  0.2036018E-02
 0.4619000E+00  0.2268472E-02
 0.4630000E+00  0.2519772E-02
 0.4641000E+00  0.2790329E-02
 0.4652000E+00  0.3080387E-02
 0.4663000E+00  0.3389997E-02
 0.4674000E+00  0.3718993E-02
 0.4685000E+00  0.4066964E-02
 0.4696000E+00  0.4433227E-02
 0.4707000E+00  0.4816804E-02
 0.4718000E+00  0.5216398E-02
 0.4729000E+00  0.5630376E-02
 0.4740000E+00  0.6056745E-02
 0.4751000E+00  0.6493146E-02
 0.4762000E+00  0.6936841E-02
 0.4773000E+00  0.7384712E-02
 0.4784000E+00  0.7833263E-02
 0.4795000E+00  0.8278628E-02
 0.4806000E+00  0.8716589E-02
 0.4817000E+00  0.9142597E-02
 0.4828000E+00  0.9551806E-02
 0.4839000E+00  0.9939109E-02
 0.4850000E+00  0.1029919E-01
 0.4861000E+00  0.1062656E-01
 0.4872000E+00  0.1091566E-01
 0.4883000E+00  0.1116089E-01
 0.4894000E+00  0.1135669E-01
 0.4905000E+00  0.1149763E-01
 0.4916000E+00  0.1157849E-01
 0.4927000E+00  0.1159437E-01
 0.4938000E+00  0.1154072E-01
 0.4949000E+00  0.1141348E-01
 0.4960000E+00  0.1120915E-01
 0.4971000E+00  0.1092487E-01
 0.4982000E+00  0.1055848E-01
 0.4993000E+00  0.1010864E-01
 0.5004000E+00  0.9574827E-02
 0.5015000E+00  0.8957438E-02
 0.5026000E+00  0.8257804E-02
 0.5037000E+00  0.7478222E-02
 0.5048000E+00  0.6621968E-02
 0.5059000E+00  0.5693290E-02
 0.5070000E+00  0.4697393E-02
 0.5081000E+00  0.3640403E-02
 0.5092000E+00  0.2529316E-02
 0.5103000E+00  0.1371938E-02
 0.5114000E+00  0.1767992E-03
 0.5125000E+00 -0.1046937E-02
 0.5136000E+00 -0.2289583E-02
 0.5147000E+00 -0.3541044E-02
 0.5158000E+00 -0.4790942E-02
 0.5169000E+00 -0.6028751E-02
 0.5180000E+00 -0.7243931E-02
 0.5191000E+00 -0.8426064E-02
 0.5202000E+00 -0.9564999E-02
 0.5213000E+00 -0.1065098E-01
 0.5224000E+00 -0.1167480E-01
 0.5235000E+00 -0.1262788E-01
 0.5246000E+00 -0.1350242E-01
 0.5257000E+00 -0.1429150E-01
 0.5268000E+00 -0.1498913E-01
 0.5279000E+00 -0.1559034E-01
 0.5290000E+00 -0.1609127E-01
 0.5301000E+00 -0.1648916E-01
 0.5312000E+00 -0.1678239E-01
 0.5323000E+00 -0.1697047E-01
 0.5334000E+00 -0.1705405E-01
 0.5345000E+00 -0.1703488E-01
 0.5356000E+00 -0.1691573E-01
 0.5367000E+00 -0.1670037E-01
 0.5378000E+00 -0.1639348E-01
 0.5389000E+00 -0.1600055E-01
 0.5400000E+00 -0.1552780E-01
 0.5411000E+00 -0.1498205E-01
 0.5422000E+00 -0.1437063E-01
 0.5433000E+00 -0.1370128E-01
 0.5444000E+00 -0.1298200E-01
 0.5455000E+00 -0.1222095E-01
 0.5466000E+00 -0.1142635E-01
 0.5477000E+00 -0.1060637E-01
 0.5488000E+00 -0.9768994E-02
 0.5499000E+00 -0.8921969E-02
 0.5510000E+00 -0.8072707E-02
 0.5521000E+00 -0.7228209E-02
 0.5532000E+00 -0.6395002E-02
 0.5543000E+00 -0.5579087E-02
 0.5554000E+00 -0.4785892E-02
 0.5565000E+00 -0.4020242E-02
 0.5576000E+00 -0.3286344E-02
 0.5587000E+00 -0.2587777E-02
 0.5598000E+00 -0.1927490E-02
 0.5609000E+00 -0.1307822E-02
 0.5620000E+00 -0.7305086E-03
 0.5631000E+00 -0.1967129E-03
 0.5642000E+00  0.2929443E-03
 0.5653000E+00  0.7383460E-03
 0.5664000E+00  0.1139836E-02
 0.5675000E+00  0.1498174E-02
 0.5686000E+00  0.1814489E-02
 0.5697000E+00  0.2090230E-02
 0.5708000E+00  0.2327123E-02
 0.5719000E+00  0.2527118E-02
 0.5730000E+00  0.2692345E-02
 0.5741000E+00  0.2825066E-02
 0.5752000E+00  0.2927635E-02
 0.5763000E+00  0.3002462E-02
 0.5774000E+00  0.3051972E-02
 0.5785000E+00  0.3078582E-02
 0.5796000E+00  0.3084669E-02
 0.5807000E+00  0.3072544E-02
 0.5818000E+00  0.3044428E-02
 0.5829000E+00  0.3002440E-02
 0.5840000E+00  0.2948575E-02
 0.5851000E+00  0.2884705E-02
 0.5862000E+00  0.2812568E-02
 0.5873000E+00  0.2733764E-02
 0.5884000E+00  0.2649755E-02
 0.5895000E+00  0.2561861E-02
 0.5906000E+00  0.2471264E-02
 0.5917000E+00  0.2379007E-02
 0.5928000E+00  0.2286010E-02
 0.5939000E+00  0.2193070E-02
 0.5950000E+00  0.2100876E-02
 0.5961000E+00  0.2010013E-02
 0.5972000E+00  0.1920967E-02
 0.5983000E+00  0.1834135E-02
 0.5994000E+00  0.1749831E-02
 0.6005000E+00  0.1668300E-02
 0.6016000E+00  0.1589721E-02
 0.6027000E+00  0.1514224E-02
 0.6038000E+00  0.1441891E-02
 0.6049000E+00  0.1372762E-02
 0.6060000E+00  0.1306841E-02
 0.6071000E+00  0.1244101E-02
 0.6082000E+00  0.1184489E-02
 0.6093000E+00  0.1127934E-02
 0.6104000E+00  0.1074355E-02
 0.6115000E+00  0.1023654E-02
 0.6126000E+00  0.9757287E-03
 0.6137000E+00  0.9304648E-03
 0.6148000E+00  0.8877426E-03
 0.6159000E+00  0.8474386E-03
 0.6170000E+00  0.8094295E-03
 0.6181000E+00  0.7735930E-03
 0.6192000E+00  0.7398085E-03
 0.6203000E+00  0.7079549E-03
 0.6214000E+00  0.6779095E-03
 0.6225000E+00  0.6495483E-03
 0.6236000E+00  0.6227482E-03
 0.6247000E+00  0.5973892E-03
 0.6258000E+00  0.5733564E-03
 0.6269000E+00  0.5505383E-03
 0.6280000E+00  0.5288246E-03
 0.6291000E+00  0.5081032E-03
 0.6302000E+00  0.4882595E-03
 0.6313000E+00  0.4691767E-03
 0.6324000E+00  0.4507384E-03
 0.6335000E+00  0.4328289E-03
 0.6346000E+00  0.4153328E-03
 0.6357000E+00  0.3981315E-03
 0.6368000E+00  0.3811001E-03
 0.6379000E+00  0.3641062E-03
 0.6390000E+00  0.3470104E-03
 0.6401000E+00  0.3296685E-03
 0.6412000E+00  0.3119331E-03
 0.6423000E+00  0.2936532E-03
 0.6434000E+00  0.2746715E-03
 0.6445000E+00  0.2548207E-03
 0.6456000E+00  0.2339218E-03
 0.6467000E+00  0.2117843E-03
 0.6478000E+00  0.1882086E-03
 0.6489000E+00  0.1629886E-03
 0.6500000E+00  0.1359134E-03
 0.6511000E+00  0.1067665E-03
 0.6522000E+00  0.7532554E-04
 0.6533000E+00  0.4136248E-04
 0.6544000E+00  0.4646511E-05
 0.6555000E+00 -0.3505140E-04
 0.6566000E+00 -0.7795370E-04
 0.6577000E+00 -0.1242729E-03
 0.6588000E+00 -0.1742097E-03
 0.6599000E+00 -0.2279521E-03
 0.6610000E+00 -0.2856722E-03
 0.6621000E+00 -0.3475214E-03
 0.6632000E+00 -0.4136226E-03
 0.6643000E+00 -0.4840624E-03
 0.6654000E+00 -0.5588848E-03
 0.6665000E+00 -0.6380871E-03
 0.6676000E+00 -0.7216176E-03
 0.6687000E+00 -0.8093720E-03
 0.6698000E+00 -0.9011881E-03
 0.6709000E+00 -0.9968380E-03
 0.6720000E+00 -0.1096020E-02
 0.6731000E+00 -0.1198354E-02
 0.6742000E+00 -0.1303376E-02
 0.6753000E+00 -0.1410542E-02
 0.6764000E+00 -0.1519227E-02
 0.6775000E+00 -0.1628726E-02
 0.6786000E+00 -0.1738256E-02
 0.6797000E+00 -0.1846949E-02
 0.6808000E+00 -0.1953859E-02
 0.6819000E+00 -0.2057967E-02
 0.6830000E+00 -0.2158188E-02
 0.6841000E+00 -0.2253384E-02
 0.6852000E+00 -0.2342380E-02
 0.6863000E+00 -0.2423973E-02
 0.6874000E+00 -0.2496943E-02
 0.6885000E+00 -0.2560067E-02
 0.6896000E+00 -0.2612134E-02
 0.6907000E+00 -0.2651960E-02
 0.6918000E+00 -0.2678411E-02
 0.6929000E+00 -0.2690422E-02
 0.6940000E+00 -0.2687017E-02
 0.6951000E+00 -0.2667329E-02
 0.6962000E+00 -0.2630613E-02
 0.6973000E+00 -0.2576267E-02
 0.6984000E+00 -0.2503847E-02
 0.6995000E+00 -0.2413084E-02
 0.7006000E+00 -0.2303898E-02
 0.7017000E+00 -0.2176407E-02
 0.7028000E+00 -0.2030933E-02
 0.7039000E+00 -0.1868009E-02
 0.7050000E+00 -0.1688373E-02
 0.7061000E+00 -0.1492971E-02
 0.7072000E+00 -0.1282950E-02
 0.7083000E+00 -0.1059655E-02
 0.7094000E+00 -0.8246115E-03
 0.7105000E+00 -0.5795158E-03
 0.7116000E+00 -0.3262142E-03
 0.7127000E+00 -0.6668307E-04
 0.7138000E+00  0.1969935E-03
 0.7149000E+00  0.4626465E-03
 0.7160000E+00  0.7280485E-03
 0.7171000E+00  0.9909406E-03
 0.7182000E+00  0.1249062E-02
 0.7193000E+00  0.1500183E-02
 0.7204000E+00  0.1742129E-02
 0.7215000E+00  0.1972812E-02
 0.7226000E+00  0.2190252E-02
 0.7237000E+00  0.2392600E-02
 0.7248000E+00  0.2578157E-02
 0.7259000E+00  0.2745389E-02
 0.7270000E+00  0.2892948E-02
 0.7281000E+00  0.3019681E-02
 0.7292000E+00  0.3124638E-02
 0.7303000E+00  0.3207080E-02
 0.7314000E+00  0.3266476E-02
 0.7325000E+00  0.3302501E-02
 0.7336000E+00  0.3315025E-02
 0.7347000E+00  0.3304105E-02
 0.7358000E+00  0.3269970E-02
 0.7369000E+00  0.3213006E-02
 0.7380000E+00  0.3133736E-02
 0.7391000E+00  0.3032803E-02
 0.7402000E+00  0.2910944E-02
 0.7413000E+00  0.2768971E-02
 0.7424000E+00  0.2607743E-02
 0.7435000E+00  0.2428148E-02
 0.7446000E+00  0.2231079E-02
 0.7457000E+00  0.2017412E-02
 0.7468000E+00  0.1787986E-02
 0.7479000E+00  0.1543588E-02
 0.7490000E+00  0.1284937E-02
 0.7501000E+00  0.1012677E-02
 0.7512000E+00  0.7273619E-03
 0.7523000E+00  0.4294601E-03
 0.7534000E+00  0.1193514E-03
 0.7545000E+00 -0.2026664E-03
 0.7556000E+00 -0.5363667E-03
 0.7567000E+00 -0.8815798E-03
 0.7578000E+00 -0.1238175E-02
 0.7589000E+00 -0.1606040E-02
 0.7600000E+00 -0.1985057E-02
 0.7611000E+00 -0.2375072E-02
 0.7622000E+00 -0.2775870E-02
 0.7633000E+00 -0.3187137E-02
 0.7644000E+00 -0.3608422E-02
 0.7655000E+00 -0.4039105E-02
 0.7666000E+00 -0.4478356E-02
 0.7677000E+00 -0.4925104E-02
 0.7688000E+00 -0.5378002E-02
 0.7699000E+00 -0.5835395E-02
 0.7710000E+00 -0.6295295E-02
 0.7721000E+00 -0.6755355E-02
 0.7732000E+00 -0.7212857E-02
 0.7743000E+00 -0.7664691E-02
 0.7754000E+00 -0.8107361E-02
 0.7765000E+00 -0.8536983E-02
 0.7776000E+00 -0.8949304E-02
 0.7787000E+00 -0.9339722E-02
 0.7798000E+00 -0.9703316E-02
 0.7809000E+00 -0.1003489E-01
 0.7820000E+00 -0.1032901E-01
 0.7831000E+00 -0.1058008E-01
 0.7842000E+00 -0.1078238E-01
 0.7853000E+00 -0.1093017E-01
 0.7864000E+00 -0.1101774E-01
 0.7875000E+00 -0.1103953E-01
 0.7886000E+00 -0.1099018E-01
 0.7897000E+00 -0.1086470E-01
 0.7908000E+00 -0.1065846E-01
 0.7919000E+00 -0.1036737E-01
 0.7930000E+00 -0.9987948E-02
 0.7941000E+00 -0.9517385E-02
 0.7952000E+00 -0.8953643E-02
 0.7963000E+00 -0.8295524E-02
 0.7974000E+00 -0.7542733E-02
 0.7985000E+00 -0.6695930E-02
 0.7996000E+00 -0.5756769E-02
 0.8007000E+00 -0.4727921E-02
 0.8018000E+00 -0.3613083E-02
 0.8029000E+00 -0.2416972E-02
 0.8040000E+00 -0.1145298E-02
 0.8051000E+00  0.1952746E-03
 0.8062000E+00  0.1597186E-02
 0.8073000E+00  0.3052049E-02
 0.8084000E+00  0.4550742E-02
 0.8095000E+00  0.6083504E-02
 0.8106000E+00  0.7640059E-02
 0.8117000E+00  0.9209733E-02
 0.8128000E+00  0.1078159E-01
 0.8139000E+00  0.1234456E-01
 0.8150000E+00  0.1388761E-01
 0.8161000E+00  0.1539982E-01
 0.8172000E+00  0.1687060E-01
 0.8183000E+00  0.1828978E-01
 0.8194000E+00  0.1964774E-01
 0.8205000E+00  0.2093556E-01
 0.8216000E+00  0.2214511E-01
 0.8227000E+00  0.2326915E-01
 0.8238000E+00  0.2430145E-01
 0.8249000E+00  0.2523677E-01
 0.8260000E+00  0.2607103E-01
 0.8271000E+00  0.2680124E-01
 0.8282000E+00  0.2742555E-01
 0.8293000E+00  0.2794323E-01
 0.8304000E+00  0.2835469E-01
 0.8315000E+00  0.2866135E-01
 0.8326000E+00  0.2886565E-01
 0.8337000E+00  0.2897096E-01
 0.8348000E+00  0.2898147E-01
 0.8359000E+00  0.2890210E-01
 0.8370000E+00  0.2873840E-01
 0.8381000E+00  0.2849637E-01
 0.8392000E+00  0.2818239E-01
 0.8403000E+00  0.2780303E-01
 0.8414000E+00  0.2736494E-01
 0.8425000E+00  0.2687469E-01
 0.8436000E+00  0.2633866E-01
 0.8447000E+00  0.2576290E-01
 0.8458000E+00  0.2515300E-01
 0.8469000E+00  0.2451396E-01
 0.8480000E+00  0.2385013E-01
 0.8491000E+00  0.2316508E-01
 0.8502000E+00  0.2246158E-01
 0.8513000E+00  0.2174151E-01
 0.8524000E+00  0.2100586E-01
 0.8535000E+00  0.2025471E-01
 0.8546000E+00  0.1948721E-01
 0.8557000E+00  0.1870160E-01
 0.8568000E+00  0.1789529E-01
 0.8579000E+00  0.1706490E-01
 0.8590000E+00  0.1620639E-01
 0.8601000E+00  0.1531511E-01
 0.8612000E+00  0.1438601E-01
 0.8623000E+00  0.1341369E-01
 0.8634000E+00  0.1239259E-01
 0.8645000E+00  0.1131712E-01
 0.8656000E+00  0.1018186E-01
 0.8667000E+00  0.8981719E-02
 0.8678000E+00  0.7712089E-02
 0.8689000E+00  0.6369042E-02
 0.8700000E+00  0.4949464E-02
 0.8711000E+00  0.3451206E-02
 0.8722000E+00  0.1873221E-02
 0.8733000E+00  0.2156834E-03
 0.8744000E+00 -0.1519897E-02
 0.8755000E+00 -0.3330591E-02
 0.8766000E+00 -0.5211996E-02
 0.8777000E+00 -0.7158204E-02
 0.8788000E+00 -0.9161808E-02
 0.8799000E+00 -0.1121392E-01
 0.8810000E+00 -0.1330426E-01
 0.8821000E+00 -0.1542120E-01
 0.8832000E+00 -0.1755188E-01
 0.8843000E+00 -0.1968236E-01
 0.8854000E+00 -0.2179775E-01
 0.8865000E+00 -0.2388245E-01
 0.8876000E+00 -0.2592028E-01
 0.8887000E+00 -0.2789476E-01
 0.8898000E+00 -0.2978929E-01
 0.8909000E+00 -0.3158742E-01
 0.8920000E+00 -0.3327309E-01
 0.8931000E+00 -0.3483081E-01
 0.8942000E+00 -0.3624596E-01
 0.8953000E+00 -0.3750498E-01
 0.8964000E+00 -0.3859561E-01
 0.8975000E+00 -0.3950704E-01
 0.8986000E+00 -0.4023014E-01
 0.8997000E+00 -0.4075754E-01
 0.9008000E+00 -0.4108378E-01
 0.9019000E+00 -0.4120535E-01
 0.9030000E+00 -0.4112083E-01
 0.9041000E+00 -0.4083086E-01
 0.9052000E+00 -0.4033816E-01
 0.9063000E+00 -0.3964749E-01
 0.9074000E+00 -0.3876557E-01
 0.9085000E+00 -0.3770099E-01
 0.9096000E+00 -0.3646406E-01
 0.9107000E+00 -0.3506670E-01
 0.9118000E+00 -0.3352226E-01
 0.9129000E+00 -0.3184532E-01
 0.9140000E+00 -0.3005149E-01
 0.9151000E+00 -0.2815718E-01
 0.9162000E+00 -0.2617940E-01
 0.9173000E+00 -0.2413549E-01
 0.9184000E+00 -0.2204295E-01
 0.9195000E+00 -0.1991918E-01
 0.9206000E+00 -0.1778132E-01
 0.9217000E+00 -0.1564602E-01
 0.9228000E+00 -0.1352923E-01
 0.9239000E+00 -0.1144609E-01
 0.9250000E+00 -0.9410685E-02
 0.9261000E+00 -0.7435996E-02
 0.9272000E+00 -0.5533752E-02
 0.9283000E+00 -0.3714376E-02
 0.9294000E+00 -0.1986921E-02
 0.9305000E+00 -0.3590310E-03
 0.9316000E+00  0.1163075E-02
 0.9327000E+00  0.2574610E-02
 0.9338000E+00  0.3872184E-02
 0.9349000E+00  0.5053753E-02
 0.9360000E+00  0.6118555E-02
 0.9371000E+00  0.7067024E-02
 0.9382000E+00  0.7900706E-02
 0.9393000E+00  0.8622156E-02
 0.9404000E+00  0.9234844E-02
 0.9415000E+00  0.9743039E-02
 0.9426000E+00  0.1015169E-01
 0.9437000E+00  0.1046631E-01
 0.9448000E+00  0.1069285E-01
 0.9459000E+00  0.1083757E-01
 0.9470000E+00  0.1090699E-01
 0.9481000E+00  0.1090773E-01
 0.9492000E+00  0.1084644E-01
 0.9503000E+00  0.1072976E-01
 0.9514000E+00  0.1056416E-01
 0.9525000E+00  0.1035595E-01
 0.9536000E+00  0.1011119E-01
 0.9547000E+00  0.9835655E-02
 0.9558000E+00  0.9534799E-02
 0.9569000E+00  0.9213734E-02
 0.9580000E+00  0.8877208E-02
 0.9591000E+00  0.8529585E-02
 0.9602000E+00  0.8174850E-02
 0.9613000E+00  0.7816601E-02
 0.9624000E+00  0.7458067E-02
 0.9635000E+00  0.7102120E-02
 0.9646000E+00  0.6751289E-02
 0.9657000E+00  0.6407770E-02
 0.9668000E+00  0.6073441E-02
 0.9679000E+00  0.5749879E-02
 0.9690000E+00  0.5438379E-02
 0.9701000E+00  0.5139984E-02
 0.9712000E+00  0.4855502E-02
 0.9723000E+00  0.4585531E-02
 0.9734000E+00  0.4330469E-02
 0.9745000E+00  0.4090519E-02
 0.9756000E+00  0.3865703E-02
 0.9767000E+00  0.3655875E-02
 0.9778000E+00  0.3460740E-02
 0.9789000E+00  0.3279878E-02