-0.1200000E+00  0.0000000E+00
-0.1189000E+00  0.0000000E+00
-0.1178000E+00  0.0000000E+00
-0.1167000E+00  0.0000000E+00
-0.1156000E+00  0.0000000E+00
-0.1145000E+00  0.0000000E+00
-0.1134000E+00  0.0000000E+00
-0.1123000E+00  0.0000000E+00
-0.1112000E+00  0.0000000E+00
-0.1101000E+00  0.0000000E+00
-0.1090000E+00  0.0000000E+00
-0.1079000E+00  0.0000000E+00
-0.1068000E+00  0.0000000E+00
-0.1057000E+00  0.0000000E+00
-0.1046000E+00  0.0000000E+00
-0.1035000E+00  0.0000000E+00
-0.1024000E+00  0.0000000E+00
-0.1013000E+00  0.0000000E+00
-0.1002000E+00  0.0000000E+00
-0.9910000E-01  0.0000000E+00
-0.9800000E-01  0.0000000E+00
-0.9690000E-01  0.0000000E+00
-0.9580000E-01  0.0000000E+00
-0.9470000E-01  0.0000000E+00
-0.9360000E-01  0.0000000E+00
-0.9250000E-01  0.0000000E+00
-0.9140000E-01  0.0000000E+00
-0.9030000E-01  0.0000000E+00
-0.8920000E-01  0.0000000E+00
-0.8810000E-01  0.0000000E+00
-0.8700000E-01  0.0000000E+00
-0.8590000E-01  0.0000000E+00
-0.8480000E-01  0.0000000E+00
-0.8370000E-01  0.0000000E+00
-0.8260000E-01  0.0000000E+00
-0.8150000E-01  0.0000000E+00
-0.8040000E-01  0.0000000E+00
-0.7930000E-01  0.0000000E+00
-0.7820000E-01  0.0000000E+00
-0.7710000E-01  0.0000000E+00
-0.7600000E-01  0.0000000E+00
-0.7490000E-01  0.0000000E+00
-0.7380000E-01  0.0000000E+00
-0.7270000E-01  0.0000000E+00
-0.7160000E-01  0.0000000E+00
-0.7050000E-01  0.0000000E+00
-0.6940000E-01  0.0000000E+00
-0.6830000E-01  0.0000000E+00
-0.6720000E-01  0.0000000E+00
-0.6610000E-01  0.0000000E+00
-0.6500000E-01  0.0000000E+00
-0.6390000E-01  0.0000000E+00
-0.6280000E-01  0.0000000E+00
-0.6170000E-01  0.0000000E+00
-0.6060000E-01  0.0000000E+00
-0.5950000E-01  0.0000000E+00
-0.5840000E-01  0.0000000E+00
-0.5730000E-01  0.0000000E+00
-0.5620000E-01  0.0000000E+00
-0.5510000E-01  0.0000000E+00
-0.5400000E-01  0.0000000E+00
-0.5290000E-01  0.0000000E+00
-0.5180000E-01  0.0000000E+00
-0.5070000E-01  0.0000000E+00
-0.4960000E-01  0.0000000E+00
-0.4850000E-01  0.0000000E+00
-0.4740000E-01  0.0000000E+00
-0.4630000E-01  0.0000000E+00
-0.4520000E-01  0.0000000E+00
-0.4410000E-01  0.0000000E+00
-0.4300000E-01  0.0000000E+00
-0.4190000E-01  0.0000000E+00
-0.4080000E-01  0.0000000E+00
-0.3970000E-01  0.0000000E+00
-0.3860000E-01  0.0000000E+00
-0.3750000E-01  0.0000000E+00
-0.3640000E-01  0.0000000E+00
-0.3530000E-01  0.0000000E+00
-0.3420000E-01  0.0000000E+00
-0.3310000E-01  0.0000000E+00
-0.3200000E-01  0.0000000E+00
-0.3090000E-01  0.0000000E+00
-0.2980000E-01  0.0000000E+00
-0.2870000E-01  0.0000000E+00
-0.2760000E-01  0.0000000E+00
-0.2650000E-01  0.0000000E+00
-0.2540000E-01  0.0000000E+00
-0.2430000E-01  0.0000000E+00
-0.2320000E-01  0.0000000E+00
-0.2210000E-01  0.0000000E+00
-0.2100000E-01  0.0000000E+00
-0.1990000E-01  0.0000000E+00
-0.1880000E-01  0.0000000E+00
-0.1770000E-01  0.0000000E+00
-0.1660000E-01  0.0000000E+00
-0.1550000E-01  0.0000000E+00
-0.1440000E-01  0.0000000E+00
-0.1330000E-01  0.0000000E+00
-0.1220000E-01  0.0000000E+00
-0.1110000E-01  0.0000000E+00
-0.1000000E-01  0.0000000E+00
-0.8900000E-02  0.0000000E+00
-0.7800000E-02  0.0000000E+00
-0.6700000E-02  0.0000000E+00
-0.5600000E-02  0.0000000E+00
-0.4500000E-02  0.0000000E+00
-0.3400000E-02  0.0000000E+00
-0.2300000E-02  0.0000000E+00
-0.1200000E-02  0.0000000E+00
-0.1000000E-03  0.0000000E+00
 0.1000000E-02  0.0000000E+00
 0.2100000E-02  0.0000000E+00
 0.3200000E-02  0.0000000E+00
 0.4300000E-02  0.0000000E+00
 0.5400000E-02  0.0000000E+00
 0.6500000E-02  0.0000000E+00
 0.7600000E-02  0.0000000E+00
 0.8700000E-02  0.0000000E+00
 0.9800000E-02  0.0000000E+00
 0.1090000E-01  0.0000000E+00
 0.1200000E-01  0.0000000E+00
 0.1310000E-01  0.0000000E+00
 0.1420000E-01  0.0000000E+00
 0.1530000E-01  0.0000000E+00
 0.1640000E-01  0.0000000E+00
 0.1750000E-01  0.0000000E+00
 0.1860000E-01  0.0000000E+00
 0.1970000E-01  0.0000000E+00
 0.2080000E-01  0.0000000E+00
 0.2190000E-01  0.0000000E+00
 0.2300000E-01  0.0000000E+00
 0.2410000E-01  0.0000000E+00
 0.2520000E-01  0.0000000E+00
 0.2630000E-01  0.0000000E+00
 0.2740000E-01  0.0000000E+00
 0.2850000E-01  0.0000000E+00
 0.2960000E-01  0.0000000E+00
 0.3070000E-01  0.0000000E+00
 0.3180000E-01  0.0000000E+00
 0.3290000E-01  0.0000000E+00
 0.3400000E-01  0.0000000E+00
 0.3510000E-01  0.0000000E+00
 0.3620000E-01  0.0000000E+00
 0.3730000E-01  0.0000000E+00
 0.3840000E-01  0.0000000E+00
 0.3950000E-01  0.0000000E+00
 0.4060000E-01  0.0000000E+00
 0.4170000E-01  0.0000000E+00
 0.4280000E-01  0.0000000E+00
 0.4390000E-01  0.0000000E+00
 0.4500000E-01  0.0000000E+00
 0.4610000E-01  0.0000000E+00
 0.4720000E-01  0.0000000E+00
 0.4830000E-01  0.0000000E+00
 0.4940000E-01  0.0000000E+00
 0.5050000E-01  0.0000000E+00
 0.5160000E-01  0.0000000E+00
 0.5270000E-01  0.0000000E+00
 0.5380000E-01  0.0000000E+00
 0.5490000E-01  0.0000000E+00
 0.5600000E-01  0.0000000E+00
 0.5710000E-01  0.0000000E+00
 0.5820000E-01  0.0000000E+00
 0.5930000E-01  0.0000000E+00
 0.6040000E-01  0.0000000E+00
 0.6150000E-01  0.0000000E+00
 0.6260000E-01  0.0000000E+00
 0.6370000E-01  0.0000000E+00
 0.6480000E-01  0.0000000E+00
 0.6590000E-01  0.0000000E+00
 0.6700000E-01  0.0000000E+00
 0.6810000E-01  0.0000000E+00
 0.6920000E-01  0.0000000E+00
 0.7030000E-01  0.0000000E+00
 0.7140000E-01  0.0000000E+00
 0.7250000E-01  0.0000000E+00
 0.7360000E-01  0.0000000E+00
 0.7470000E-01  0.0000000E+00
 0.7580000E-01  0.0000000E+00
 0.7690000E-01  0.0000000E+00
 0.7800000E-01  0.0000000E+00
 0.7910000E-01  0.0000000E+00
 0.8020000E-01  0.0000000E+00
 0.8130000E-01  0.0000000E+00
 0.8240000E-01  0.0000000E+00
 0.8350000E-01  0.0000000E+00
 0.8460000E-01  0.0000000E+00
 0.8570000E-01  0.0000000E+00
 0.8680000E-01  0.0000000E+00
 0.8790000E-01  0.0000000E+00
 0.8900000E-01  0.0000000E+00
 0.9010000E-01  0.0000000E+00
 0.9120000E-01  0.0000000E+00
 0.9230000E-01  0.0000000E+00
 0.9340000E-01  0.0000000E+00
 0.9450000E-01  0.0000000E+00
 0.9560000E-01  0.0000000E+00
 0.9670000E-01  0.0000000E+00
 0.9780000E-01  0.0000000E+00
 0.9890000E-01  0.0000000E+00
 0.1000000E+00  0.0000000E+00
 0.1011000E+00  0.0000000E+00
 0.1022000E+00  0.0000000E+00
 0.1033000E+00  0.0000000E+00
 0.1044000E+00  0.0000000E+00
 0.1055000E+00  0.0000000E+00
 0.1066000E+00  0.0000000E+00
 0.1077000E+00  0.0000000E+00
 0.1088000E+00  0.0000000E+00
 0.1099000E+00  0.0000000E+00
 0.1110000E+00  0.0000000E+00
 0.1121000E+00  0.0000000E+00
 0.1132000E+00  0.0000000E+00
 0.1143000E+00  0.0000000E+00
 0.1154000E+00  0.0000000E+00
 0.1165000E+00  0.0000000E+00
 0.1176000E+00  0.0000000E+00
 0.1187000E+00  0.0000000E+00
 0.1198000E+00  0.0000000E+00
 0.1209000E+00  0.0000000E+00
 0.1220000E+00  0.0000000E+00
 0.1231000E+00  0.0000000E+00
 0.1242000E+00  0.0000000E+00
 0.1253000E+00  0.0000000E+00
 0.1264000E+00  0.0000000E+00
 0.1275000E+00  0.0000000E+00
 0.1286000E+00  0.0000000E+00
 0.1297000E+00  0.0000000E+00
 0.1308000E+00  0.0000000E+00
 0.1319000E+00  0.0000000E+00
 0.1330000E+00  0.0000000E+00
 0.1341000E+00  0.0000000E+00
 0.1352000E+00  0.0000000E+00
 0.1363000E+00  0.0000000E+00
 0.1374000E+00  0.0000000E+00
 0.1385000E+00  0.0000000E+00
 0.1396000E+00  0.0000000E+00
 0.1407000E+00  0.0000000E+00
 0.1418000E+00  0.0000000E+00
 0.1429000E+00  0.0000000E+00
 0.1440000E+00  0.0000000E+00
 0.1451000E+00  0.0000000E+00
 0.1462000E+00  0.0000000E+00
 0.1473000E+00  0.0000000E+00
 0.1484000E+00  0.0000000E+00
 0.1495000E+00  0.0000000E+00
 0.1506000E+00  0.0000000E+00
 0.1517000E+00  0.0000000E+00
 0.1528000E+00  0.0000000E+00
 0.1539000E+00  0.0000000E+00
 0.1550000E+00  0.0000000E+00
 0.1561000E+00  0.0000000E+00
 0.1572000E+00  0.0000000E+00
 0.1583000E+00  0.0000000E+00
 0.1594000E+00  0.0000000E+00
 0.1605000E+00  0.0000000E+00
 0.1616000E+00  0.0000000E+00
 0.1627000E+00  0.0000000E+00
 0.1638000E+00  0.0000000E+00
 0.1649000E+00  0.0000000E+00
 0.1660000E+00  0.0000000E+00
 0.1671000E+00  0.0000000E+00
 0.1682000E+00  0.0000000E+00
 0.1693000E+00  0.0000000E+00
 0.1704000E+00  0.0000000E+00
 0.1715000E+00  0.0000000E+00
 0.1726000E+00  0.0000000E+00
 0.1737000E+00  0.0000000E+00
 0.1748000E+00  0.0000000E+00
 0.1759000E+00  0.0000000E+00
 0.1770000E+00  0.0000000E+00
 0.1781000E+00  0.0000000E+00
 0.1792000E+00  0.0000000E+00
 0.1803000E+00  0.0000000E+00
 0.1814000E+00  0.0000000E+00
 0.1825000E+00  0.0000000E+00
 0.1836000E+00  0.0000000E+00
 0.1847000E+00  0.0000000E+00
 0.1858000E+00  0.0000000E+00
 0.1869000E+00  0.0000000E+00
 0.1880000E+00  0.0000000E+00
 0.1891000E+00  0.0000000E+00
 0.1902000E+00  0.0000000E+00
 0.1913000E+00  0.0000000E+00
 0.1924000E+00  0.0000000E+00
 0.1935000E+00  0.0000000E+00
 0.1946000E+00  0.0000000E+00
 0.1957000E+00  0.0000000E+00
 0.1968000E+00  0.0000000E+00
 0.1979000E+00  0.0000000E+00
 0.1990000E+00  0.0000000E+00
 0.2001000E+00  0.3126140E-37
 0.2012000E+00  0.7536407E-37
 0.2023000E+00  0.7588767E-37
 0.2034000E+00 -0.0000000E+00
 0.2045000E+00 -0.1342926E-36
 0.2056000E+00 -0.2371739E-36
 0.2067000E+00 -0.1568454E-36
 0.2078000E+00  0.1236685E-36
 0.2089000E+00  0.5182943E-36
 0.2100000E+00  0.7225748E-36
 0.2111000E+00  0.4545563E-36
 0.2122000E+00 -0.3154991E-36
 0.2133000E+00 -0.1268645E-35
 0.2144000E+00 -0.1787855E-35
 0.2155000E+00 -0.1332315E-35
 0.2166000E+00  0.2082367E-36
 0.2177000E+00  0.2295641E-35
 0.2188000E+00  0.3852115E-35
 0.2199000E+00  0.3716143E-35
 0.2210000E+00  0.1284367E-35
 0.2221000E+00 -0.2950306E-35
 0.2232000E+00 -0.7274789E-35
 0.2243000E+00 -0.9234914E-35
 0.2254000E+00 -0.6676751E-35
 0.2265000E+00  0.9293472E-36
 0.2276000E+00  0.1147862E-34
 0.2287000E+00  0.2022358E-34
 0.2298000E+00  0.2126905E-34
 0.2309000E+00  0.1043184E-34
 0.2320000E+00 -0.1148265E-34
 0.2331000E+00 -0.3680165E-34
 0.2342000E+00 -0.5230471E-34
 0.2353000E+00 -0.4439241E-34
 0.2364000E+00 -0.7008539E-35
 0.2375000E+00  0.5132284E-34
 0.2386000E+00  0.1059423E-33
 0.2397000E+00  0.1233658E-33
 0.2408000E+00  0.7704622E-34
 0.2419000E+00 -0.3397872E-34
 0.2430000E+00 -0.1734359E-33
 0.2441000E+00 -0.2729991E-33
 0.2452000E+00 -0.2583884E-33
 0.2463000E+00 -0.8994004E-34
 0.2474000E+00  0.2000693E-33
 0.2485000E+00  0.4962966E-33
 0.2496000E+00  0.6325763E-33
 0.2507000E+00  0.4664640E-33
 0.2518000E+00 -0.2983958E-34
 0.2529000E+00 -0.7078522E-33
 0.2540000E+00 -0.1257345E-32
 0.2551000E+00 -0.1318648E-32
 0.2562000E+00 -0.6668058E-33
 0.2573000E+00  0.6092898E-33
 0.2584000E+00  0.2036403E-32
 0.2595000E+00  0.2876394E-32
 0.2606000E+00  0.2439944E-32
 0.2617000E+00  0.4906335E-33
 0.2628000E+00 -0.2454321E-32
 0.2639000E+00 -0.5133832E-32
 0.2650000E+00 -0.5971728E-32
 0.2661000E+00 -0.3837293E-32
 0.2672000E+00  0.1167161E-32
 0.2683000E+00  0.7321052E-32
 0.2694000E+00  0.1166023E-31
 0.2705000E+00  0.1117218E-31
 0.2716000E+00  0.4437007E-32
 0.2727000E+00 -0.7038854E-32
 0.2738000E+00 -0.1863928E-31
 0.2749000E+00 -0.2410133E-31
 0.2760000E+00 -0.1837963E-31
 0.2771000E+00 -0.8116349E-33
 0.2782000E+00  0.2305252E-31
 0.2793000E+00  0.4240334E-31
 0.2804000E+00  0.4530853E-31
 0.2815000E+00  0.2481962E-31
 0.2826000E+00 -0.1563832E-31
 0.2837000E+00 -0.6076119E-31
 0.2848000E+00 -0.8781416E-31
 0.2859000E+00 -0.7652401E-31
 0.2870000E+00 -0.2078386E-31
 0.2881000E+00  0.6359171E-31
 0.2892000E+00  0.1404906E-30
 0.2903000E+00  0.1665531E-30
 0.2914000E+00  0.1121564E-30
 0.2925000E+00 -0.1851244E-31
 0.2936000E+00 -0.1793521E-30
 0.2947000E+00 -0.2941937E-30
 0.2958000E+00 -0.2882796E-30
 0.2969000E+00 -0.1284377E-30
 0.2980000E+00  0.1468951E-30
 0.2991000E+00  0.4268032E-30
 0.3002000E+00  0.5652243E-30
 0.3013000E+00  0.4478334E-30
 0.3024000E+00  0.6160841E-31
 0.3035000E+00 -0.4689736E-30
 0.3046000E+00 -0.9078254E-30
 0.3057000E+00 -0.9992885E-30
 0.3068000E+00 -0.5966097E-30
 0.3079000E+00  0.2304341E-30
 0.3090000E+00  0.1171116E-29
 0.3101000E+00  0.1768536E-29
 0.3112000E+00  0.1617025E-29
 0.3123000E+00  0.5873238E-30
 0.3134000E+00 -0.1030274E-29
 0.3145000E+00 -0.2561674E-29
 0.3156000E+00 -0.3193453E-29
 0.3167000E+00 -0.2355428E-29
 0.3178000E+00 -0.8019538E-31
 0.3189000E+00  0.2852258E-29
 0.3200000E+00  0.5116257E-29
 0.3211000E+00  0.5375650E-29
 0.3222000E+00  0.2964733E-29
 0.3233000E+00 -0.1596292E-29
 0.3244000E+00 -0.6557624E-29
 0.3255000E+00 -0.9511065E-29
 0.3266000E+00 -0.8441798E-29
 0.3277000E+00 -0.2847835E-29
 0.3288000E+00  0.5623230E-29
 0.3299000E+00  0.1346242E-28
 0.3310000E+00  0.1659578E-28
 0.3321000E+00  0.1228387E-28
 0.3332000E+00  0.8173164E-30
 0.3343000E+00 -0.1389032E-28
 0.3354000E+00 -0.2537262E-28
 0.3365000E+00 -0.2720463E-28
 0.3376000E+00 -0.1618930E-28
 0.3387000E+00  0.5308216E-29
 0.3398000E+00  0.2923232E-28
 0.3409000E+00  0.4448466E-28
 0.3420000E+00  0.4167257E-28
 0.3431000E+00  0.1809258E-28
 0.3442000E+00 -0.1944961E-28
 0.3453000E+00 -0.5584791E-28
 0.3464000E+00 -0.7322891E-28
 0.3475000E+00 -0.5904709E-28
 0.3486000E+00 -0.1334246E-28
 0.3497000E+00  0.4856096E-28
 0.3508000E+00  0.1002071E-27
 0.3519000E+00  0.1144484E-27
 0.3530000E+00  0.7643498E-28
 0.3541000E+00 -0.6609016E-29
 0.3552000E+00 -0.1042234E-27
 0.3563000E+00 -0.1725109E-27
 0.3574000E+00 -0.1724307E-27
 0.3585000E+00 -0.8952457E-28
 0.3596000E+00  0.5410248E-28
 0.3607000E+00  0.2028426E-27
 0.3618000E+00  0.2872267E-27
 0.3629000E+00  0.2540637E-27
 0.3640000E+00  0.9480522E-28
 0.3651000E+00 -0.1416593E-27
 0.3662000E+00 -0.3608107E-27
 0.3673000E+00 -0.4579872E-27
 0.3684000E+00 -0.3652587E-27
 0.3695000E+00 -0.8975163E-28
 0.3706000E+00  0.2761071E-27
 0.3717000E+00  0.5822528E-27
 0.3728000E+00  0.6802932E-27
 0.3739000E+00  0.4922379E-27
 0.3750000E+00  0.5813122E-28
 0.3761000E+00 -0.4632638E-27
 0.3772000E+00 -0.8489311E-27
 0.3783000E+00 -0.9048812E-27
 0.3794000E+00 -0.5609027E-27
 0.3805000E+00  0.7750587E-28
 0.3816000E+00  0.7515343E-27
 0.3827000E+00  0.1147481E-26
 0.3838000E+00  0.1037236E-26
 0.3849000E+00  0.4012519E-27
 0.3860000E+00 -0.5273905E-27
 0.3871000E+00 -0.1332279E-26
 0.3882000E+00 -0.1583026E-26
 0.3893000E+00 -0.1041702E-26
 0.3904000E+00  0.1851535E-27
 0.3915000E+00  0.1630788E-26
 0.3926000E+00  0.2620882E-26
 0.3937000E+00  0.2553433E-26
 0.3948000E+00  0.1198092E-26
 0.3959000E+00 -0.1120675E-26
 0.3970000E+00 -0.3561947E-26
 0.3981000E+00 -0.5049708E-26
 0.3992000E+00 -0.4711137E-26
 0.4003000E+00 -0.2300326E-26
 0.4014000E+00  0.1584925E-26
 0.4025000E+00  0.5622195E-26
 0.4036000E+00  0.8217029E-26
 0.4047000E+00  0.8137057E-26
 0.4058000E+00  0.5073349E-26
 0.4069000E+00 -0.1269878E-27
 0.4080000E+00 -0.5699034E-26
 0.4091000E+00 -0.9617602E-26
 0.4102000E+00 -0.1042705E-25
 0.4113000E+00 -0.7888379E-26
 0.4124000E+00 -0.3130200E-26
 0.4135000E+00  0.1817255E-26
 0.4146000E+00  0.4950862E-26
 0.4157000E+00  0.5291011E-26
 0.4168000E+00  0.3462596E-26
 0.4179000E+00  0.1506979E-26
 0.4190000E+00  0.1891833E-26
 0.4201000E+00  0.6076836E-26
 0.4212000E+00  0.1328225E-25
 0.4223000E+00  0.2014046E-25
 0.4234000E+00  0.2162632E-25
 0.4245000E+00  0.1313584E-25
 0.4256000E+00 -0.6989055E-26
 0.4267000E+00 -0.3555621E-25
 0.4278000E+00 -0.6426272E-25
 0.4289000E+00 -0.8159839E-25
 0.4300000E+00 -0.7661063E-25
 0.4311000E+00 -0.4338774E-25
 0.4322000E+00  0.1538743E-25
 0.4333000E+00  0.8737035E-25
 0.4344000E+00  0.1528020E-24
 0.4355000E+00  0.1897470E-24
 0.4366000E+00  0.1808465E-24
 0.4377000E+00  0.1194085E-24
 0.4388000E+00  0.1273389E-25
 0.4399000E+00 -0.1185635E-24
 0.4410000E+00 -0.2451296E-24
 0.4421000E+00 -0.3359035E-24
 0.4432000E+00 -0.3654230E-24
 0.4443000E+00 -0.3193224E-24
 0.4454000E+00 -0.1968625E-24
 0.4465000E+00 -0.1061383E-25
 0.4476000E+00  0.2155502E-24
 0.4487000E+00  0.4487398E-24
 0.4498000E+00  0.6488941E-24
 0.4509000E+00  0.7707616E-24
 0.4520000E+00  0.7677832E-24
 0.4531000E+00  0.5998888E-24
 0.4542000E+00  0.2460311E-24
 0.4553000E+00 -0.2802383E-24
 0.4564000E+00 -0.9168224E-24
 0.4575000E+00 -0.1547537E-23
 0.4586000E+00 -0.2011637E-23
 0.4597000E+00 -0.2132045E-23
 0.4608000E+00 -0.1760276E-23
 0.4619000E+00 -0.8293341E-24
 0.4630000E+00  0.5997111E-24
 0.4641000E+00  0.2313914E-23
 0.4652000E+00  0.3961014E-23
 0.4663000E+00  0.5104266E-23
 0.4674000E+00  0.5314399E-23
 0.4685000E+00  0.4282142E-23
 0.4696000E+00  0.1926173E-23
 0.4707000E+00 -0.1531691E-23
 0.4718000E+00 -0.5548594E-23
 0.4729000E+00 -0.9314735E-23
 0.4740000E+00 -0.1188022E-22
 0.4751000E+00 -0.1234006E-22
 0.4762000E+00 -0.1004891E-22
 0.4773000E+00 -0.4826773E-23
 0.4784000E+00  0.2888240E-23
 0.4795000E+00  0.1198310E-22
 0.4806000E+00  0.2074381E-22
 0.4817000E+00  0.2707885E-22
 0.4828000E+00  0.2888595E-22
 0.4839000E+00  0.2452389E-22
 0.4850000E+00  0.1331525E-22
 0.4861000E+00 -0.4025607E-23
 0.4872000E+00 -0.2516293E-22
 0.4883000E+00 -0.4622448E-22
 0.4894000E+00 -0.6227720E-22
 0.4905000E+00 -0.6819576E-22
 0.4916000E+00 -0.5982766E-22
 0.4927000E+00 -0.3525381E-22
 0.4938000E+00  0.4139186E-23
 0.4949000E+00  0.5309138E-22
 0.4960000E+00  0.1026831E-21
 0.4971000E+00  0.1414848E-21
 0.4982000E+00  0.1576080E-21
 0.4993000E+00  0.1413916E-21
 0.5004000E+00  0.8824282E-22
 0.5015000E+00  0.9951508E-24
 0.5026000E+00 -0.1088858E-21
 0.5037000E+00 -0.2218078E-21
 0.5048000E+00 -0.3125608E-21
 0.5059000E+00 -0.3547277E-21
 0.5070000E+00 -0.3264436E-21
 0.5081000E+00 -0.2165142E-21
 0.5092000E+00 -0.2959377E-22
 0.5103000E+00  0.2109711E-21
 0.5114000E+00  0.4638383E-21
 0.5125000E+00  0.6746120E-21
 0.5136000E+00  0.7849554E-21
 0.5147000E+00  0.7448478E-21
 0.5158000E+00  0.5259976E-21
 0.5169000E+00  0.1336589E-21
 0.5180000E+00 -0.3862268E-21
 0.5191000E+00 -0.9473653E-21
 0.5202000E+00 -0.1432720E-20
 0.5213000E+00 -0.1713534E-20
 0.5224000E+00 -0.1675763E-20
 0.5235000E+00 -0.1249720E-20
 0.5246000E+00 -0.4369141E-21
 0.5257000E+00  0.6727791E-21
 0.5268000E+00  0.1899963E-20
 0.5279000E+00  0.2994799E-20
 0.5290000E+00  0.3676900E-20
 0.5301000E+00  0.3691951E-20
 0.5312000E+00  0.2876107E-20
 0.5323000E+00  0.1215251E-20
 0.5334000E+00 -0.1115751E-20
 0.5345000E+00 -0.3747633E-20
 0.5356000E+00 -0.6154549E-20
 0.5367000E+00 -0.7736804E-20
 0.5378000E+00 -0.7940288E-20
 0.5389000E+00 -0.6393993E-20
 0.5400000E+00 -0.3038359E-20
 0.5411000E+00  0.1787206E-20
 0.5422000E+00  0.7327503E-20
 0.5433000E+00  0.1248620E-19
 0.5444000E+00  0.1599673E-19
 0.5455000E+00  0.1667304E-19
 0.5466000E+00  0.1370167E-19
 0.5477000E+00  0.6917476E-20
 0.5488000E+00 -0.3004600E-20
 0.5499000E+00 -0.1450652E-19
 0.5510000E+00 -0.2529872E-19
 0.5521000E+00 -0.3271827E-19
 0.5532000E+00 -0.3426018E-19
 0.5543000E+00 -0.2820004E-19
 0.5554000E+00 -0.1418452E-19
 0.5565000E+00  0.6356602E-20
 0.5576000E+00  0.3011743E-19
 0.5587000E+00  0.5224266E-19
 0.5598000E+00  0.6710056E-19
 0.5609000E+00  0.6943050E-19
 0.5620000E+00  0.5568672E-19
 0.5631000E+00  0.2530869E-19
 0.5642000E+00 -0.1840222E-19
 0.5653000E+00 -0.6810829E-19
 0.5664000E+00 -0.1131839E-18
 0.5675000E+00 -0.1414451E-18
 0.5686000E+00 -0.1417004E-18
 0.5697000E+00 -0.1067263E-18
 0.5708000E+00 -0.3606549E-19
 0.5719000E+00  0.6206979E-19
 0.5730000E+00  0.1704852E-18
 0.5741000E+00  0.2647851E-18
 0.5752000E+00  0.3173853E-18
 0.5763000E+00  0.3034034E-18
 0.5774000E+00  0.2075260E-18
 0.5785000E+00  0.3047361E-19
 0.5796000E+00 -0.2066036E-18
 0.5807000E+00 -0.4614375E-18
 0.5818000E+00 -0.6748769E-18
 0.5829000E+00 -0.7804364E-18
 0.5840000E+00 -0.7184026E-18
 0.5851000E+00 -0.4524455E-18
 0.5862000E+00  0.1449355E-19
 0.5873000E+00  0.6290227E-18
 0.5884000E+00  0.1284864E-17
 0.5895000E+00  0.1832317E-17
 0.5906000E+00  0.2100923E-17
 0.5917000E+00  0.1933932E-17
 0.5928000E+00  0.1230046E-17
 0.5939000E+00 -0.1512867E-19
 0.5950000E+00 -0.1677642E-17
 0.5961000E+00 -0.3494066E-17
 0.5972000E+00 -0.5079403E-17
 0.5983000E+00 -0.5978708E-17
 0.5994000E+00 -0.5750870E-17
 0.6005000E+00 -0.4075226E-17
 0.6016000E+00 -0.8637640E-18
 0.6027000E+00  0.3644752E-17
 0.6038000E+00  0.8835435E-17
 0.6049000E+00  0.1373743E-16
 0.6060000E+00  0.1713034E-16
 0.6071000E+00  0.1773954E-16
 0.6082000E+00  0.1450442E-16
 0.6093000E+00  0.6882765E-17
 0.6104000E+00 -0.4864595E-17
 0.6115000E+00 -0.1947676E-16
 0.6126000E+00 -0.3465308E-16
 0.6137000E+00 -0.4722717E-16
 0.6148000E+00 -0.5358213E-16
 0.6159000E+00 -0.5029134E-16
 0.6170000E+00 -0.3491646E-16
 0.6181000E+00 -0.6840859E-17
 0.6192000E+00  0.3202682E-16
 0.6203000E+00  0.7686637E-16
 0.6214000E+00  0.1200536E-15
 0.6225000E+00  0.1518884E-15
 0.6236000E+00  0.1619793E-15
 0.6247000E+00  0.1411954E-15
 0.6258000E+00  0.8395500E-16
 0.6269000E+00 -0.9518764E-17
 0.6280000E+00 -0.1314454E-15
 0.6291000E+00 -0.2657460E-15
 0.6302000E+00 -0.3887654E-15
 0.6313000E+00 -0.4717474E-15
 0.6324000E+00 -0.4850863E-15
 0.6335000E+00 -0.4040293E-15
 0.6346000E+00 -0.2151215E-15
 0.6357000E+00  0.7766285E-16
 0.6368000E+00  0.4484080E-15
 0.6379000E+00  0.8477196E-15
 0.6390000E+00  0.1205338E-14
 0.6401000E+00  0.1437607E-14
 0.6412000E+00  0.1459764E-14
 0.6423000E+00  0.1202099E-14
 0.6434000E+00  0.6279883E-15
 0.6445000E+00 -0.2490994E-15
 0.6456000E+00 -0.1353182E-14
 0.6467000E+00 -0.2541622E-14
 0.6478000E+00 -0.3612441E-14
 0.6489000E+00 -0.4325031E-14
 0.6500000E+00 -0.4434187E-14
 0.6511000E+00 -0.3734910E-14
 0.6522000E+00 -0.2112687E-14
 0.6533000E+00  0.4085274E-15
 0.6544000E+00  0.3630130E-14
 0.6555000E+00  0.7164471E-14
 0.6566000E+00  0.1045101E-13
 0.6577000E+00  0.1280864E-13
 0.6588000E+00  0.1352497E-13
 0.6599000E+00  0.1197668E-13
 0.6610000E+00  0.7768185E-14
 0.6621000E+00  0.8687481E-15
 0.6632000E+00 -0.8276746E-14
 0.6643000E+00 -0.1869055E-13
 0.6654000E+00 -0.2888330E-13
 0.6665000E+00 -0.3697184E-13
 0.6676000E+00 -0.4089939E-13
 0.6687000E+00 -0.3874778E-13
 0.6698000E+00 -0.2911229E-13
 0.6709000E+00 -0.1149132E-13
 0.6720000E+00  0.1337234E-13
 0.6731000E+00  0.4327039E-13
 0.6742000E+00  0.7449782E-13
 0.6753000E+00  0.1020682E-12
 0.6764000E+00  0.1202047E-12
 0.6775000E+00  0.1230990E-12
 0.6786000E+00  0.1058805E-12
 0.6797000E+00  0.6569327E-13
 0.6808000E+00  0.2727243E-14
 0.6819000E+00 -0.7897639E-13
 0.6830000E+00 -0.1711395E-12
 0.6841000E+00 -0.2614538E-12
 0.6852000E+00 -0.3345027E-12
 0.6863000E+00 -0.3734332E-12
 0.6874000E+00 -0.3623042E-12
 0.6885000E+00 -0.2889056E-12
 0.6896000E+00 -0.1477202E-12
 0.6907000E+00  0.5740784E-13
 0.6918000E+00  0.3113944E-12
 0.6929000E+00  0.5873226E-12
 0.6940000E+00  0.8475511E-12
 0.6951000E+00  0.1046781E-11
 0.6962000E+00  0.1137095E-11
 0.6973000E+00  0.1074684E-11
 0.6984000E+00  0.8276595E-12
 0.6995000E+00  0.3840184E-12
 0.7006000E+00 -0.2413917E-12
 0.7017000E+00 -0.1002216E-11
 0.7028000E+00 -0.1819499E-11
 0.7039000E+00 -0.2585187E-11
 0.7050000E+00 -0.3170814E-11
 0.7061000E+00 -0.3441353E-11
 0.7072000E+00 -0.3273407E-11
 0.7083000E+00 -0.2576151E-11
 0.7094000E+00 -0.1312622E-11
 0.7105000E+00  0.4816113E-12
 0.7116000E+00  0.2685673E-11
 0.7127000E+00  0.5089671E-11
 0.7138000E+00  0.7402647E-11
 0.7149000E+00  0.9273753E-11
 0.7160000E+00  0.1032670E-10
 0.7171000E+00  0.1020572E-10
 0.7182000E+00  0.8629372E-11
 0.7193000E+00  0.5446596E-11
 0.7204000E+00  0.6879566E-12
 0.7215000E+00 -0.5395778E-11
 0.7226000E+00 -0.1231567E-10
 0.7237000E+00 -0.1935405E-10
 0.7248000E+00 -0.2560603E-10
 0.7259000E+00 -0.3005455E-10
 0.7270000E+00 -0.3167633E-10
 0.7281000E+00 -0.2957168E-10
 0.7292000E+00 -0.2310654E-10
 0.7303000E+00 -0.1205148E-10
 0.7314000E+00  0.3300380E-11
 0.7325000E+00  0.2205511E-10
 0.7336000E+00  0.4269681E-10
 0.7347000E+00  0.6313700E-10
 0.7358000E+00  0.8084223E-10
 0.7369000E+00  0.9304011E-10
 0.7380000E+00  0.9699427E-10
 0.7391000E+00  0.9033003E-10
 0.7402000E+00  0.7138314E-10
 0.7413000E+00  0.3953624E-10
 0.7424000E+00 -0.4496857E-11
 0.7435000E+00 -0.5848047E-10
 0.7446000E+00 -0.1185977E-09
 0.7457000E+00 -0.1795521E-09
 0.7468000E+00 -0.2348459E-09
 0.7479000E+00 -0.2772359E-09
 0.7490000E+00 -0.2993477E-09
 0.7501000E+00 -0.2944115E-09
 0.7512000E+00 -0.2570672E-09
 0.7523000E+00 -0.1841734E-09
 0.7534000E+00 -0.7554581E-10
 0.7545000E+00  0.6545164E-10
 0.7556000E+00  0.2315373E-09
 0.7567000E+00  0.4114291E-09
 0.7578000E+00  0.5900948E-09
 0.7589000E+00  0.7493585E-09
 0.7600000E+00  0.8688552E-09
 0.7611000E+00  0.9272929E-09
 0.7622000E+00  0.9039536E-09
 0.7633000E+00  0.7803416E-09
 0.7644000E+00  0.5418745E-09
 0.7655000E+00  0.1795145E-09
 0.7666000E+00 -0.3087611E-09
 0.7677000E+00 -0.9167305E-09
 0.7688000E+00 -0.1629001E-08
 0.7699000E+00 -0.2420424E-08
 0.7710000E+00 -0.3255853E-08
 0.7721000E+00 -0.4090197E-08
 0.7732000E+00 -0.4868678E-08
 0.7743000E+00 -0.5527163E-08
 0.7754000E+00 -0.5992343E-08
 0.7765000E+00 -0.6181549E-08
 0.7776000E+00 -0.6001938E-08
 0.7787000E+00 -0.5348776E-08
 0.7798000E+00 -0.4102600E-08
 0.7809000E+00 -0.2124942E-08
 0.7820000E+00  0.7476411E-09
 0.7831000E+00  0.4711548E-08
 0.7842000E+00  0.1000643E-07
 0.7853000E+00  0.1692825E-07
 0.7864000E+00  0.2584533E-07
 0.7875000E+00  0.3721794E-07
 0.7886000E+00  0.5162164E-07
 0.7897000E+00  0.6977506E-07
 0.7908000E+00  0.9257230E-07
 0.7919000E+00  0.1211209E-06
 0.7930000E+00  0.1567862E-06
 0.7941000E+00  0.2012424E-06
 0.7952000E+00  0.2565329E-06
 0.7963000E+00  0.3251390E-06
 0.7974000E+00  0.4100597E-06
 0.7985000E+00  0.5149019E-06
 0.7996000E+00  0.6439847E-06
 0.8007000E+00  0.8024562E-06
 0.8018000E+00  0.9964281E-06
 0.8029000E+00  0.1233126E-05
 0.8040000E+00  0.1521059E-05
 0.8051000E+00  0.1870212E-05
 0.8062000E+00  0.2292251E-05
 0.8073000E+00  0.2800758E-05
 0.8084000E+00  0.3411477E-05
 0.8095000E+00  0.4142588E-05
 0.8106000E+00  0.5014996E-05
 0.8117000E+00  0.6052645E-05
 0.8128000E+00  0.7282845E-05
 0.8139000E+00  0.8736608E-05
 0.8150000E+00  0.1044900E-04
 0.8161000E+00  0.1245948E-04
 0.8172000E+00  0.1481225E-04
 0.8183000E+00  0.1755658E-04
 0.8194000E+00  0.2074710E-04
 0.8205000E+00  0.2444407E-04
 0.8216000E+00  0.2871366E-04
 0.8227000E+00  0.3362803E-04
 0.8238000E+00  0.3926550E-04
 0.8249000E+00  0.4571047E-04
 0.8260000E+00  0.5305334E-04
 0.8271000E+00  0.6139020E-04
 0.8282000E+00  0.7082252E-04
 0.8293000E+00  0.8145649E-04
 0.8304000E+00  0.9340229E-04
 0.8315000E+00  0.1067731E-03
 0.8326000E+00  0.1216840E-03
 0.8337000E+00  0.1382504E-03
 0.8348000E+00  0.1565863E-03
 0.8359000E+00  0.1768027E-03
 0.8370000E+00  0.1990048E-03
 0.8381000E+00  0.2232902E-03
 0.8392000E+00  0.2497454E-03
 0.8403000E+00  0.2784437E-03
 0.8414000E+00  0.3094415E-03
 0.8425000E+00  0.3427749E-03
 0.8436000E+00  0.3784567E-03
 0.8447000E+00  0.4164722E-03
 0.8458000E+00  0.4567761E-03
 0.8469000E+00  0.4992884E-03
 0.8480000E+00  0.5438917E-03
 0.8491000E+00  0.5904274E-03
 0.8502000E+00  0.6386929E-03
 0.8513000E+00  0.6884388E-03
 0.8524000E+00  0.7393669E-03
 0.8535000E+00  0.7911288E-03
 0.8546000E+00  0.8433250E-03
 0.8557000E+00  0.8955047E-03
 0.8568000E+00  0.9471665E-03
 0.8579000E+00  0.9977608E-03
 0.8590000E+00  0.1046691E-02
 0.8601000E+00  0.1093319E-02
 0.8612000E+00  0.1136968E-02
 0.8623000E+00  0.1176931E-02
 0.8634000E+00  0.1212475E-02
 0.8645000E+00  0.1242852E-02
 0.8656000E+00  0.1267307E-02
 0.8667000E+00  0.1285085E-02
 0.8678000E+00  0.1295446E-02
 0.8689000E+00  0.1297677E-02
 0.8700000E+00  0.1291098E-02
 0.8711000E+00  0.1275082E-02
 0.8722000E+00  0.1249061E-02
 0.8733000E+00  0.1212542E-02
 0.8744000E+00  0.1165118E-02
 0.8755000E+00  0.1106480E-02
 0.8766000E+00  0.1036424E-02
 0.8777000E+00  0.9548663E-03
 0.8788000E+00  0.8618457E-03
 0.8799000E+00  0.7575343E-03
 0.8810000E+00  0.6422399E-03
 0.8821000E+00  0.5164094E-03
 0.8832000E+00  0.3806292E-03
 0.8843000E+00  0.2356236E-03
 0.8854000E+00  0.8225098E-04
 0.8865000E+00 -0.7850189E-04
 0.8876000E+00 -0.2455285E-03
 0.8887000E+00 -0.4176130E-03
 0.8898000E+00 -0.5934437E-03
 0.8909000E+00 -0.7716271E-03
 0.8920000E+00 -0.9507046E-03
 0.8931000E+00 -0.1129170E-02
 0.8942000E+00 -0.1305488E-02
 0.8953000E+00 -0.1478115E-02
 0.8964000E+00 -0.1645518E-02
 0.8975000E+00 -0.1806198E-02
 0.8986000E+00 -0.1958705E-02
 0.8997000E+00 -0.2101666E-02
 0.9008000E+00 -0.2233794E-02
 0.9019000E+00 -0.2353914E-02
 0.9030000E+00 -0.2460972E-02
 0.9041000E+00 -0.2554053E-02
 0.9052000E+00 -0.2632393E-02
 0.9063000E+00 -0.2695385E-02
 0.9074000E+00 -0.2742593E-02
 0.9085000E+00 -0.2773749E-02
 0.9096000E+00 -0.2788757E-02
 0.9107000E+00 -0.2787694E-02
 0.9118000E+00 -0.2770802E-02
 0.9129000E+00 -0.2738487E-02
 0.9140000E+00 -0.2691307E-02
 0.9151000E+00 -0.2629966E-02
 0.9162000E+00 -0.2555299E-02
 0.9173000E+00 -0.2468254E-02
 0.9184000E+00 -0.2369881E-02
 0.9195000E+00 -0.2261314E-02
 0.9206000E+00 -0.2143752E-02
 0.9217000E+00 -0.2018446E-02
 0.9228000E+00 -0.1886680E-02
 0.9239000E+00 -0.1749750E-02
 0.9250000E+00 -0.1608953E-02
 0.9261000E+00 -0.1465563E-02
 0.9272000E+00 -0.1320821E-02
 0.9283000E+00 -0.1175920E-02
 0.9294000E+00 -0.1031994E-02
 0.9305000E+00 -0.8901046E-03
 0.9316000E+00 -0.7512377E-03
 0.9327000E+00 -0.6162893E-03
 0.9338000E+00 -0.4860613E-03
 0.9349000E+00 -0.3612575E-03
 0.9360000E+00 -0.2424815E-03
 0.9371000E+00 -0.1302377E-03
 0.9382000E+00 -0.2493241E-04
 0.9393000E+00  0.7312431E-04
 0.9404000E+00  0.1637164E-03
 0.9415000E+00  0.2467183E-03
 0.9426000E+00  0.3220897E-03
 0.9437000E+00  0.3898691E-03
 0.9448000E+00  0.4501648E-03
 0.9459000E+00  0.5031477E-03
 0.9470000E+00  0.5490433E-03
 0.9481000E+00  0.5881253E-03
 0.9492000E+00  0.6207089E-03
 0.9503000E+00  0.6471440E-03
 0.9514000E+00  0.6678075E-03
 0.9525000E+00  0.6830945E-03
 0.9536000E+00  0.6934119E-03
 0.9547000E+00  0.6991713E-03
 0.9558000E+00  0.7007851E-03
 0.9569000E+00  0.6986625E-03
 0.9580000E+00  0.6932057E-03
 0.9591000E+00  0.6848054E-03
 0.9602000E+00  0.6738366E-03
 0.9613000E+00  0.6606552E-03
 0.9624000E+00  0.6455957E-03
 0.9635000E+00  0.6289705E-03
 0.9646000E+00  0.6110700E-03
 0.9657000E+00  0.5921623E-03
 0.9668000E+00  0.5724928E-03
 0.9679000E+00  0.5522834E-03
 0.9690000E+00  0.5317320E-03
 0.9701000E+00  0.5110129E-03
 0.9712000E+00  0.4902785E-03
 0.9723000E+00  0.4696620E-03
 0.9734000E+00  0.4492788E-03
 0.9745000E+00  0.4292277E-03
 0.9756000E+00  0.4095917E-03
 0.9767000E+00  0.3904378E-03
 0.9778000E+00  0.3718190E-03
 0.9789000E+00  0.3537761E-03