-0.1200000E+00  0.0000000E+00
-0.1189000E+00  0.0000000E+00
-0.1178000E+00  0.0000000E+00
-0.1167000E+00  0.0000000E+00
-0.1156000E+00  0.0000000E+00
-0.1145000E+00  0.0000000E+00
-0.1134000E+00  0.0000000E+00
-0.1123000E+00  0.0000000E+00
-0.1112000E+00  0.0000000E+00
-0.1101000E+00  0.0000000E+00
-0.1090000E+00  0.0000000E+00
-0.1079000E+00  0.0000000E+00
-0.1068000E+00  0.0000000E+00
-0.1057000E+00  0.0000000E+00
-0.1046000E+00  0.0000000E+00
-0.1035000E+00  0.0000000E+00
-0.1024000E+00  0.0000000E+00
-0.1013000E+00  0.0000000E+00
-0.1002000E+00  0.0000000E+00
-0.9910000E-01  0.0000000E+00
-0.9800000E-01  0.0000000E+00
-0.9690000E-01  0.0000000E+00
-0.9580000E-01  0.0000000E+00
-0.9470000E-01  0.0000000E+00
-0.9360000E-01  0.0000000E+00
-0.9250000E-01  0.0000000E+00
-0.9140000E-01  0.0000000E+00
-0.9030000E-01  0.0000000E+00
-0.8920000E-01  0.0000000E+00
-0.8810000E-01  0.0000000E+00
-0.8700000E-01  0.0000000E+00
-0.8590000E-01  0.0000000E+00
-0.8480000E-01  0.0000000E+00
-0.8370000E-01  0.0000000E+00
-0.8260000E-01  0.0000000E+00
-0.8150000E-01  0.0000000E+00
-0.8040000E-01  0.0000000E+00
-0.7930000E-01  0.0000000E+00
-0.7820000E-01  0.0000000E+00
-0.7710000E-01  0.0000000E+00
-0.7600000E-01  0.0000000E+00
-0.7490000E-01  0.0000000E+00
-0.7380000E-01  0.0000000E+00
-0.7270000E-01  0.0000000E+00
-0.7160000E-01  0.0000000E+00
-0.7050000E-01  0.0000000E+00
-0.6940000E-01  0.0000000E+00
-0.6830000E-01  0.0000000E+00
-0.6720000E-01  0.0000000E+00
-0.6610000E-01  0.0000000E+00
-0.6500000E-01  0.0000000E+00
-0.6390000E-01  0.0000000E+00
-0.6280000E-01  0.0000000E+00
-0.6170000E-01  0.0000000E+00
-0.6060000E-01  0.0000000E+00
-0.5950000E-01  0.0000000E+00
-0.5840000E-01  0.0000000E+00
-0.5730000E-01  0.0000000E+00
-0.5620000E-01  0.0000000E+00
-0.5510000E-01  0.0000000E+00
-0.5400000E-01  0.0000000E+00
-0.5290000E-01  0.0000000E+00
-0.5180000E-01  0.0000000E+00
-0.5070000E-01  0.0000000E+00
-0.4960000E-01  0.0000000E+00
-0.4850000E-01  0.0000000E+00
-0.4740000E-01  0.0000000E+00
-0.4630000E-01  0.0000000E+00
-0.4520000E-01  0.0000000E+00
-0.4410000E-01  0.0000000E+00
-0.4300000E-01  0.0000000E+00
-0.4190000E-01  0.0000000E+00
-0.4080000E-01  0.0000000E+00
-0.3970000E-01  0.0000000E+00
-0.3860000E-01  0.0000000E+00
-0.3750000E-01  0.0000000E+00
-0.3640000E-01  0.0000000E+00
-0.3530000E-01  0.0000000E+00
-0.3420000E-01  0.0000000E+00
-0.3310000E-01  0.0000000E+00
-0.3200000E-01  0.0000000E+00
-0.3090000E-01  0.0000000E+00
-0.2980000E-01  0.0000000E+00
-0.2870000E-01  0.0000000E+00
-0.2760000E-01  0.0000000E+00
-0.2650000E-01  0.0000000E+00
-0.2540000E-01  0.0000000E+00
-0.2430000E-01  0.0000000E+00
-0.2320000E-01 -0.0000000E+00
-0.2210000E-01 -0.0000000E+00
-0.2100000E-01 -0.1645319E-37
-0.1990000E-01 -0.1777179E-37
-0.1880000E-01  0.1290812E-37
-0.1770000E-01  0.1031159E-36
-0.1660000E-01  0.2263327E-36
-0.1550000E-01  0.2796188E-36
-0.1440000E-01  0.7182934E-37
-0.1330000E-01 -0.5458499E-36
-0.1220000E-01 -0.1564009E-35
-0.1110000E-01 -0.2487748E-35
-0.1000000E-01 -0.2190044E-35
-0.8900000E-02  0.8573330E-36
-0.7800000E-02  0.7568202E-35
-0.6700000E-02  0.1644816E-34
-0.5600000E-02  0.2170555E-34
-0.4500000E-02  0.1306995E-34
-0.3400000E-02 -0.2022277E-34
-0.2300000E-02 -0.7964502E-34
-0.1200000E-02 -0.1436906E-33
-0.1000000E-03 -0.1583338E-33
 0.1000000E-02 -0.4587761E-34
 0.2100000E-02  0.2530998E-33
 0.3200000E-02  0.7026821E-33
 0.4300000E-02  0.1087133E-32
 0.5400000E-02  0.9862975E-33
 0.6500000E-02 -0.9668540E-34
 0.7600000E-02 -0.2391210E-32
 0.8700000E-02 -0.5351153E-32
 0.9800000E-02 -0.7236592E-32
 0.1090000E-01 -0.5242420E-32
 0.1200000E-01  0.3334832E-32
 0.1310000E-01  0.1874475E-31
 0.1420000E-01  0.3592829E-31
 0.1530000E-01  0.4297208E-31
 0.1640000E-01  0.2348608E-31
 0.1750000E-01 -0.3498667E-31
 0.1860000E-01 -0.1271256E-30
 0.1970000E-01 -0.2160486E-30
 0.2080000E-01 -0.2304141E-30
 0.2190000E-01 -0.8522379E-31
 0.2300000E-01  0.2669042E-30
 0.2410000E-01  0.7641135E-30
 0.2520000E-01  0.1178248E-29
 0.2630000E-01  0.1128329E-29
 0.2740000E-01  0.2187592E-30
 0.2850000E-01 -0.1687048E-29
 0.2960000E-01 -0.4136354E-29
 0.3070000E-01 -0.5888374E-29
 0.3180000E-01 -0.5102663E-29
 0.3290000E-01 -0.1112406E-30
 0.3400000E-01  0.9276255E-29
 0.3510000E-01  0.2040002E-28
 0.3620000E-01  0.2720251E-28
 0.3730000E-01  0.2154889E-28
 0.3840000E-01 -0.2987603E-29
 0.3950000E-01 -0.4547980E-28
 0.4060000E-01 -0.9246394E-28
 0.4170000E-01 -0.1170139E-27
 0.4280000E-01 -0.8591645E-28
 0.4390000E-01  0.2365799E-28
 0.4500000E-01  0.2017561E-27
 0.4610000E-01  0.3877263E-27
 0.4720000E-01  0.4714602E-27
 0.4830000E-01  0.3266707E-27
 0.4940000E-01 -0.1221552E-27
 0.5050000E-01 -0.8174993E-27
 0.5160000E-01 -0.1511717E-26
 0.5270000E-01 -0.1787296E-26
 0.5380000E-01 -0.1193875E-26
 0.5490000E-01  0.5038715E-27
 0.5600000E-01  0.3044455E-26
 0.5710000E-01  0.5500586E-26
 0.5820000E-01  0.6395176E-26
 0.5930000E-01  0.4212954E-26
 0.6040000E-01 -0.1746691E-26
 0.6150000E-01 -0.1046317E-25
 0.6260000E-01 -0.1872630E-25
 0.6370000E-01 -0.2163695E-25
 0.6480000E-01 -0.1436217E-25
 0.6590000E-01  0.5120584E-26
 0.6700000E-01  0.3326867E-25
 0.6810000E-01  0.5974640E-25
 0.6920000E-01  0.6926308E-25
 0.7030000E-01  0.4715566E-25
 0.7140000E-01 -0.1231072E-25
 0.7250000E-01 -0.9799818E-25
 0.7360000E-01 -0.1788162E-24
 0.7470000E-01 -0.2097274E-24
 0.7580000E-01 -0.1483228E-24
 0.7690000E-01  0.2147890E-25
 0.7800000E-01  0.2676055E-24
 0.7910000E-01  0.5023500E-24
 0.8020000E-01  0.6002376E-24
 0.8130000E-01  0.4442225E-24
 0.8240000E-01 -0.1021968E-25
 0.8350000E-01 -0.6778067E-24
 0.8460000E-01 -0.1325672E-23
 0.8570000E-01 -0.1622474E-23
 0.8680000E-01 -0.1259848E-23
 0.8790000E-01 -0.1171323E-24
 0.8900000E-01  0.1594696E-23
 0.9010000E-01  0.3291452E-23
 0.9120000E-01  0.4141841E-23
 0.9230000E-01  0.3370164E-23
 0.9340000E-01  0.6599653E-24
 0.9450000E-01 -0.3499037E-23
 0.9560000E-01 -0.7715339E-23
 0.9670000E-01 -0.1000111E-22
 0.9780000E-01 -0.8491166E-23
 0.9890000E-01 -0.2389822E-23
 0.1000000E+00  0.7225073E-23
 0.1011000E+00  0.1718646E-22
 0.1022000E+00  0.2294255E-22
 0.1033000E+00  0.2019398E-22
 0.1044000E+00  0.7030097E-23
 0.1055000E+00 -0.1427218E-22
 0.1066000E+00 -0.3677176E-22
 0.1077000E+00 -0.5042275E-22
 0.1088000E+00 -0.4567064E-22
 0.1099000E+00 -0.1811621E-22
 0.1110000E+00  0.2757637E-22
 0.1121000E+00  0.7663971E-22
 0.1132000E+00  0.1075328E-21
 0.1143000E+00  0.9960579E-22
 0.1154000E+00  0.4301593E-22
 0.1165000E+00 -0.5296080E-22
 0.1176000E+00 -0.1576459E-21
 0.1187000E+00 -0.2258150E-21
 0.1198000E+00 -0.2136065E-21
 0.1209000E+00 -0.9917012E-22
 0.1220000E+00  0.9988193E-22
 0.1231000E+00  0.3212972E-21
 0.1242000E+00  0.4716975E-21
 0.1253000E+00  0.4587310E-21
 0.1264000E+00  0.2332937E-21
 0.1275000E+00 -0.1740754E-21
 0.1286000E+00 -0.6409338E-21
 0.1297000E+00 -0.9780136E-21
 0.1308000E+00 -0.9921903E-21
 0.1319000E+00 -0.5711016E-21
 0.1330000E+00  0.2414824E-21
 0.1341000E+00  0.1215768E-20
 0.1352000E+00  0.1978594E-20
 0.1363000E+00  0.2131859E-20
 0.1374000E+00  0.1417652E-20
 0.1385000E+00 -0.1279413E-21
 0.1396000E+00 -0.2102323E-20
 0.1407000E+00 -0.3800024E-20
 0.1418000E+00 -0.4424216E-20
 0.1429000E+00 -0.3397488E-20
 0.1440000E+00 -0.6672941E-21
 0.1451000E+00  0.3125007E-20
 0.1462000E+00  0.6720156E-20
 0.1473000E+00  0.8595951E-20
 0.1484000E+00  0.7526255E-20
 0.1495000E+00  0.3163696E-20
 0.1506000E+00 -0.3590730E-20
 0.1517000E+00 -0.1063898E-19
 0.1528000E+00 -0.1524253E-19
 0.1539000E+00 -0.1497879E-19
 0.1550000E+00 -0.8800229E-20
 0.1561000E+00  0.2215929E-20
 0.1572000E+00  0.1480928E-19
 0.1583000E+00  0.2435539E-19
 0.1594000E+00  0.2642903E-19
 0.1605000E+00  0.1863960E-19
 0.1616000E+00  0.2045703E-20
 0.1627000E+00 -0.1852774E-19
 0.1638000E+00 -0.3564600E-19
 0.1649000E+00 -0.4174571E-19
 0.1660000E+00 -0.3220999E-19
 0.1671000E+00 -0.7897084E-20
 0.1682000E+00  0.2404601E-19
 0.1693000E+00  0.5180347E-19
 0.1704000E+00  0.6281350E-19
 0.1715000E+00  0.4887806E-19
 0.1726000E+00  0.1059893E-19
 0.1737000E+00 -0.4086149E-19
 0.1748000E+00 -0.8604295E-19
 0.1759000E+00 -0.1034634E-18
 0.1770000E+00 -0.7823856E-19
 0.1781000E+00 -0.1002355E-19
 0.1792000E+00  0.8316395E-19
 0.1803000E+00  0.1677935E-18
 0.1814000E+00  0.2047744E-18
 0.1825000E+00  0.1641655E-18
 0.1836000E+00  0.3983988E-19
 0.1847000E+00 -0.1417830E-18
 0.1858000E+00 -0.3238175E-18
 0.1869000E+00 -0.4335287E-18
 0.1880000E+00 -0.4066990E-18
 0.1891000E+00 -0.2145625E-18
 0.1902000E+00  0.1164224E-18
 0.1913000E+00  0.5010459E-18
 0.1924000E+00  0.8129172E-18
 0.1935000E+00  0.9210901E-18
 0.1946000E+00  0.7362261E-18
 0.1957000E+00  0.2514325E-18
 0.1968000E+00 -0.4379453E-18
 0.1979000E+00 -0.1146563E-17
 0.1990000E+00 -0.1644797E-17
 0.2001000E+00 -0.1727773E-17
 0.2012000E+00 -0.1287692E-17
 0.2023000E+00 -0.3652515E-18
 0.2034000E+00  0.8403060E-18
 0.2045000E+00  0.2011529E-17
 0.2056000E+00  0.2796440E-17
 0.2067000E+00  0.2912998E-17
 0.2078000E+00  0.2242344E-17
 0.2089000E+00  0.8795852E-18
 0.2100000E+00 -0.8775625E-18
 0.2111000E+00 -0.2602520E-17
 0.2122000E+00 -0.3855368E-17
 0.2133000E+00 -0.4304525E-17
 0.2144000E+00 -0.3815758E-17
 0.2155000E+00 -0.2480296E-17
 0.2166000E+00 -0.5750168E-18
 0.2177000E+00  0.1527734E-17
 0.2188000E+00  0.3464763E-17
 0.2199000E+00  0.4960510E-17
 0.2210000E+00  0.5851013E-17
 0.2221000E+00  0.6050204E-17
 0.2232000E+00  0.5484181E-17
 0.2243000E+00  0.4039140E-17
 0.2254000E+00  0.1569481E-17
 0.2265000E+00 -0.2009513E-17
 0.2276000E+00 -0.6559912E-17
 0.2287000E+00 -0.1154952E-16
 0.2298000E+00 -0.1595895E-16
 0.2309000E+00 -0.1835457E-16
 0.2320000E+00 -0.1717535E-16
 0.2331000E+00 -0.1121047E-16
 0.2342000E+00 -0.1613173E-18
 0.2353000E+00  0.1488521E-16
 0.2364000E+00  0.3126773E-16
 0.2375000E+00  0.4500073E-16
 0.2386000E+00  0.5151643E-16
 0.2397000E+00  0.4680630E-16
 0.2408000E+00  0.2872352E-16
 0.2419000E+00 -0.1896431E-17
 0.2430000E+00 -0.4066177E-16
 0.2441000E+00 -0.7988242E-16
 0.2452000E+00 -0.1097715E-15
 0.2463000E+00 -0.1204689E-15
 0.2474000E+00 -0.1045267E-15
 0.2485000E+00 -0.5931730E-16
 0.2496000E+00  0.1124942E-16
 0.2507000E+00  0.9624747E-16
 0.2518000E+00  0.1788382E-15
 0.2529000E+00  0.2389914E-15
 0.2540000E+00  0.2574969E-15
 0.2551000E+00  0.2205975E-15
 0.2562000E+00  0.1243182E-15
 0.2573000E+00 -0.2253715E-16
 0.2584000E+00 -0.1976554E-15
 0.2595000E+00 -0.3673810E-15
 0.2606000E+00 -0.4919045E-15
 0.2617000E+00 -0.5329621E-15
 0.2628000E+00 -0.4628587E-15
 0.2639000E+00 -0.2730615E-15
 0.2650000E+00  0.1969463E-16
 0.2661000E+00  0.3717506E-15
 0.2672000E+00  0.7166849E-15
 0.2683000E+00  0.9756083E-15
 0.2694000E+00  0.1072516E-14
 0.2705000E+00  0.9521850E-15
 0.2716000E+00  0.5969413E-15
 0.2727000E+00  0.3815703E-16
 0.2738000E+00 -0.6412607E-15
 0.2749000E+00 -0.1315672E-14
 0.2760000E+00 -0.1836832E-14
 0.2771000E+00 -0.2062703E-14
 0.2782000E+00 -0.1889860E-14
 0.2793000E+00 -0.1282726E-14
 0.2804000E+00 -0.2926362E-15
 0.2815000E+00  0.9390017E-15
 0.2826000E+00  0.2196378E-14
 0.2837000E+00  0.3222988E-14
 0.2848000E+00  0.3768608E-14
 0.2859000E+00  0.3641494E-14
 0.2870000E+00  0.2755827E-14
 0.2881000E+00  0.1164381E-14
 0.2892000E+00 -0.9316984E-15
 0.2903000E+00 -0.3200613E-14
 0.2914000E+00 -0.5225057E-14
 0.2925000E+00 -0.6569822E-14
 0.2936000E+00 -0.6862310E-14
 0.2947000E+00 -0.5873027E-14
 0.2958000E+00 -0.3581374E-14
 0.2969000E+00 -0.2124957E-15
 0.2980000E+00  0.3766229E-14
 0.2991000E+00  0.7695085E-14
 0.3002000E+00  0.1081687E-13
 0.3013000E+00  0.1240628E-13
 0.3024000E+00  0.1191468E-13
 0.3035000E+00  0.9104086E-14
 0.3046000E+00  0.4141421E-14
 0.3057000E+00 -0.2372821E-14
 0.3068000E+00 -0.9458011E-14
 0.3079000E+00 -0.1589010E-13
 0.3090000E+00 -0.2040460E-13
 0.3101000E+00 -0.2193153E-13
 0.3112000E+00 -0.1981679E-13
 0.3123000E+00 -0.1398250E-13
 0.3134000E+00 -0.4988801E-14
 0.3145000E+00  0.6020446E-14
 0.3156000E+00  0.1747992E-13
 0.3167000E+00  0.2764020E-13
 0.3178000E+00  0.3483144E-13
 0.3189000E+00  0.3770169E-13
 0.3200000E+00  0.3539065E-13
 0.3211000E+00  0.2762267E-13
 0.3222000E+00  0.1472912E-13
 0.3233000E+00 -0.2371138E-14
 0.3244000E+00 -0.2220078E-13
 0.3255000E+00 -0.4274592E-13
 0.3266000E+00 -0.6148386E-13
 0.3277000E+00 -0.7546313E-13
 0.3288000E+00 -0.8150225E-13
 0.3299000E+00 -0.7656766E-13
 0.3310000E+00 -0.5834969E-13
 0.3321000E+00 -0.2598521E-13
 0.3332000E+00  0.1920792E-13
 0.3343000E+00  0.7318735E-13
 0.3354000E+00  0.1290603E-12
 0.3365000E+00  0.1775605E-12
 0.3376000E+00  0.2082016E-12
 0.3387000E+00  0.2110187E-12
 0.3398000E+00  0.1786358E-12
 0.3409000E+00  0.1082593E-12
 0.3420000E+00  0.3147565E-14
 0.3431000E+00 -0.1268341E-12
 0.3442000E+00 -0.2657942E-12
 0.3453000E+00 -0.3935159E-12
 0.3464000E+00 -0.4880179E-12
 0.3475000E+00 -0.5285425E-12
 0.3486000E+00 -0.4984812E-12
 0.3497000E+00 -0.3878367E-12
 0.3508000E+00 -0.1950129E-12
 0.3519000E+00  0.7205206E-13
 0.3530000E+00  0.3952350E-12
 0.3541000E+00  0.7458791E-12
 0.3552000E+00  0.1084751E-11
 0.3563000E+00  0.1362640E-11
 0.3574000E+00  0.1522318E-11
 0.3585000E+00  0.1502795E-11
 0.3596000E+00  0.1246784E-11
 0.3607000E+00  0.7117369E-12
 0.3618000E+00 -0.1160794E-12
 0.3629000E+00 -0.1206282E-11
 0.3640000E+00 -0.2470937E-11
 0.3651000E+00 -0.3757063E-11
 0.3662000E+00 -0.4849419E-11
 0.3673000E+00 -0.5487205E-11
 0.3684000E+00 -0.5396449E-11
 0.3695000E+00 -0.4337098E-11
 0.3706000E+00 -0.2160317E-11
 0.3717000E+00  0.1131941E-11
 0.3728000E+00  0.5335907E-11
 0.3739000E+00  0.1001586E-10
 0.3750000E+00  0.1450690E-10
 0.3761000E+00  0.1795992E-10
 0.3772000E+00  0.1943347E-10
 0.3783000E+00  0.1802996E-10
 0.3794000E+00  0.1306557E-10
 0.3805000E+00  0.4254635E-11
 0.3816000E+00 -0.8118699E-11
 0.3827000E+00 -0.2307430E-10
 0.3838000E+00 -0.3888979E-10
 0.3849000E+00 -0.5316532E-10
 0.3860000E+00 -0.6302110E-10
 0.3871000E+00 -0.6543355E-10
 0.3882000E+00 -0.5769462E-10
 0.3893000E+00 -0.3795387E-10
 0.3904000E+00 -0.5777582E-11
 0.3915000E+00  0.3736211E-10
 0.3926000E+00  0.8776822E-10
 0.3937000E+00  0.1394694E-09
 0.3948000E+00  0.1845222E-09
 0.3959000E+00  0.2137134E-09
 0.3970000E+00  0.2176570E-09
 0.3981000E+00  0.1882195E-09
 0.3992000E+00  0.1201362E-09
 0.4003000E+00  0.1261993E-10
 0.4014000E+00 -0.1292852E-09
 0.4025000E+00 -0.2938719E-09
 0.4036000E+00 -0.4627138E-09
 0.4047000E+00 -0.6115851E-09
 0.4058000E+00 -0.7124624E-09
 0.4069000E+00 -0.7365846E-09
 0.4080000E+00 -0.6583935E-09
 0.4091000E+00 -0.4600188E-09
 0.4102000E+00 -0.1358153E-09
 0.4113000E+00  0.3036552E-09
 0.4124000E+00  0.8288677E-09
 0.4135000E+00  0.1390462E-08
 0.4146000E+00  0.1920817E-08
 0.4157000E+00  0.2338431E-08
 0.4168000E+00  0.2555194E-08
 0.4179000E+00  0.2486284E-08
 0.4190000E+00  0.2062031E-08
 0.4201000E+00  0.1240695E-08
 0.4212000E+00  0.2080732E-10
 0.4223000E+00 -0.1548523E-08
 0.4234000E+00 -0.3360994E-08
 0.4245000E+00 -0.5251695E-08
 0.4256000E+00 -0.7002108E-08
 0.4267000E+00 -0.8352190E-08
 0.4278000E+00 -0.9019551E-08
 0.4289000E+00 -0.8724978E-08
 0.4300000E+00 -0.7222805E-08
 0.4311000E+00 -0.4333951E-08
 0.4322000E+00  0.2100229E-10
 0.4333000E+00  0.5791550E-08
 0.4344000E+00  0.1277254E-07
 0.4355000E+00  0.2058723E-07
 0.4366000E+00  0.2867953E-07
 0.4377000E+00  0.3631580E-07
 0.4388000E+00  0.4259516E-07
 0.4399000E+00  0.4646596E-07
 0.4410000E+00  0.4674471E-07
 0.4421000E+00  0.4213246E-07
 0.4432000E+00  0.3122298E-07
 0.4443000E+00  0.1249622E-07
 0.4454000E+00 -0.1570907E-07
 0.4465000E+00 -0.5524983E-07
 0.4476000E+00 -0.1082653E-06
 0.4487000E+00 -0.1772999E-06
 0.4498000E+00 -0.2654657E-06
 0.4509000E+00 -0.3766457E-06
 0.4520000E+00 -0.5157393E-06
 0.4531000E+00 -0.6889499E-06
 0.4542000E+00 -0.9041153E-06
 0.4553000E+00 -0.1171083E-05
 0.4564000E+00 -0.1502128E-05
 0.4575000E+00 -0.1912432E-05
 0.4586000E+00 -0.2420603E-05
 0.4597000E+00 -0.3049281E-05
 0.4608000E+00 -0.3825814E-05
 0.4619000E+00 -0.4783029E-05
 0.4630000E+00 -0.5960125E-05
 0.4641000E+00 -0.7403688E-05
 0.4652000E+00 -0.9168869E-05
 0.4663000E+00 -0.1132073E-04
 0.4674000E+00 -0.1393577E-04
 0.4685000E+00 -0.1710369E-04
 0.4696000E+00 -0.2092931E-04
 0.4707000E+00 -0.2553482E-04
 0.4718000E+00 -0.3106213E-04
 0.4729000E+00 -0.3767556E-04
 0.4740000E+00 -0.4556468E-04
 0.4751000E+00 -0.5494738E-04
 0.4762000E+00 -0.6607314E-04
 0.4773000E+00 -0.7922641E-04
 0.4784000E+00 -0.9473017E-04
 0.4795000E+00 -0.1129495E-03
 0.4806000E+00 -0.1342953E-03
 0.4817000E+00 -0.1592277E-03
 0.4828000E+00 -0.1882597E-03
 0.4839000E+00 -0.2219607E-03
 0.4850000E+00 -0.2609589E-03
 0.4861000E+00 -0.3059444E-03
 0.4872000E+00 -0.3576713E-03
 0.4883000E+00 -0.4169588E-03
 0.4894000E+00 -0.4846920E-03
 0.4905000E+00 -0.5618214E-03
 0.4916000E+00 -0.6493613E-03
 0.4927000E+00 -0.7483868E-03
 0.4938000E+00 -0.8600294E-03
 0.4949000E+00 -0.9854704E-03
 0.4960000E+00 -0.1125933E-02
 0.4971000E+00 -0.1282671E-02
 0.4982000E+00 -0.1456958E-02
 0.4993000E+00 -0.1650068E-02
 0.5004000E+00 -0.1863265E-02
 0.5015000E+00 -0.2097776E-02
 0.5026000E+00 -0.2354769E-02
 0.5037000E+00 -0.2635333E-02
 0.5048000E+00 -0.2940444E-02
 0.5059000E+00 -0.3270939E-02
 0.5070000E+00 -0.3627481E-02
 0.5081000E+00 -0.4010530E-02
 0.5092000E+00 -0.4420305E-02
 0.5103000E+00 -0.4856748E-02
 0.5114000E+00 -0.5319492E-02
 0.5125000E+00 -0.5807826E-02
 0.5136000E+00 -0.6320659E-02
 0.5147000E+00 -0.6856491E-02
 0.5158000E+00 -0.7413383E-02
 0.5169000E+00 -0.7988938E-02
 0.5180000E+00 -0.8580275E-02
 0.5191000E+00 -0.9184019E-02
 0.5202000E+00 -0.9796294E-02
 0.5213000E+00 -0.1041272E-01
 0.5224000E+00 -0.1102844E-01
 0.5235000E+00 -0.1163809E-01
 0.5246000E+00 -0.1223589E-01
 0.5257000E+00 -0.1281565E-01
 0.5268000E+00 -0.1337079E-01
 0.5279000E+00 -0.1389445E-01
 0.5290000E+00 -0.1437952E-01
 0.5301000E+00 -0.1481876E-01
 0.5312000E+00 -0.1520482E-01
 0.5323000E+00 -0.1553040E-01
 0.5334000E+00 -0.1578832E-01
 0.5345000E+00 -0.1597164E-01
 0.5356000E+00 -0.1607375E-01
 0.5367000E+00 -0.1608853E-01
 0.5378000E+00 -0.1601041E-01
 0.5389000E+00 -0.1583452E-01
 0.5400000E+00 -0.1555681E-01
 0.5411000E+00 -0.1517411E-01
 0.5422000E+00 -0.1468426E-01
 0.5433000E+00 -0.1408617E-01
 0.5444000E+00 -0.1337994E-01
 0.5455000E+00 -0.1256684E-01
 0.5466000E+00 -0.1164941E-01
 0.5477000E+00 -0.1063148E-01
 0.5488000E+00 -0.9518129E-02
 0.5499000E+00 -0.8315722E-02
 0.5510000E+00 -0.7031837E-02
 0.5521000E+00 -0.5675212E-02
 0.5532000E+00 -0.4255680E-02
 0.5543000E+00 -0.2784055E-02
 0.5554000E+00 -0.1272024E-02
 0.5565000E+00  0.2679948E-03
 0.5576000E+00  0.1822995E-02
 0.5587000E+00  0.3379549E-02
 0.5598000E+00  0.4923979E-02
 0.5609000E+00  0.6442538E-02
 0.5620000E+00  0.7921589E-02
 0.5631000E+00  0.9347796E-02
 0.5642000E+00  0.1070831E-01
 0.5653000E+00  0.1199093E-01
 0.5664000E+00  0.1318429E-01
 0.5675000E+00  0.1427802E-01
 0.5686000E+00  0.1526286E-01
 0.5697000E+00  0.1613082E-01
 0.5708000E+00  0.1687525E-01
 0.5719000E+00  0.1749098E-01
 0.5730000E+00  0.1797432E-01
 0.5741000E+00  0.1832313E-01
 0.5752000E+00  0.1853684E-01
 0.5763000E+00  0.1861642E-01
 0.5774000E+00  0.1856439E-01
 0.5785000E+00  0.1838471E-01
 0.5796000E+00  0.1808273E-01
 0.5807000E+00  0.1766510E-01
 0.5818000E+00  0.1713964E-01
 0.5829000E+00  0.1651522E-01
 0.5840000E+00  0.1580160E-01
 0.5851000E+00  0.1500930E-01
 0.5862000E+00  0.1414940E-01
 0.5873000E+00  0.1323343E-01
 0.5884000E+00  0.1227313E-01
 0.5895000E+00  0.1128036E-01
 0.5906000E+00  0.1026687E-01
 0.5917000E+00  0.9244189E-02
 0.5928000E+00  0.8223441E-02
 0.5939000E+00  0.7215241E-02
 0.5950000E+00  0.6229549E-02
 0.5961000E+00  0.5275570E-02
 0.5972000E+00  0.4361657E-02
 0.5983000E+00  0.3495236E-02
 0.5994000E+00  0.2682744E-02
 0.6005000E+00  0.1929588E-02
 0.6016000E+00  0.1240122E-02
 0.6027000E+00  0.6176361E-03
 0.6038000E+00  0.6436846E-04
 0.6049000E+00 -0.4184751E-03
 0.6060000E+00 -0.8306795E-03
 0.6071000E+00 -0.1172969E-02
 0.6082000E+00 -0.1446943E-02
 0.6093000E+00 -0.1655002E-02
 0.6104000E+00 -0.1800266E-02
 0.6115000E+00 -0.1886484E-02
 0.6126000E+00 -0.1917945E-02
 0.6137000E+00 -0.1899377E-02
 0.6148000E+00 -0.1835854E-02
 0.6159000E+00 -0.1732695E-02
 0.6170000E+00 -0.1595369E-02
 0.6181000E+00 -0.1429406E-02
 0.6192000E+00 -0.1240305E-02
 0.6203000E+00 -0.1033457E-02
 0.6214000E+00 -0.8140709E-03
 0.6225000E+00 -0.5871036E-03
 0.6236000E+00 -0.3572038E-03
 0.6247000E+00 -0.1286624E-03
 0.6258000E+00  0.9462793E-04
 0.6269000E+00  0.3092029E-03
 0.6280000E+00  0.5120488E-03
 0.6291000E+00  0.7006151E-03
 0.6302000E+00  0.8728178E-03
 0.6313000E+00  0.1027036E-02
 0.6324000E+00  0.1162099E-02
 0.6335000E+00  0.1277267E-02
 0.6346000E+00  0.1372206E-02
 0.6357000E+00  0.1446961E-02
 0.6368000E+00  0.1501916E-02
 0.6379000E+00  0.1537759E-02
 0.6390000E+00  0.1555442E-02
 0.6401000E+00  0.1556140E-02
 0.6412000E+00  0.1541204E-02
 0.6423000E+00  0.1512122E-02
 0.6434000E+00  0.1470477E-02
 0.6445000E+00  0.1417905E-02
 0.6456000E+00  0.1356061E-02
 0.6467000E+00  0.1286579E-02
 0.6478000E+00  0.1211051E-02
 0.6489000E+00  0.1130992E-02
 0.6500000E+00  0.1047820E-02
 0.6511000E+00  0.9628396E-03
 0.6522000E+00  0.8772273E-03
 0.6533000E+00  0.7920205E-03
 0.6544000E+00  0.7081130E-03
 0.6555000E+00  0.6262544E-03
 0.6566000E+00  0.5470525E-03
 0.6577000E+00  0.4709803E-03
 0.6588000E+00  0.3983853E-03
 0.6599000E+00  0.3295007E-03
 0.6610000E+00  0.2644590E-03
 0.6621000E+00  0.2033055E-03
 0.6632000E+00  0.1460145E-03
 0.6643000E+00  0.9250504E-04
 0.6654000E+00  0.4265724E-04
 0.6665000E+00 -0.3671639E-05
 0.6676000E+00 -0.4663234E-04
 0.6687000E+00 -0.8637038E-04
 0.6698000E+00 -0.1230146E-03
 0.6709000E+00 -0.1566677E-03
 0.6720000E+00 -0.1873981E-03
 0.6731000E+00 -0.2152346E-03
 0.6742000E+00 -0.2401626E-03
 0.6753000E+00 -0.2621234E-03
 0.6764000E+00 -0.2810161E-03
 0.6775000E+00 -0.2967014E-03
 0.6786000E+00 -0.3090077E-03
 0.6797000E+00 -0.3177384E-03
 0.6808000E+00 -0.3226799E-03
 0.6819000E+00 -0.3236110E-03
 0.6830000E+00 -0.3203126E-03
 0.6841000E+00 -0.3125791E-03
 0.6852000E+00 -0.3002291E-03
 0.6863000E+00 -0.2831164E-03
 0.6874000E+00 -0.2611404E-03
 0.6885000E+00 -0.2342551E-03
 0.6896000E+00 -0.2024767E-03
 0.6907000E+00 -0.1658896E-03
 0.6918000E+00 -0.1246508E-03
 0.6929000E+00 -0.7899335E-04
 0.6940000E+00 -0.2922773E-04
 0.6951000E+00  0.2425863E-04
 0.6962000E+00  0.8100349E-04
 0.6973000E+00  0.1404741E-03
 0.6984000E+00  0.2020736E-03
 0.6995000E+00  0.2651490E-03
 0.7006000E+00  0.3290012E-03
 0.7017000E+00  0.3928960E-03
 0.7028000E+00  0.4560763E-03
 0.7039000E+00  0.5177750E-03
 0.7050000E+00  0.5772278E-03
 0.7061000E+00  0.6336874E-03
 0.7072000E+00  0.6864365E-03
 0.7083000E+00  0.7348013E-03
 0.7094000E+00  0.7781648E-03
 0.7105000E+00  0.8159785E-03
 0.7116000E+00  0.8477735E-03
 0.7127000E+00  0.8731696E-03
 0.7138000E+00  0.8918837E-03
 0.7149000E+00  0.9037354E-03
 0.7160000E+00  0.9086519E-03
 0.7171000E+00  0.9066709E-03
 0.7182000E+00  0.8979416E-03
 0.7193000E+00  0.8827225E-03
 0.7204000E+00  0.8613777E-03
 0.7215000E+00  0.8343710E-03
 0.7226000E+00  0.8022577E-03
 0.7237000E+00  0.7656746E-03
 0.7248000E+00  0.7253294E-03
 0.7259000E+00  0.6819870E-03
 0.7270000E+00  0.6364558E-03
 0.7281000E+00  0.5895711E-03
 0.7292000E+00  0.5421786E-03
 0.7303000E+00  0.4951171E-03
 0.7314000E+00  0.4492010E-03
 0.7325000E+00  0.4052036E-03
 0.7336000E+00  0.3638408E-03
 0.7347000E+00  0.3257556E-03
 0.7358000E+00  0.2915040E-03
 0.7369000E+00  0.2615417E-03
 0.7380000E+00  0.2362138E-03
 0.7391000E+00  0.2157462E-03
 0.7402000E+00  0.2002411E-03
 0.7413000E+00  0.1896738E-03
 0.7424000E+00  0.1838932E-03
 0.7435000E+00  0.1826242E-03
 0.7446000E+00  0.1854736E-03
 0.7457000E+00  0.1919380E-03
 0.7468000E+00  0.2014149E-03
 0.7479000E+00  0.2132173E-03
 0.7490000E+00  0.2265895E-03
 0.7501000E+00  0.2407261E-03
 0.7512000E+00  0.2547911E-03
 0.7523000E+00  0.2679383E-03
 0.7534000E+00  0.2793323E-03
 0.7545000E+00  0.2881688E-03
 0.7556000E+00  0.2936950E-03
 0.7567000E+00  0.2952290E-03
 0.7578000E+00  0.2921768E-03
 0.7589000E+00  0.2840483E-03
 0.7600000E+00  0.2704700E-03
 0.7611000E+00  0.2511947E-03
 0.7622000E+00  0.2261092E-03
 0.7633000E+00  0.1952377E-03
 0.7644000E+00  0.1587428E-03
 0.7655000E+00  0.1169221E-03
 0.7666000E+00  0.7020263E-04
 0.7677000E+00  0.1913104E-04
 0.7688000E+00 -0.3563813E-04
 0.7699000E+00 -0.9335701E-04
 0.7710000E+00 -0.1532007E-03
 0.7721000E+00 -0.2142851E-03
 0.7732000E+00 -0.2756858E-03
 0.7743000E+00 -0.3364580E-03
 0.7754000E+00 -0.3956566E-03
 0.7765000E+00 -0.4523557E-03
 0.7776000E+00 -0.5056683E-03
 0.7787000E+00 -0.5547638E-03
 0.7798000E+00 -0.5988848E-03
 0.7809000E+00 -0.6373610E-03
 0.7820000E+00 -0.6696221E-03
 0.7831000E+00 -0.6952069E-03
 0.7842000E+00 -0.7137706E-03
 0.7853000E+00 -0.7250894E-03
 0.7864000E+00 -0.7290626E-03
 0.7875000E+00 -0.7257120E-03
 0.7886000E+00 -0.7151794E-03
 0.7897000E+00 -0.6977209E-03
 0.7908000E+00 -0.6737001E-03
 0.7919000E+00 -0.6435778E-03
 0.7930000E+00 -0.6079000E-03
 0.7941000E+00 -0.5672838E-03
 0.7952000E+00 -0.5224027E-03
 0.7963000E+00 -0.4739692E-03
 0.7974000E+00 -0.4227182E-03
 0.7985000E+00 -0.3693889E-03
 0.7996000E+00 -0.3147061E-03
 0.8007000E+00 -0.2593607E-03
 0.8018000E+00 -0.2039898E-03
 0.8029000E+00 -0.1491568E-03
 0.8040000E+00 -0.9533041E-04
 0.8051000E+00 -0.4286562E-04
 0.8062000E+00  0.8015901E-05
 0.8073000E+00  0.5724331E-04
 0.8084000E+00  0.1049131E-03
 0.8095000E+00  0.1513040E-03
 0.8106000E+00  0.1968897E-03
 0.8117000E+00  0.2423500E-03
 0.8128000E+00  0.2885775E-03
 0.8139000E+00  0.3366820E-03
 0.8150000E+00  0.3879894E-03
 0.8161000E+00  0.4440367E-03
 0.8172000E+00  0.5065612E-03
 0.8183000E+00  0.5774857E-03
 0.8194000E+00  0.6588968E-03
 0.8205000E+00  0.7530192E-03
 0.8216000E+00  0.8621839E-03
 0.8227000E+00  0.9887898E-03
 0.8238000E+00  0.1135260E-02
 0.8249000E+00  0.1303992E-02
 0.8260000E+00  0.1497305E-02
 0.8271000E+00  0.1717383E-02
 0.8282000E+00  0.1966210E-02
 0.8293000E+00  0.2245516E-02
 0.8304000E+00  0.2556708E-02
 0.8315000E+00  0.2900809E-02
 0.8326000E+00  0.3278396E-02
 0.8337000E+00  0.3689548E-02
 0.8348000E+00  0.4133786E-02
 0.8359000E+00  0.4610033E-02
 0.8370000E+00  0.5116579E-02
 0.8381000E+00  0.5651047E-02
 0.8392000E+00  0.6210379E-02
 0.8403000E+00  0.6790832E-02
 0.8414000E+00  0.7387977E-02
 0.8425000E+00  0.7996723E-02
 0.8436000E+00  0.8611348E-02
 0.8447000E+00  0.9225538E-02
 0.8458000E+00  0.9832455E-02
 0.8469000E+00  0.1042479E-01
 0.8480000E+00  0.1099488E-01
 0.8491000E+00  0.1153474E-01
 0.8502000E+00  0.1203622E-01
 0.8513000E+00  0.1249108E-01
 0.8524000E+00  0.1289111E-01
 0.8535000E+00  0.1322827E-01
 0.8546000E+00  0.1349477E-01
 0.8557000E+00  0.1368325E-01
 0.8568000E+00  0.1378682E-01
 0.8579000E+00  0.1379924E-01
 0.8590000E+00  0.1371502E-01
 0.8601000E+00  0.1352950E-01
 0.8612000E+00  0.1323893E-01
 0.8623000E+00  0.1284062E-01
 0.8634000E+00  0.1233292E-01
 0.8645000E+00  0.1171534E-01
 0.8656000E+00  0.1098858E-01
 0.8667000E+00  0.1015454E-01
 0.8678000E+00  0.9216334E-02
 0.8689000E+00  0.8178303E-02
 0.8700000E+00  0.7045975E-02
 0.8711000E+00  0.5826035E-02
 0.8722000E+00  0.4526271E-02
 0.8733000E+00  0.3155505E-02
 0.8744000E+00  0.1723509E-02
 0.8755000E+00  0.2409103E-03
 0.8766000E+00 -0.1280920E-02
 0.8777000E+00 -0.2829987E-02
 0.8788000E+00 -0.4393802E-02
 0.8799000E+00 -0.5959522E-02
 0.8810000E+00 -0.7514096E-02
 0.8821000E+00 -0.9044408E-02
 0.8832000E+00 -0.1053743E-01
 0.8843000E+00 -0.1198037E-01
 0.8854000E+00 -0.1336083E-01
 0.8865000E+00 -0.1466693E-01
 0.8876000E+00 -0.1588746E-01
 0.8887000E+00 -0.1701201E-01
 0.8898000E+00 -0.1803104E-01
 0.8909000E+00 -0.1893606E-01
 0.8920000E+00 -0.1971965E-01
 0.8931000E+00 -0.2037552E-01
 0.8942000E+00 -0.2089864E-01
 0.8953000E+00 -0.2128517E-01
 0.8964000E+00 -0.2153254E-01
 0.8975000E+00 -0.2163940E-01
 0.8986000E+00 -0.2160560E-01
 0.8997000E+00 -0.2143214E-01
 0.9008000E+00 -0.2112110E-01
 0.9019000E+00 -0.2067554E-01
 0.9030000E+00 -0.2009942E-01
 0.9041000E+00 -0.1939748E-01
 0.9052000E+00 -0.1857510E-01
 0.9063000E+00 -0.1763820E-01
 0.9074000E+00 -0.1659311E-01
 0.9085000E+00 -0.1544640E-01
 0.9096000E+00 -0.1420483E-01
 0.9107000E+00 -0.1287517E-01
 0.9118000E+00 -0.1146414E-01
 0.9129000E+00 -0.9978312E-02
 0.9140000E+00 -0.8424046E-02
 0.9151000E+00 -0.6807447E-02
 0.9162000E+00 -0.5134337E-02
 0.9173000E+00 -0.3410266E-02
 0.9184000E+00 -0.1640529E-02
 0.9195000E+00  0.1697748E-03
 0.9206000E+00  0.2015677E-02
 0.9217000E+00  0.3892242E-02
 0.9228000E+00  0.5794462E-02
 0.9239000E+00  0.7717127E-02
 0.9250000E+00  0.9654697E-02
 0.9261000E+00  0.1160116E-01
 0.9272000E+00  0.1354990E-01
 0.9283000E+00  0.1549354E-01
 0.9294000E+00  0.1742384E-01
 0.9305000E+00  0.1933161E-01
 0.9316000E+00  0.2120656E-01
 0.9327000E+00  0.2303732E-01
 0.9338000E+00  0.2481136E-01
 0.9349000E+00  0.2651501E-01
 0.9360000E+00  0.2813352E-01
 0.9371000E+00  0.2965115E-01
 0.9382000E+00  0.3105126E-01
 0.9393000E+00  0.3231653E-01
 0.9404000E+00  0.3342912E-01
 0.9415000E+00  0.3437094E-01
 0.9426000E+00  0.3512393E-01
 0.9437000E+00  0.3567034E-01
 0.9448000E+00  0.3599310E-01
 0.9459000E+00  0.3607614E-01
 0.9470000E+00  0.3590475E-01
 0.9481000E+00  0.3546594E-01
 0.9492000E+00  0.3474880E-01
 0.9503000E+00  0.3374483E-01
 0.9514000E+00  0.3244825E-01
 0.9525000E+00  0.3085628E-01
 0.9536000E+00  0.2896939E-01
 0.9547000E+00  0.2679149E-01
 0.9558000E+00  0.2433007E-01
 0.9569000E+00  0.2159628E-01
 0.9580000E+00  0.1860500E-01
 0.9591000E+00  0.1537473E-01
 0.9602000E+00  0.1192751E-01
 0.9613000E+00  0.8288785E-02
 0.9624000E+00  0.4487103E-02
 0.9635000E+00  0.5538604E-03
 0.9646000E+00 -0.3477079E-02
 0.9657000E+00 -0.7569783E-02
 0.9668000E+00 -0.1168671E-01
 0.9679000E+00 -0.1578921E-01
 0.9690000E+00 -0.1983803E-01
 0.9701000E+00 -0.2379387E-01
 0.9712000E+00 -0.2761791E-01
 0.9723000E+00 -0.3127241E-01
 0.9734000E+00 -0.3472118E-01
 0.9745000E+00 -0.3793018E-01
 0.9756000E+00 -0.4086793E-01
 0.9767000E+00 -0.4350604E-01
 0.9778000E+00 -0.4581957E-01
 0.9789000E+00 -0.4778739E-01