-0.1200000E+00  0.0000000E+00
-0.1189000E+00  0.0000000E+00
-0.1178000E+00  0.0000000E+00
-0.1167000E+00  0.0000000E+00
-0.1156000E+00  0.0000000E+00
-0.1145000E+00  0.0000000E+00
-0.1134000E+00  0.0000000E+00
-0.1123000E+00  0.0000000E+00
-0.1112000E+00  0.0000000E+00
-0.1101000E+00  0.0000000E+00
-0.1090000E+00  0.0000000E+00
-0.1079000E+00  0.0000000E+00
-0.1068000E+00  0.0000000E+00
-0.1057000E+00  0.0000000E+00
-0.1046000E+00  0.0000000E+00
-0.1035000E+00  0.0000000E+00
-0.1024000E+00  0.0000000E+00
-0.1013000E+00  0.0000000E+00
-0.1002000E+00  0.0000000E+00
-0.9910000E-01  0.0000000E+00
-0.9800000E-01  0.0000000E+00
-0.9690000E-01  0.0000000E+00
-0.9580000E-01  0.0000000E+00
-0.9470000E-01  0.0000000E+00
-0.9360000E-01  0.0000000E+00
-0.9250000E-01  0.0000000E+00
-0.9140000E-01  0.0000000E+00
-0.9030000E-01  0.0000000E+00
-0.8920000E-01  0.0000000E+00
-0.8810000E-01  0.0000000E+00
-0.8700000E-01  0.0000000E+00
-0.8590000E-01  0.0000000E+00
-0.8480000E-01  0.0000000E+00
-0.8370000E-01  0.0000000E+00
-0.8260000E-01  0.0000000E+00
-0.8150000E-01  0.0000000E+00
-0.8040000E-01  0.0000000E+00
-0.7930000E-01  0.0000000E+00
-0.7820000E-01  0.0000000E+00
-0.7710000E-01  0.0000000E+00
-0.7600000E-01  0.0000000E+00
-0.7490000E-01  0.0000000E+00
-0.7380000E-01  0.0000000E+00
-0.7270000E-01  0.0000000E+00
-0.7160000E-01  0.0000000E+00
-0.7050000E-01  0.0000000E+00
-0.6940000E-01  0.0000000E+00
-0.6830000E-01  0.0000000E+00
-0.6720000E-01  0.0000000E+00
-0.6610000E-01  0.0000000E+00
-0.6500000E-01  0.0000000E+00
-0.6390000E-01  0.0000000E+00
-0.6280000E-01  0.0000000E+00
-0.6170000E-01  0.0000000E+00
-0.6060000E-01  0.0000000E+00
-0.5950000E-01  0.0000000E+00
-0.5840000E-01  0.0000000E+00
-0.5730000E-01  0.0000000E+00
-0.5620000E-01  0.0000000E+00
-0.5510000E-01  0.0000000E+00
-0.5400000E-01  0.0000000E+00
-0.5290000E-01  0.0000000E+00
-0.5180000E-01  0.0000000E+00
-0.5070000E-01  0.0000000E+00
-0.4960000E-01  0.0000000E+00
-0.4850000E-01  0.0000000E+00
-0.4740000E-01  0.0000000E+00
-0.4630000E-01  0.0000000E+00
-0.4520000E-01  0.0000000E+00
-0.4410000E-01  0.0000000E+00
-0.4300000E-01  0.0000000E+00
-0.4190000E-01  0.0000000E+00
-0.4080000E-01  0.0000000E+00
-0.3970000E-01  0.0000000E+00
-0.3860000E-01  0.0000000E+00
-0.3750000E-01  0.0000000E+00
-0.3640000E-01  0.0000000E+00
-0.3530000E-01  0.0000000E+00
-0.3420000E-01  0.0000000E+00
-0.3310000E-01  0.0000000E+00
-0.3200000E-01 -0.0000000E+00
-0.3090000E-01 -0.0000000E+00
-0.2980000E-01  0.0000000E+00
-0.2870000E-01  0.0000000E+00
-0.2760000E-01 -0.0000000E+00
-0.2650000E-01 -0.0000000E+00
-0.2540000E-01 -0.0000000E+00
-0.2430000E-01  0.0000000E+00
-0.2320000E-01  0.0000000E+00
-0.2210000E-01 -0.0000000E+00
-0.2100000E-01 -0.0000000E+00
-0.1990000E-01  0.4948936E-37
-0.1880000E-01  0.1427409E-36
-0.1770000E-01  0.1605101E-36
-0.1660000E-01 -0.6085841E-37
-0.1550000E-01 -0.5714770E-36
-0.1440000E-01 -0.1111432E-35
-0.1330000E-01 -0.1024656E-35
-0.1220000E-01  0.4689532E-36
-0.1110000E-01  0.3643597E-35
-0.1000000E-01  0.7178420E-35
-0.8900000E-02  0.7464579E-35
-0.7800000E-02 -0.4565799E-36
-0.6700000E-02 -0.1911781E-34
-0.5600000E-02 -0.4231869E-34
-0.4500000E-02 -0.5017264E-34
-0.3400000E-02 -0.1294689E-34
-0.2300000E-02  0.8890280E-34
-0.1200000E-02  0.2295911E-33
-0.1000000E-03  0.3071330E-33
 0.1000000E-02  0.1560972E-33
 0.2100000E-02 -0.3547293E-33
 0.3200000E-02 -0.1139160E-32
 0.4300000E-02 -0.1715446E-32
 0.5400000E-02 -0.1228035E-32
 0.6500000E-02  0.1113605E-32
 0.7600000E-02  0.5141817E-32
 0.8700000E-02  0.8773783E-32
 0.9800000E-02  0.7896832E-32
 0.1090000E-01 -0.1826229E-32
 0.1200000E-01 -0.2088535E-31
 0.1310000E-01 -0.4112843E-31
 0.1420000E-01 -0.4419871E-31
 0.1530000E-01 -0.8251578E-32
 0.1640000E-01  0.7471293E-31
 0.1750000E-01  0.1764164E-30
 0.1860000E-01  0.2209629E-30
 0.1970000E-01  0.1068830E-30
 0.2080000E-01 -0.2241426E-30
 0.2190000E-01 -0.6892161E-30
 0.2300000E-01 -0.9988977E-30
 0.2410000E-01 -0.7173738E-30
 0.2520000E-01  0.4847316E-30
 0.2630000E-01  0.2429788E-29
 0.2740000E-01  0.4106881E-29
 0.2850000E-01  0.3783340E-29
 0.2960000E-01 -0.1379961E-30
 0.3070000E-01 -0.7590399E-29
 0.3180000E-01 -0.1538092E-28
 0.3290000E-01 -0.1713466E-28
 0.3400000E-01 -0.5944816E-29
 0.3510000E-01  0.2018509E-28
 0.3620000E-01  0.5235850E-28
 0.3730000E-01  0.6890947E-28
 0.3840000E-01  0.4271598E-28
 0.3950000E-01 -0.4074913E-28
 0.4060000E-01 -0.1608565E-27
 0.4170000E-01 -0.2498678E-27
 0.4280000E-01 -0.2101312E-27
 0.4390000E-01  0.3033219E-28
 0.4500000E-01  0.4389441E-27
 0.4610000E-01  0.8224436E-27
 0.4720000E-01  0.8567870E-27
 0.4830000E-01  0.2451197E-27
 0.4940000E-01 -0.1025603E-26
 0.5050000E-01 -0.2460185E-26
 0.5160000E-01 -0.3065425E-26
 0.5270000E-01 -0.1759929E-26
 0.5380000E-01  0.1847846E-26
 0.5490000E-01  0.6657448E-26
 0.5600000E-01  0.9858879E-26
 0.5710000E-01  0.7881888E-26
 0.5820000E-01 -0.1405585E-26
 0.5930000E-01 -0.1607720E-25
 0.6040000E-01 -0.2882550E-25
 0.6150000E-01 -0.2882660E-25
 0.6260000E-01 -0.7515935E-26
 0.6370000E-01  0.3349527E-25
 0.6480000E-01  0.7692104E-25
 0.6590000E-01  0.9242336E-25
 0.6700000E-01  0.5063772E-25
 0.6810000E-01 -0.5455683E-25
 0.6920000E-01 -0.1868300E-24
 0.7030000E-01 -0.2673736E-24
 0.7140000E-01 -0.2059847E-24
 0.7250000E-01  0.4041586E-25
 0.7360000E-01  0.4079013E-24
 0.7470000E-01  0.7070923E-24
 0.7580000E-01  0.6843032E-24
 0.7690000E-01  0.1651828E-24
 0.7800000E-01 -0.7742940E-24
 0.7910000E-01 -0.1716419E-23
 0.8020000E-01 -0.2001182E-23
 0.8130000E-01 -0.1054477E-23
 0.8240000E-01  0.1158988E-23
 0.8350000E-01  0.3809213E-23
 0.8460000E-01  0.5301606E-23
 0.8570000E-01  0.3968817E-23
 0.8680000E-01 -0.8097676E-24
 0.8790000E-01 -0.7613109E-23
 0.8900000E-01 -0.1286845E-22
 0.9010000E-01 -0.1217146E-22
 0.9120000E-01 -0.2872772E-23
 0.9230000E-01  0.1319669E-22
 0.9340000E-01  0.2866644E-22
 0.9450000E-01  0.3281110E-22
 0.9560000E-01  0.1712503E-22
 0.9670000E-01 -0.1781695E-22
 0.9780000E-01 -0.5824096E-22
 0.9890000E-01 -0.7994013E-22
 0.1000000E+00 -0.5941109E-22
 0.1011000E+00  0.1010585E-22
 0.1022000E+00  0.1061218E-21
 0.1033000E+00  0.1779918E-21
 0.1044000E+00  0.1672616E-21
 0.1055000E+00  0.4266340E-22
 0.1066000E+00 -0.1667629E-21
 0.1077000E+00 -0.3632517E-21
 0.1088000E+00 -0.4133580E-21
 0.1099000E+00 -0.2192664E-21
 0.1110000E+00  0.2015700E-21
 0.1121000E+00  0.6770982E-21
 0.1132000E+00  0.9250247E-21
 0.1143000E+00  0.6881169E-21
 0.1154000E+00 -0.8875006E-22
 0.1165000E+00 -0.1137228E-20
 0.1176000E+00 -0.1902083E-20
 0.1187000E+00 -0.1778092E-20
 0.1198000E+00 -0.4772312E-21
 0.1209000E+00  0.1657007E-20
 0.1220000E+00  0.3611877E-20
 0.1231000E+00  0.4080172E-20
 0.1242000E+00  0.2172790E-20
 0.1253000E+00 -0.1851972E-20
 0.1264000E+00 -0.6300575E-20
 0.1275000E+00 -0.8553077E-20
 0.1286000E+00 -0.6353931E-20
 0.1297000E+00  0.6323942E-21
 0.1308000E+00  0.9882526E-20
 0.1319000E+00  0.1651541E-19
 0.1330000E+00  0.1545565E-19
 0.1341000E+00  0.4516871E-20
 0.1352000E+00 -0.1318676E-19
 0.1363000E+00 -0.2924876E-19
 0.1374000E+00 -0.3326177E-19
 0.1385000E+00 -0.1851470E-19
 0.1396000E+00  0.1258873E-19
 0.1407000E+00  0.4683826E-19
 0.1418000E+00  0.6458196E-19
 0.1429000E+00  0.4952834E-19
 0.1440000E+00 -0.2015178E-21
 0.1451000E+00 -0.6613532E-19
 0.1462000E+00 -0.1139590E-18
 0.1473000E+00 -0.1091488E-18
 0.1484000E+00 -0.3780008E-19
 0.1495000E+00  0.7837377E-19
 0.1506000E+00  0.1838699E-18
 0.1517000E+00  0.2122740E-18
 0.1528000E+00  0.1229057E-18
 0.1539000E+00 -0.6671144E-19
 0.1550000E+00 -0.2735269E-18
 0.1561000E+00 -0.3789440E-18
 0.1572000E+00 -0.2893558E-18
 0.1583000E+00  0.6643282E-22
 0.1594000E+00  0.3758217E-18
 0.1605000E+00  0.6387902E-18
 0.1616000E+00  0.5980253E-18
 0.1627000E+00  0.1873429E-18
 0.1638000E+00 -0.4584521E-18
 0.1649000E+00 -0.1024996E-17
 0.1660000E+00 -0.1152827E-17
 0.1671000E+00 -0.6372107E-18
 0.1682000E+00  0.4067166E-18
 0.1693000E+00  0.1520919E-17
 0.1704000E+00  0.2076591E-17
 0.1715000E+00  0.1593766E-17
 0.1726000E+00  0.6093320E-19
 0.1737000E+00 -0.1932209E-17
 0.1748000E+00 -0.3375585E-17
 0.1759000E+00 -0.3309528E-17
 0.1770000E+00 -0.1386700E-17
 0.1781000E+00  0.1777101E-17
 0.1792000E+00  0.4718229E-17
 0.1803000E+00  0.5753796E-17
 0.1814000E+00  0.3884639E-17
 0.1825000E+00 -0.4825485E-18
 0.1836000E+00 -0.5452002E-17
 0.1847000E+00 -0.8389631E-17
 0.1858000E+00 -0.7264338E-17
 0.1869000E+00 -0.1937844E-17
 0.1880000E+00  0.5355838E-17
 0.1891000E+00  0.1080119E-16
 0.1902000E+00  0.1088619E-16
 0.1913000E+00  0.4526435E-17
 0.1924000E+00 -0.5761338E-17
 0.1935000E+00 -0.1454264E-16
 0.1946000E+00 -0.1603279E-16
 0.1957000E+00 -0.7479171E-17
 0.1968000E+00  0.8437208E-17
 0.1979000E+00  0.2382461E-16
 0.1990000E+00  0.2893017E-16
 0.2001000E+00  0.1742335E-16
 0.2012000E+00 -0.8975686E-17
 0.2023000E+00 -0.3934045E-16
 0.2034000E+00 -0.5734524E-16
 0.2045000E+00 -0.4905560E-16
 0.2056000E+00 -0.1126569E-16
 0.2067000E+00  0.4411115E-16
 0.2078000E+00  0.9286768E-16
 0.2089000E+00  0.1085264E-15
 0.2100000E+00  0.7561906E-16
 0.2111000E+00 -0.2359938E-18
 0.2122000E+00 -0.9136517E-16
 0.2133000E+00 -0.1582271E-15
 0.2144000E+00 -0.1671731E-15
 0.2155000E+00 -0.1076018E-15
 0.2166000E+00  0.5347787E-18
 0.2177000E+00  0.1139701E-15
 0.2188000E+00  0.1858923E-15
 0.2199000E+00  0.1889006E-15
 0.2210000E+00  0.1289137E-15
 0.2221000E+00  0.4141132E-16
 0.2232000E+00 -0.2951063E-16
 0.2243000E+00 -0.5859103E-16
 0.2254000E+00 -0.5712967E-16
 0.2265000E+00 -0.6795243E-16
 0.2276000E+00 -0.1362729E-15
 0.2287000E+00 -0.2700524E-15
 0.2298000E+00 -0.4134740E-15
 0.2309000E+00 -0.4552434E-15
 0.2320000E+00 -0.2780555E-15
 0.2331000E+00  0.1674358E-15
 0.2342000E+00  0.8000322E-15
 0.2353000E+00  0.1396431E-14
 0.2364000E+00  0.1653057E-14
 0.2375000E+00  0.1310172E-14
 0.2386000E+00  0.2919250E-15
 0.2397000E+00 -0.1202822E-14
 0.2408000E+00 -0.2713726E-14
 0.2419000E+00 -0.3651838E-14
 0.2430000E+00 -0.3514472E-14
 0.2441000E+00 -0.2101458E-14
 0.2452000E+00  0.3584984E-15
 0.2463000E+00  0.3232514E-14
 0.2474000E+00  0.5660412E-14
 0.2485000E+00  0.6821740E-14
 0.2496000E+00  0.6194203E-14
 0.2507000E+00  0.3712713E-14
 0.2518000E+00 -0.2137635E-15
 0.2529000E+00 -0.4807657E-14
 0.2540000E+00 -0.9087253E-14
 0.2551000E+00 -0.1202612E-13
 0.2562000E+00 -0.1268372E-13
 0.2573000E+00 -0.1033613E-13
 0.2584000E+00 -0.4660421E-14
 0.2595000E+00  0.4006531E-14
 0.2606000E+00  0.1439935E-13
 0.2617000E+00  0.2420459E-13
 0.2628000E+00  0.3028802E-13
 0.2639000E+00  0.2939596E-13
 0.2650000E+00  0.1927322E-13
 0.2661000E+00 -0.9952502E-16
 0.2672000E+00 -0.2563298E-13
 0.2683000E+00 -0.5112507E-13
 0.2694000E+00 -0.6842439E-13
 0.2705000E+00 -0.6966391E-13
 0.2716000E+00 -0.5001222E-13
 0.2727000E+00 -0.1005968E-13
 0.2738000E+00  0.4308745E-13
 0.2749000E+00  0.9663034E-13
 0.2760000E+00  0.1348705E-12
 0.2771000E+00  0.1433714E-12
 0.2782000E+00  0.1133882E-12
 0.2793000E+00  0.4529485E-13
 0.2804000E+00 -0.5004134E-13
 0.2815000E+00 -0.1524778E-12
 0.2826000E+00 -0.2363085E-12
 0.2837000E+00 -0.2758065E-12
 0.2848000E+00 -0.2515511E-12
 0.2859000E+00 -0.1563040E-12
 0.2870000E+00  0.8345429E-15
 0.2881000E+00  0.1931766E-12
 0.2892000E+00  0.3790604E-12
 0.2903000E+00  0.5087778E-12
 0.2914000E+00  0.5353996E-12
 0.2925000E+00  0.4278668E-12
 0.2936000E+00  0.1834226E-12
 0.2947000E+00 -0.1644270E-12
 0.2958000E+00 -0.5461613E-12
 0.2969000E+00 -0.8670051E-12
 0.2980000E+00 -0.1027772E-11
 0.2991000E+00 -0.9519535E-12
 0.3002000E+00 -0.6122033E-12
 0.3013000E+00 -0.4797955E-13
 0.3024000E+00  0.6328118E-12
 0.3035000E+00  0.1271644E-11
 0.3046000E+00  0.1694692E-11
 0.3057000E+00  0.1758020E-11
 0.3068000E+00  0.1391010E-11
 0.3079000E+00  0.6254564E-12
 0.3090000E+00 -0.3994746E-12
 0.3101000E+00 -0.1460471E-11
 0.3112000E+00 -0.2298148E-11
 0.3123000E+00 -0.2679764E-11
 0.3134000E+00 -0.2461739E-11
 0.3145000E+00 -0.1636015E-11
 0.3156000E+00 -0.3469114E-12
 0.3167000E+00  0.1128918E-11
 0.3178000E+00  0.2438780E-11
 0.3189000E+00  0.3237027E-11
 0.3200000E+00  0.3277615E-11
 0.3211000E+00  0.2493649E-11
 0.3222000E+00  0.1040592E-11
 0.3233000E+00 -0.7153263E-12
 0.3244000E+00 -0.2271080E-11
 0.3255000E+00 -0.3114993E-11
 0.3266000E+00 -0.2883329E-11
 0.3277000E+00 -0.1504983E-11
 0.3288000E+00  0.7122998E-12
 0.3299000E+00  0.3094433E-11
 0.3310000E+00  0.4732099E-11
 0.3321000E+00  0.4718936E-11
 0.3332000E+00  0.2449888E-11
 0.3343000E+00 -0.2096360E-11
 0.3354000E+00 -0.8179750E-11
 0.3365000E+00 -0.1430418E-10
 0.3376000E+00 -0.1844828E-10
 0.3387000E+00 -0.1850959E-10
 0.3398000E+00 -0.1288810E-10
 0.3409000E+00 -0.1082202E-11
 0.3420000E+00  0.1585913E-10
 0.3431000E+00  0.3517813E-10
 0.3442000E+00  0.5264925E-10
 0.3453000E+00  0.6324657E-10
 0.3464000E+00  0.6216641E-10
 0.3475000E+00  0.4603603E-10
 0.3486000E+00  0.1406414E-10
 0.3497000E+00 -0.3114340E-10
 0.3508000E+00 -0.8335424E-10
 0.3519000E+00 -0.1332321E-09
 0.3530000E+00 -0.1696404E-09
 0.3541000E+00 -0.1815891E-09
 0.3552000E+00 -0.1605284E-09
 0.3563000E+00 -0.1025675E-09
 0.3574000E+00 -0.1015395E-10
 0.3585000E+00  0.1072081E-09
 0.3596000E+00  0.2334815E-09
 0.3607000E+00  0.3479277E-09
 0.3618000E+00  0.4280630E-09
 0.3629000E+00  0.4533248E-09
 0.3640000E+00  0.4088618E-09
 0.3651000E+00  0.2887915E-09
 0.3662000E+00  0.9832343E-10
 0.3673000E+00 -0.1456981E-09
 0.3684000E+00 -0.4160269E-09
 0.3695000E+00 -0.6779349E-09
 0.3706000E+00 -0.8934497E-09
 0.3717000E+00 -0.1026318E-08
 0.3728000E+00 -0.1046980E-08
 0.3739000E+00 -0.9368246E-09
 0.3750000E+00 -0.6911328E-09
 0.3761000E+00 -0.3203330E-09
 0.3772000E+00  0.1505020E-09
 0.3783000E+00  0.6836681E-09
 0.3794000E+00  0.1231861E-08
 0.3805000E+00  0.1741603E-08
 0.3816000E+00  0.2156484E-08
 0.3827000E+00  0.2419854E-08
 0.3838000E+00  0.2476922E-08
 0.3849000E+00  0.2276596E-08
 0.3860000E+00  0.1773658E-08
 0.3871000E+00  0.9319933E-09
 0.3882000E+00 -0.2705531E-09
 0.3893000E+00 -0.1835484E-08
 0.3904000E+00 -0.3735390E-08
 0.3915000E+00 -0.5904911E-08
 0.3926000E+00 -0.8232078E-08
 0.3937000E+00 -0.1055130E-07
 0.3948000E+00 -0.1263907E-07
 0.3959000E+00 -0.1421288E-07
 0.3970000E+00 -0.1493329E-07
 0.3981000E+00 -0.1440803E-07
 0.3992000E+00 -0.1219647E-07
 0.4003000E+00 -0.7812087E-08
 0.4014000E+00 -0.7203401E-09
 0.4025000E+00  0.9670809E-08
 0.4036000E+00  0.2403025E-07
 0.4047000E+00  0.4313519E-07
 0.4058000E+00  0.6791623E-07
 0.4069000E+00  0.9951714E-07
 0.4080000E+00  0.1393693E-06
 0.4091000E+00  0.1892805E-06
 0.4102000E+00  0.2515370E-06
 0.4113000E+00  0.3290177E-06
 0.4124000E+00  0.4253188E-06
 0.4135000E+00  0.5448910E-06
 0.4146000E+00  0.6931888E-06
 0.4157000E+00  0.8768386E-06
 0.4168000E+00  0.1103828E-05
 0.4179000E+00  0.1383728E-05
 0.4190000E+00  0.1727955E-05
 0.4201000E+00  0.2150078E-05
 0.4212000E+00  0.2666182E-05
 0.4223000E+00  0.3295292E-05
 0.4234000E+00  0.4059852E-05
 0.4245000E+00  0.4986273E-05
 0.4256000E+00  0.6105529E-05
 0.4267000E+00  0.7453825E-05
 0.4278000E+00  0.9073305E-05
 0.4289000E+00  0.1101283E-04
 0.4300000E+00  0.1332879E-04
 0.4311000E+00  0.1608598E-04
 0.4322000E+00  0.1935854E-04
 0.4333000E+00  0.2323091E-04
 0.4344000E+00  0.2779883E-04
 0.4355000E+00  0.3317043E-04
 0.4366000E+00  0.3946730E-04
 0.4377000E+00  0.4682552E-04
 0.4388000E+00  0.5539677E-04
 0.4399000E+00  0.6534935E-04
 0.4410000E+00  0.7686908E-04
 0.4421000E+00  0.9016012E-04
 0.4432000E+00  0.1054456E-03
 0.4443000E+00  0.1229679E-03
 0.4454000E+00  0.1429891E-03
 0.4465000E+00  0.1657903E-03
 0.4476000E+00  0.1916712E-03
 0.4487000E+00  0.2209492E-03
 0.4498000E+00  0.2539573E-03
 0.4509000E+00  0.2910426E-03
 0.4520000E+00  0.3325631E-03
 0.4531000E+00  0.3788846E-03
 0.4542000E+00  0.4303764E-03
 0.4553000E+00  0.4874064E-03
 0.4564000E+00  0.5503360E-03
 0.4575000E+00  0.6195131E-03
 0.4586000E+00  0.6952655E-03
 0.4597000E+00  0.7778923E-03
 0.4608000E+00  0.8676555E-03
 0.4619000E+00  0.9647702E-03
 0.4630000E+00  0.1069394E-02
 0.4641000E+00  0.1181618E-02
 0.4652000E+00  0.1301452E-02
 0.4663000E+00  0.1428817E-02
 0.4674000E+00  0.1563532E-02
 0.4685000E+00  0.1705303E-02
 0.4696000E+00  0.1853714E-02
 0.4707000E+00  0.2008214E-02
 0.4718000E+00  0.2168109E-02
 0.4729000E+00  0.2332557E-02
 0.4740000E+00  0.2500557E-02
 0.4751000E+00  0.2670951E-02
 0.4762000E+00  0.2842417E-02
 0.4773000E+00  0.3013472E-02
 0.4784000E+00  0.3182476E-02
 0.4795000E+00  0.3347635E-02
 0.4806000E+00  0.3507011E-02
 0.4817000E+00  0.3658537E-02
 0.4828000E+00  0.3800030E-02
 0.4839000E+00  0.3929212E-02
 0.4850000E+00  0.4043734E-02
 0.4861000E+00  0.4141203E-02
 0.4872000E+00  0.4219207E-02
 0.4883000E+00  0.4275354E-02
 0.4894000E+00  0.4307299E-02
 0.4905000E+00  0.4312788E-02
 0.4916000E+00  0.4289689E-02
 0.4927000E+00  0.4236037E-02
 0.4938000E+00  0.4150072E-02
 0.4949000E+00  0.4030276E-02
 0.4960000E+00  0.3875411E-02
 0.4971000E+00  0.3684554E-02
 0.4982000E+00  0.3457129E-02
 0.4993000E+00  0.3192934E-02
 0.5004000E+00  0.2892170E-02
 0.5015000E+00  0.2555456E-02
 0.5026000E+00  0.2183845E-02
 0.5037000E+00  0.1778831E-02
 0.5048000E+00  0.1342346E-02
 0.5059000E+00  0.8767603E-03
 0.5070000E+00  0.3848640E-03
 0.5081000E+00 -0.1301517E-03
 0.5092000E+00 -0.6647223E-03
 0.5103000E+00 -0.1214945E-02
 0.5114000E+00 -0.1776622E-02
 0.5125000E+00 -0.2345304E-02
 0.5136000E+00 -0.2916349E-02
 0.5147000E+00 -0.3484973E-02
 0.5158000E+00 -0.4046317E-02
 0.5169000E+00 -0.4595502E-02
 0.5180000E+00 -0.5127700E-02
 0.5191000E+00 -0.5638194E-02
 0.5202000E+00 -0.6122446E-02
 0.5213000E+00 -0.6576156E-02
 0.5224000E+00 -0.6995321E-02
 0.5235000E+00 -0.7376291E-02
 0.5246000E+00 -0.7715814E-02
 0.5257000E+00 -0.8011081E-02
 0.5268000E+00 -0.8259761E-02
 0.5279000E+00 -0.8460031E-02
 0.5290000E+00 -0.8610598E-02
 0.5301000E+00 -0.8710708E-02
 0.5312000E+00 -0.8760153E-02
 0.5323000E+00 -0.8759262E-02
 0.5334000E+00 -0.8708887E-02
 0.5345000E+00 -0.8610386E-02
 0.5356000E+00 -0.8465596E-02
 0.5367000E+00 -0.8276794E-02
 0.5378000E+00 -0.8046664E-02
 0.5389000E+00 -0.7778246E-02
 0.5400000E+00 -0.7474883E-02
 0.5411000E+00 -0.7140171E-02
 0.5422000E+00 -0.6777903E-02
 0.5433000E+00 -0.6392016E-02
 0.5444000E+00 -0.5986535E-02
 0.5455000E+00 -0.5565520E-02
 0.5466000E+00 -0.5133011E-02
 0.5477000E+00 -0.4692976E-02
 0.5488000E+00 -0.4249264E-02
 0.5499000E+00 -0.3805559E-02
 0.5510000E+00 -0.3365351E-02
 0.5521000E+00 -0.2931899E-02
 0.5532000E+00 -0.2508205E-02
 0.5543000E+00 -0.2096994E-02
 0.5554000E+00 -0.1700690E-02
 0.5565000E+00 -0.1321408E-02
 0.5576000E+00 -0.9609478E-03
 0.5587000E+00 -0.6207928E-03
 0.5598000E+00 -0.3021182E-03
 0.5609000E+00 -0.5798354E-05
 0.5620000E+00  0.2675826E-03
 0.5631000E+00  0.5177171E-03
 0.5642000E+00  0.7445575E-03
 0.5653000E+00  0.9482948E-03
 0.5664000E+00  0.1129334E-02
 0.5675000E+00  0.1288270E-02
 0.5686000E+00  0.1425859E-02
 0.5697000E+00  0.1543000E-02
 0.5708000E+00  0.1640710E-02
 0.5719000E+00  0.1720101E-02
 0.5730000E+00  0.1782363E-02
 0.5741000E+00  0.1828734E-02
 0.5752000E+00  0.1860481E-02
 0.5763000E+00  0.1878880E-02
 0.5774000E+00  0.1885202E-02
 0.5785000E+00  0.1880697E-02
 0.5796000E+00  0.1866583E-02
 0.5807000E+00  0.1844038E-02
 0.5818000E+00  0.1814190E-02
 0.5829000E+00  0.1778106E-02
 0.5840000E+00  0.1736783E-02
 0.5851000E+00  0.1691149E-02
 0.5862000E+00  0.1642057E-02
 0.5873000E+00  0.1590287E-02
 0.5884000E+00  0.1536547E-02
 0.5895000E+00  0.1481475E-02
 0.5906000E+00  0.1425635E-02
 0.5917000E+00  0.1369523E-02
 0.5928000E+00  0.1313571E-02
 0.5939000E+00  0.1258145E-02
 0.5950000E+00  0.1203560E-02
 0.5961000E+00  0.1150079E-02
 0.5972000E+00  0.1097920E-02
 0.5983000E+00  0.1047258E-02
 0.5994000E+00  0.9982276E-03
 0.6005000E+00  0.9509284E-03
 0.6016000E+00  0.9054284E-03
 0.6027000E+00  0.8617701E-03
 0.6038000E+00  0.8199739E-03
 0.6049000E+00  0.7800421E-03
 0.6060000E+00  0.7419609E-03
 0.6071000E+00  0.7057020E-03
 0.6082000E+00  0.6712250E-03
 0.6093000E+00  0.6384797E-03
 0.6104000E+00  0.6074091E-03
 0.6115000E+00  0.5779520E-03
 0.6126000E+00  0.5500442E-03
 0.6137000E+00  0.5236199E-03
 0.6148000E+00  0.4986117E-03
 0.6159000E+00  0.4749505E-03
 0.6170000E+00  0.4525668E-03
 0.6181000E+00  0.4313905E-03
 0.6192000E+00  0.4113513E-03
 0.6203000E+00  0.3923787E-03
 0.6214000E+00  0.3744017E-03
 0.6225000E+00  0.3573481E-03
 0.6236000E+00  0.3411455E-03
 0.6247000E+00  0.3257215E-03
 0.6258000E+00  0.3110045E-03
 0.6269000E+00  0.2969232E-03
 0.6280000E+00  0.2834059E-03
 0.6291000E+00  0.2703793E-03
 0.6302000E+00  0.2577676E-03
 0.6313000E+00  0.2454922E-03
 0.6324000E+00  0.2334714E-03
 0.6335000E+00  0.2216208E-03
 0.6346000E+00  0.2098519E-03
 0.6357000E+00  0.1980714E-03
 0.6368000E+00  0.1861786E-03
 0.6379000E+00  0.1740653E-03
 0.6390000E+00  0.1616148E-03
 0.6401000E+00  0.1487024E-03
 0.6412000E+00  0.1351962E-03
 0.6423000E+00  0.1209567E-03
 0.6434000E+00  0.1058366E-03
 0.6445000E+00  0.8967963E-04
 0.6456000E+00  0.7232033E-04
 0.6467000E+00  0.5358442E-04
 0.6478000E+00  0.3328979E-04
 0.6489000E+00  0.1124744E-04
 0.6500000E+00 -0.1273808E-04
 0.6511000E+00 -0.3886883E-04
 0.6522000E+00 -0.6735363E-04
 0.6533000E+00 -0.9840727E-04
 0.6544000E+00 -0.1322482E-03
 0.6555000E+00 -0.1690947E-03
 0.6566000E+00 -0.2091609E-03
 0.6577000E+00 -0.2526519E-03
 0.6588000E+00 -0.2997605E-03
 0.6599000E+00 -0.3506637E-03
 0.6610000E+00 -0.4055187E-03
 0.6621000E+00 -0.4644583E-03
 0.6632000E+00 -0.5275849E-03
 0.6643000E+00 -0.5949651E-03
 0.6654000E+00 -0.6666233E-03
 0.6665000E+00 -0.7425370E-03
 0.6676000E+00 -0.8226326E-03
 0.6687000E+00 -0.9067805E-03
 0.6698000E+00 -0.9947903E-03
 0.6709000E+00 -0.1086405E-02
 0.6720000E+00 -0.1181297E-02
 0.6731000E+00 -0.1279061E-02
 0.6742000E+00 -0.1379212E-02
 0.6753000E+00 -0.1481183E-02
 0.6764000E+00 -0.1584322E-02
 0.6775000E+00 -0.1687896E-02
 0.6786000E+00 -0.1791090E-02
 0.6797000E+00 -0.1893008E-02
 0.6808000E+00 -0.1992681E-02
 0.6819000E+00 -0.2089076E-02
 0.6830000E+00 -0.2181101E-02
 0.6841000E+00 -0.2267618E-02
 0.6852000E+00 -0.2347457E-02
 0.6863000E+00 -0.2419423E-02
 0.6874000E+00 -0.2482316E-02
 0.6885000E+00 -0.2534939E-02
 0.6896000E+00 -0.2576123E-02
 0.6907000E+00 -0.2604740E-02
 0.6918000E+00 -0.2619721E-02
 0.6929000E+00 -0.2620081E-02
 0.6940000E+00 -0.2604928E-02
 0.6951000E+00 -0.2573491E-02
 0.6962000E+00 -0.2525127E-02
 0.6973000E+00 -0.2459348E-02
 0.6984000E+00 -0.2375829E-02
 0.6995000E+00 -0.2274425E-02
 0.7006000E+00 -0.2155183E-02
 0.7017000E+00 -0.2018349E-02
 0.7028000E+00 -0.1864372E-02
 0.7039000E+00 -0.1693911E-02
 0.7050000E+00 -0.1507829E-02
 0.7061000E+00 -0.1307194E-02
 0.7072000E+00 -0.1093266E-02
 0.7083000E+00 -0.8674898E-03
 0.7094000E+00 -0.6314794E-03
 0.7105000E+00 -0.3869986E-03
 0.7116000E+00 -0.1359446E-03
 0.7127000E+00  0.1196732E-03
 0.7138000E+00  0.3777561E-03
 0.7149000E+00  0.6361417E-03
 0.7160000E+00  0.8926319E-03
 0.7171000E+00  0.1145023E-02
 0.7182000E+00  0.1391133E-02
 0.7193000E+00  0.1628836E-02
 0.7204000E+00  0.1856081E-02
 0.7215000E+00  0.2070921E-02
 0.7226000E+00  0.2271537E-02
 0.7237000E+00  0.2456260E-02
 0.7248000E+00  0.2623596E-02
 0.7259000E+00  0.2772244E-02
 0.7270000E+00  0.2901111E-02
 0.7281000E+00  0.3009327E-02
 0.7292000E+00  0.3096245E-02
 0.7303000E+00  0.3161446E-02
 0.7314000E+00  0.3204739E-02
 0.7325000E+00  0.3226153E-02
 0.7336000E+00  0.3225937E-02
 0.7347000E+00  0.3204545E-02
 0.7358000E+00  0.3162625E-02
 0.7369000E+00  0.3101002E-02
 0.7380000E+00  0.3020662E-02
 0.7391000E+00  0.2922728E-02
 0.7402000E+00  0.2808446E-02
 0.7413000E+00  0.2679155E-02
 0.7424000E+00  0.2536276E-02
 0.7435000E+00  0.2381274E-02
 0.7446000E+00  0.2215646E-02
 0.7457000E+00  0.2040889E-02
 0.7468000E+00  0.1858479E-02
 0.7479000E+00  0.1669856E-02
 0.7490000E+00  0.1476409E-02
 0.7501000E+00  0.1279454E-02
 0.7512000E+00  0.1080230E-02
 0.7523000E+00  0.8798824E-03
 0.7534000E+00  0.6794516E-03
 0.7545000E+00  0.4798711E-03
 0.7556000E+00  0.2819643E-03
 0.7567000E+00  0.8644729E-04
 0.7578000E+00 -0.1060646E-03
 0.7589000E+00 -0.2950509E-03
 0.7600000E+00 -0.4800781E-03
 0.7611000E+00 -0.6607916E-03
 0.7622000E+00 -0.8369058E-03
 0.7633000E+00 -0.1008192E-02
 0.7644000E+00 -0.1174463E-02
 0.7655000E+00 -0.1335557E-02
 0.7666000E+00 -0.1491321E-02
 0.7677000E+00 -0.1641594E-02
 0.7688000E+00 -0.1786198E-02
 0.7699000E+00 -0.1924918E-02
 0.7710000E+00 -0.2057494E-02
 0.7721000E+00 -0.2183607E-02
 0.7732000E+00 -0.2302869E-02
 0.7743000E+00 -0.2414812E-02
 0.7754000E+00 -0.2518888E-02
 0.7765000E+00 -0.2614464E-02
 0.7776000E+00 -0.2700828E-02
 0.7787000E+00 -0.2777191E-02
 0.7798000E+00 -0.2842694E-02
 0.7809000E+00 -0.2896413E-02
 0.7820000E+00 -0.2937373E-02
 0.7831000E+00 -0.2964562E-02
 0.7842000E+00 -0.2976952E-02
 0.7853000E+00 -0.2973516E-02
 0.7864000E+00 -0.2953256E-02
 0.7875000E+00 -0.2915225E-02
 0.7886000E+00 -0.2858544E-02
 0.7897000E+00 -0.2782430E-02
 0.7908000E+00 -0.2686218E-02
 0.7919000E+00 -0.2569379E-02
 0.7930000E+00 -0.2431553E-02
 0.7941000E+00 -0.2272565E-02
 0.7952000E+00 -0.2092449E-02
 0.7963000E+00 -0.1891460E-02
 0.7974000E+00 -0.1670089E-02
 0.7985000E+00 -0.1429069E-02
 0.7996000E+00 -0.1169385E-02
 0.8007000E+00 -0.8922683E-03
 0.8018000E+00 -0.5991968E-03
 0.8029000E+00 -0.2918830E-03
 0.8040000E+00  0.2774049E-04
 0.8051000E+00  0.3575420E-03
 0.8062000E+00  0.6952160E-03
 0.8073000E+00  0.1038312E-02
 0.8084000E+00  0.1384269E-02
 0.8095000E+00  0.1730448E-02
 0.8106000E+00  0.2074177E-02
 0.8117000E+00  0.2412791E-02
 0.8128000E+00  0.2743676E-02
 0.8139000E+00  0.3064315E-02
 0.8150000E+00  0.3372336E-02
 0.8161000E+00  0.3665554E-02
 0.8172000E+00  0.3942016E-02
 0.8183000E+00  0.4200042E-02
 0.8194000E+00  0.4438270E-02
 0.8205000E+00  0.4655689E-02
 0.8216000E+00  0.4851676E-02
 0.8227000E+00  0.5026023E-02
 0.8238000E+00  0.5178962E-02
 0.8249000E+00  0.5311176E-02
 0.8260000E+00  0.5423816E-02
 0.8271000E+00  0.5518500E-02
 0.8282000E+00  0.5597314E-02
 0.8293000E+00  0.5662812E-02
 0.8304000E+00  0.5718001E-02
 0.8315000E+00  0.5766332E-02
 0.8326000E+00  0.5811672E-02
 0.8337000E+00  0.5858276E-02
 0.8348000E+00  0.5910753E-02
 0.8359000E+00  0.5974025E-02
 0.8370000E+00  0.6053280E-02
 0.8381000E+00  0.6153926E-02
 0.8392000E+00  0.6281539E-02
 0.8403000E+00  0.6441804E-02
 0.8414000E+00  0.6640453E-02
 0.8425000E+00  0.6883196E-02
 0.8436000E+00  0.7175647E-02
 0.8447000E+00  0.7523243E-02
 0.8458000E+00  0.7931170E-02
 0.8469000E+00  0.8404273E-02
 0.8480000E+00  0.8946972E-02
 0.8491000E+00  0.9563173E-02
 0.8502000E+00  0.1025617E-01
 0.8513000E+00  0.1102854E-01
 0.8524000E+00  0.1188205E-01
 0.8535000E+00  0.1281756E-01
 0.8546000E+00  0.1383492E-01
 0.8557000E+00  0.1493291E-01
 0.8568000E+00  0.1610910E-01
 0.8579000E+00  0.1735985E-01
 0.8590000E+00  0.1868019E-01
 0.8601000E+00  0.2006378E-01
 0.8612000E+00  0.2150286E-01
 0.8623000E+00  0.2298825E-01
 0.8634000E+00  0.2450933E-01
 0.8645000E+00  0.2605404E-01
 0.8656000E+00  0.2760899E-01
 0.8667000E+00  0.2915945E-01
 0.8678000E+00  0.3068949E-01
 0.8689000E+00  0.3218209E-01
 0.8700000E+00  0.3361928E-01
 0.8711000E+00  0.3498232E-01
 0.8722000E+00  0.3625190E-01
 0.8733000E+00  0.3740838E-01
 0.8744000E+00  0.3843202E-01
 0.8755000E+00  0.3930328E-01
 0.8766000E+00  0.4000304E-01
 0.8777000E+00  0.4051293E-01
 0.8788000E+00  0.4081560E-01
 0.8799000E+00  0.4089505E-01
 0.8810000E+00  0.4073691E-01
 0.8821000E+00  0.4032872E-01
 0.8832000E+00  0.3966021E-01
 0.8843000E+00  0.3872351E-01
 0.8854000E+00  0.3751342E-01
 0.8865000E+00  0.3602751E-01
 0.8876000E+00  0.3426636E-01
 0.8887000E+00  0.3223362E-01
 0.8898000E+00  0.2993607E-01
 0.8909000E+00  0.2738364E-01
 0.8920000E+00  0.2458938E-01
 0.8931000E+00  0.2156934E-01
 0.8942000E+00  0.1834245E-01
 0.8953000E+00  0.1493035E-01
 0.8964000E+00  0.1135716E-01
 0.8975000E+00  0.7649185E-02
 0.8986000E+00  0.3834636E-02
 0.8997000E+00 -0.5674411E-04
 0.9008000E+00 -0.3994053E-02
 0.9019000E+00 -0.7945621E-02
 0.9030000E+00 -0.1187942E-01
 0.9041000E+00 -0.1576348E-01
 0.9052000E+00 -0.1956628E-01
 0.9063000E+00 -0.2325718E-01
 0.9074000E+00 -0.2680681E-01
 0.9085000E+00 -0.3018745E-01
 0.9096000E+00 -0.3337336E-01
 0.9107000E+00 -0.3634110E-01
 0.9118000E+00 -0.3906982E-01
 0.9129000E+00 -0.4154142E-01
 0.9140000E+00 -0.4374079E-01
 0.9151000E+00 -0.4565592E-01
 0.9162000E+00 -0.4727801E-01
 0.9173000E+00 -0.4860150E-01
 0.9184000E+00 -0.4962407E-01
 0.9195000E+00 -0.5034654E-01
 0.9206000E+00 -0.5077278E-01
 0.9217000E+00 -0.5090958E-01
 0.9228000E+00 -0.5076640E-01
 0.9239000E+00 -0.5035523E-01
 0.9250000E+00 -0.4969028E-01
 0.9261000E+00 -0.4878772E-01
 0.9272000E+00 -0.4766544E-01
 0.9283000E+00 -0.4634267E-01
 0.9294000E+00 -0.4483973E-01
 0.9305000E+00 -0.4317770E-01
 0.9316000E+00 -0.4137814E-01
 0.9327000E+00 -0.3946278E-01
 0.9338000E+00 -0.3745323E-01
 0.9349000E+00 -0.3537076E-01
 0.9360000E+00 -0.3323603E-01
 0.9371000E+00 -0.3106886E-01
 0.9382000E+00 -0.2888807E-01
 0.9393000E+00 -0.2671132E-01
 0.9404000E+00 -0.2455497E-01
 0.9415000E+00 -0.2243397E-01
 0.9426000E+00 -0.2036180E-01
 0.9437000E+00 -0.1835041E-01
 0.9448000E+00 -0.1641022E-01
 0.9459000E+00 -0.1455007E-01
 0.9470000E+00 -0.1277731E-01
 0.9481000E+00 -0.1109779E-01
 0.9492000E+00 -0.9515978E-02
 0.9503000E+00 -0.8034982E-02
 0.9514000E+00 -0.6656666E-02
 0.9525000E+00 -0.5381735E-02
 0.9536000E+00 -0.4209830E-02
 0.9547000E+00 -0.3139646E-02
 0.9558000E+00 -0.2169040E-02
 0.9569000E+00 -0.1295145E-02
 0.9580000E+00 -0.5144737E-03
 0.9591000E+00  0.1769773E-03
 0.9602000E+00  0.7836374E-03
 0.9613000E+00  0.1310269E-02
 0.9624000E+00  0.1761878E-02
 0.9635000E+00  0.2143637E-02
 0.9646000E+00  0.2460805E-02
 0.9657000E+00  0.2718663E-02
 0.9668000E+00  0.2922464E-02
 0.9679000E+00  0.3077379E-02
 0.9690000E+00  0.3188459E-02
 0.9701000E+00  0.3260588E-02
 0.9712000E+00  0.3298453E-02
 0.9723000E+00  0.3306503E-02
 0.9734000E+00  0.3288934E-02
 0.9745000E+00  0.3249666E-02
 0.9756000E+00  0.3192338E-02
 0.9767000E+00  0.3120304E-02
 0.9778000E+00  0.3036629E-02
 0.9789000E+00  0.2944082E-02