-0.1200000E+00  0.0000000E+00
-0.1189000E+00  0.0000000E+00
-0.1178000E+00  0.0000000E+00
-0.1167000E+00  0.0000000E+00
-0.1156000E+00  0.0000000E+00
-0.1145000E+00  0.0000000E+00
-0.1134000E+00  0.0000000E+00
-0.1123000E+00  0.0000000E+00
-0.1112000E+00  0.0000000E+00
-0.1101000E+00  0.0000000E+00
-0.1090000E+00  0.0000000E+00
-0.1079000E+00  0.0000000E+00
-0.1068000E+00  0.0000000E+00
-0.1057000E+00  0.0000000E+00
-0.1046000E+00  0.0000000E+00
-0.1035000E+00 -0.1249498E-37
-0.1024000E+00 -0.1116604E-36
-0.1013000E+00 -0.6061993E-36
-0.1002000E+00 -0.2671327E-35
-0.9910000E-01 -0.9626785E-35
-0.9800000E-01 -0.2861984E-34
-0.9690000E-01 -0.7097202E-34
-0.9580000E-01 -0.1473318E-33
-0.9470000E-01 -0.2505831E-33
-0.9360000E-01 -0.3130858E-33
-0.9250000E-01 -0.1233202E-33
-0.9140000E-01  0.7524599E-33
-0.9030000E-01  0.2763027E-32
-0.8920000E-01  0.5249266E-32
-0.8810000E-01  0.4119264E-32
-0.8700000E-01 -0.9168553E-32
-0.8590000E-01 -0.3910230E-31
-0.8480000E-01 -0.5821543E-31
-0.8370000E-01  0.2905583E-31
-0.8260000E-01  0.3602533E-30
-0.8150000E-01  0.8957438E-30
-0.8040000E-01  0.9613831E-30
-0.7930000E-01 -0.1058624E-29
-0.7820000E-01 -0.6767701E-29
-0.7710000E-01 -0.1425085E-28
-0.7600000E-01 -0.1277900E-28
-0.7490000E-01  0.1812162E-28
-0.7380000E-01  0.9322536E-28
-0.7270000E-01  0.1812922E-27
-0.7160000E-01  0.1574145E-27
-0.7050000E-01 -0.1858097E-27
-0.6940000E-01 -0.9684956E-27
-0.6830000E-01 -0.1859105E-26
-0.6720000E-01 -0.1716127E-26
-0.6610000E-01  0.1213803E-26
-0.6500000E-01  0.7856302E-26
-0.6390000E-01  0.1557120E-25
-0.6280000E-01  0.1577879E-25
-0.6170000E-01 -0.4254885E-26
-0.6060000E-01 -0.5138230E-25
-0.5950000E-01 -0.1088142E-24
-0.5840000E-01 -0.1217530E-24
-0.5730000E-01 -0.9053557E-26
-0.5620000E-01  0.2770098E-24
-0.5510000E-01  0.6486914E-24
-0.5400000E-01  0.8016333E-24
-0.5290000E-01  0.2747723E-24
-0.5180000E-01 -0.1238004E-23
-0.5070000E-01 -0.3358987E-23
-0.4960000E-01 -0.4595042E-23
-0.4850000E-01 -0.2581920E-23
-0.4740000E-01  0.4470951E-23
-0.4630000E-01  0.1527859E-22
-0.4520000E-01  0.2331598E-22
-0.4410000E-01  0.1755183E-22
-0.4300000E-01 -0.1155120E-22
-0.4190000E-01 -0.6115585E-22
-0.4080000E-01 -0.1058475E-21
-0.3970000E-01 -0.9859817E-22
-0.3860000E-01  0.6912829E-23
-0.3750000E-01  0.2126773E-21
-0.3640000E-01  0.4313703E-21
-0.3530000E-01  0.4798657E-21
-0.3420000E-01  0.1528465E-21
-0.3310000E-01 -0.6161995E-21
-0.3200000E-01 -0.1570430E-20
-0.3090000E-01 -0.2061990E-20
-0.2980000E-01 -0.1261222E-20
-0.2870000E-01  0.1299478E-20
-0.2760000E-01  0.5025467E-20
-0.2650000E-01  0.7859516E-20
-0.2540000E-01  0.6756686E-20
-0.2430000E-01 -0.6529094E-21
-0.2320000E-01 -0.1362353E-19
-0.2210000E-01 -0.2642843E-19
-0.2100000E-01 -0.2898969E-19
-0.1990000E-01 -0.1138571E-19
-0.1880000E-01  0.2839818E-19
-0.1770000E-01  0.7708040E-19
-0.1660000E-01  0.1049490E-18
-0.1550000E-01  0.7625684E-19
-0.1440000E-01 -0.2861123E-19
-0.1330000E-01 -0.1875642E-18
-0.1220000E-01 -0.3242904E-18
-0.1110000E-01 -0.3265564E-18
-0.1000000E-01 -0.1022466E-18
-0.8900000E-02  0.3426041E-18
-0.7800000E-02  0.8450486E-18
-0.6700000E-02  0.1098882E-17
-0.5600000E-02  0.7755270E-18
-0.4500000E-02 -0.2664839E-18
-0.3400000E-02 -0.1773850E-17
-0.2300000E-02 -0.3034106E-17
-0.1200000E-02 -0.3079717E-17
-0.1000000E-03 -0.1176288E-17
 0.1000000E-02  0.2569373E-17
 0.2100000E-02  0.6813305E-17
 0.3200000E-02  0.9160665E-17
 0.4300000E-02  0.7120927E-17
 0.5400000E-02 -0.3789992E-18
 0.6500000E-02 -0.1159670E-16
 0.7600000E-02 -0.2162542E-16
 0.8700000E-02 -0.2382612E-16
 0.9800000E-02 -0.1301433E-16
 0.1090000E-01  0.1072031E-16
 0.1200000E-01  0.3958972E-16
 0.1310000E-01  0.5917683E-16
 0.1420000E-01  0.5392044E-16
 0.1530000E-01  0.1569246E-16
 0.1640000E-01 -0.4826440E-16
 0.1750000E-01 -0.1129588E-15
 0.1860000E-01 -0.1425154E-15
 0.1970000E-01 -0.1060586E-15
 0.2080000E-01  0.2922120E-17
 0.2190000E-01  0.1534161E-15
 0.2300000E-01  0.2797595E-15
 0.2410000E-01  0.3048767E-15
 0.2520000E-01  0.1783051E-15
 0.2630000E-01 -0.8688877E-16
 0.2740000E-01 -0.3991123E-15
 0.2850000E-01 -0.6108683E-15
 0.2960000E-01 -0.5791001E-15
 0.3070000E-01 -0.2426161E-15
 0.3180000E-01  0.3199919E-15
 0.3290000E-01  0.8892236E-15
 0.3400000E-01  0.1178034E-14
 0.3510000E-01  0.9622164E-15
 0.3620000E-01  0.2144200E-15
 0.3730000E-01 -0.8286096E-15
 0.3840000E-01 -0.1719514E-14
 0.3950000E-01 -0.1978111E-14
 0.4060000E-01 -0.1331249E-14
 0.4170000E-01  0.9690817E-16
 0.4280000E-01  0.1757508E-14
 0.4390000E-01  0.2866509E-14
 0.4500000E-01  0.2761550E-14
 0.4610000E-01  0.1274554E-14
 0.4720000E-01 -0.1076163E-14
 0.4830000E-01 -0.3218940E-14
 0.4940000E-01 -0.3988850E-14
 0.5050000E-01 -0.2738895E-14
 0.5160000E-01  0.1972178E-15
 0.5270000E-01  0.3478736E-14
 0.5380000E-01  0.5283519E-14
 0.5490000E-01  0.4224365E-14
 0.5600000E-01  0.2407658E-15
 0.5710000E-01 -0.5035045E-14
 0.5820000E-01 -0.8769937E-14
 0.5930000E-01 -0.8220362E-14
 0.6040000E-01 -0.2309717E-14
 0.6150000E-01  0.7300546E-14
 0.6260000E-01  0.1635709E-13
 0.6370000E-01  0.1960462E-13
 0.6480000E-01  0.1332797E-13
 0.6590000E-01 -0.2265291E-14
 0.6700000E-01 -0.2210398E-13
 0.6810000E-01 -0.3757282E-13
 0.6920000E-01 -0.3992319E-13
 0.7030000E-01 -0.2450552E-13
 0.7140000E-01  0.6110164E-14
 0.7250000E-01  0.4186347E-13
 0.7360000E-01  0.6841129E-13
 0.7470000E-01  0.7283566E-13
 0.7580000E-01  0.4951170E-13
 0.7690000E-01  0.3411637E-14
 0.7800000E-01 -0.5095037E-13
 0.7910000E-01 -0.9479308E-13
 0.8020000E-01 -0.1123647E-12
 0.8130000E-01 -0.9694655E-13
 0.8240000E-01 -0.5277234E-13
 0.8350000E-01  0.7874828E-14
 0.8460000E-01  0.7053552E-13
 0.8570000E-01  0.1238623E-12
 0.8680000E-01  0.1610988E-12
 0.8790000E-01  0.1769922E-12
 0.8900000E-01  0.1628038E-12
 0.9010000E-01  0.1044262E-12
 0.9120000E-01 -0.1198984E-13
 0.9230000E-01 -0.1865437E-12
 0.9340000E-01 -0.3898632E-12
 0.9450000E-01 -0.5555082E-12
 0.9560000E-01 -0.5908694E-12
 0.9670000E-01 -0.4104420E-12
 0.9780000E-01  0.1619307E-13
 0.9890000E-01  0.6211765E-12
 0.1000000E+00  0.1225076E-11
 0.1011000E+00  0.1572825E-11
 0.1022000E+00  0.1420332E-11
 0.1033000E+00  0.6485408E-12
 0.1044000E+00 -0.6394128E-12
 0.1055000E+00 -0.2088454E-11
 0.1066000E+00 -0.3163731E-11
 0.1077000E+00 -0.3322696E-11
 0.1088000E+00 -0.2239730E-11
 0.1099000E+00 -0.3567795E-15
 0.1110000E+00  0.2825470E-11
 0.1121000E+00  0.5291357E-11
 0.1132000E+00  0.6361238E-11
 0.1143000E+00  0.5297395E-11
 0.1154000E+00  0.2014469E-11
 0.1165000E+00 -0.2748745E-11
 0.1176000E+00 -0.7542730E-11
 0.1187000E+00 -0.1061440E-10
 0.1198000E+00 -0.1050290E-10
 0.1209000E+00 -0.6629137E-11
 0.1220000E+00  0.3434085E-12
 0.1231000E+00  0.8544409E-11
 0.1242000E+00  0.1537151E-10
 0.1253000E+00  0.1828966E-10
 0.1264000E+00  0.1570825E-10
 0.1275000E+00  0.7634041E-11
 0.1286000E+00 -0.4151544E-11
 0.1297000E+00 -0.1649539E-10
 0.1308000E+00 -0.2576284E-10
 0.1319000E+00 -0.2894295E-10
 0.1330000E+00 -0.2460339E-10
 0.1341000E+00 -0.1336391E-10
 0.1352000E+00  0.2284618E-11
 0.1363000E+00  0.1875635E-10
 0.1374000E+00  0.3245970E-10
 0.1385000E+00  0.4079051E-10
 0.1396000E+00  0.4264863E-10
 0.1407000E+00  0.3828582E-10
 0.1418000E+00  0.2858202E-10
 0.1429000E+00  0.1412952E-10
 0.1440000E+00 -0.5344259E-11
 0.1451000E+00 -0.3075341E-10
 0.1462000E+00 -0.6247319E-10
 0.1473000E+00 -0.9850657E-10
 0.1484000E+00 -0.1327520E-09
 0.1495000E+00 -0.1543667E-09
 0.1506000E+00 -0.1490900E-09
 0.1517000E+00 -0.1028452E-09
 0.1528000E+00 -0.7091985E-11
 0.1539000E+00  0.1354831E-09
 0.1550000E+00  0.3069248E-09
 0.1561000E+00  0.4735752E-09
 0.1572000E+00  0.5904462E-09
 0.1583000E+00  0.6102386E-09
 0.1594000E+00  0.4952820E-09
 0.1605000E+00  0.2294391E-09
 0.1616000E+00 -0.1733890E-09
 0.1627000E+00 -0.6668342E-09
 0.1638000E+00 -0.1176757E-08
 0.1649000E+00 -0.1612052E-08
 0.1660000E+00 -0.1878810E-08
 0.1671000E+00 -0.1894353E-08
 0.1682000E+00 -0.1598316E-08
 0.1693000E+00 -0.9597216E-09
 0.1704000E+00  0.1880492E-10
 0.1715000E+00  0.1296994E-08
 0.1726000E+00  0.2790371E-08
 0.1737000E+00  0.4360418E-08
 0.1748000E+00  0.5804002E-08
 0.1759000E+00  0.6848172E-08
 0.1770000E+00  0.7158442E-08
 0.1781000E+00  0.6367997E-08
 0.1792000E+00  0.4131201E-08
 0.1803000E+00  0.1983428E-09
 0.1814000E+00 -0.5498448E-08
 0.1825000E+00 -0.1276322E-07
 0.1836000E+00 -0.2107403E-07
 0.1847000E+00 -0.2955217E-07
 0.1858000E+00 -0.3696586E-07
 0.1869000E+00 -0.4176107E-07
 0.1880000E+00 -0.4210351E-07
 0.1891000E+00 -0.3591183E-07
 0.1902000E+00 -0.2086420E-07
 0.1913000E+00  0.5631868E-08
 0.1924000E+00  0.4650702E-07
 0.1935000E+00  0.1051268E-06
 0.1946000E+00  0.1854073E-06
 0.1957000E+00  0.2919448E-06
 0.1968000E+00  0.4301629E-06
 0.1979000E+00  0.6064989E-06
 0.1990000E+00  0.8286552E-06
 0.2001000E+00  0.1105952E-05
 0.2012000E+00  0.1449800E-05
 0.2023000E+00  0.1874315E-05
 0.2034000E+00  0.2397043E-05
 0.2045000E+00  0.3039801E-05
 0.2056000E+00  0.3829570E-05
 0.2067000E+00  0.4799451E-05
 0.2078000E+00  0.5989649E-05
 0.2089000E+00  0.7448541E-05
 0.2100000E+00  0.9233853E-05
 0.2111000E+00  0.1141403E-04
 0.2122000E+00  0.1406983E-04
 0.2133000E+00  0.1729625E-04
 0.2144000E+00  0.2120470E-04
 0.2155000E+00  0.2592552E-04
 0.2166000E+00  0.3161074E-04
 0.2177000E+00  0.3843712E-04
 0.2188000E+00  0.4660937E-04
 0.2199000E+00  0.5636362E-04
 0.2210000E+00  0.6797125E-04
 0.2221000E+00  0.8174288E-04
 0.2232000E+00  0.9803278E-04
 0.2243000E+00  0.1172436E-03
 0.2254000E+00  0.1398312E-03
 0.2265000E+00  0.1663099E-03
 0.2276000E+00  0.1972573E-03
 0.2287000E+00  0.2333194E-03
 0.2298000E+00  0.2752151E-03
 0.2309000E+00  0.3237401E-03
 0.2320000E+00  0.3797711E-03
 0.2331000E+00  0.4442684E-03
 0.2342000E+00  0.5182786E-03
 0.2353000E+00  0.6029355E-03
 0.2364000E+00  0.6994616E-03
 0.2375000E+00  0.8091659E-03
 0.2386000E+00  0.9334423E-03
 0.2397000E+00  0.1073764E-02
 0.2408000E+00  0.1231677E-02
 0.2419000E+00  0.1408790E-02
 0.2430000E+00  0.1606763E-02
 0.2441000E+00  0.1827289E-02
 0.2452000E+00  0.2072079E-02
 0.2463000E+00  0.2342839E-02
 0.2474000E+00  0.2641244E-02
 0.2485000E+00  0.2968909E-02
 0.2496000E+00  0.3327361E-02
 0.2507000E+00  0.3717998E-02
 0.2518000E+00  0.4142051E-02
 0.2529000E+00  0.4600543E-02
 0.2540000E+00  0.5094241E-02
 0.2551000E+00  0.5623612E-02
 0.2562000E+00  0.6188771E-02
 0.2573000E+00  0.6789432E-02
 0.2584000E+00  0.7424862E-02
 0.2595000E+00  0.8093828E-02
 0.2606000E+00  0.8794558E-02
 0.2617000E+00  0.9524692E-02
 0.2628000E+00  0.1028124E-01
 0.2639000E+00  0.1106056E-01
 0.2650000E+00  0.1185833E-01
 0.2661000E+00  0.1266949E-01
 0.2672000E+00  0.1348831E-01
 0.2683000E+00  0.1430831E-01
 0.2694000E+00  0.1512234E-01
 0.2705000E+00  0.1592256E-01
 0.2716000E+00  0.1670051E-01
 0.2727000E+00  0.1744716E-01
 0.2738000E+00  0.1815297E-01
 0.2749000E+00  0.1880798E-01
 0.2760000E+00  0.1940190E-01
 0.2771000E+00  0.1992427E-01
 0.2782000E+00  0.2036451E-01
 0.2793000E+00  0.2071211E-01
 0.2804000E+00  0.2095679E-01
 0.2815000E+00  0.2108859E-01
 0.2826000E+00  0.2109812E-01
 0.2837000E+00  0.2097669E-01
 0.2848000E+00  0.2071644E-01
 0.2859000E+00  0.2031058E-01
 0.2870000E+00  0.1975347E-01
 0.2881000E+00  0.1904085E-01
 0.2892000E+00  0.1816991E-01
 0.2903000E+00  0.1713942E-01
 0.2914000E+00  0.1594988E-01
 0.2925000E+00  0.1460358E-01
 0.2936000E+00  0.1310462E-01
 0.2947000E+00  0.1145901E-01
 0.2958000E+00  0.9674600E-02
 0.2969000E+00  0.7761111E-02
 0.2980000E+00  0.5730043E-02
 0.2991000E+00  0.3594601E-02
 0.3002000E+00  0.1369572E-02
 0.3013000E+00 -0.9288162E-03
 0.3024000E+00 -0.3283079E-02
 0.3035000E+00 -0.5674670E-02
 0.3046000E+00 -0.8084203E-02
 0.3057000E+00 -0.1049169E-01
 0.3068000E+00 -0.1287680E-01
 0.3079000E+00 -0.1521910E-01
 0.3090000E+00 -0.1749836E-01
 0.3101000E+00 -0.1969479E-01
 0.3112000E+00 -0.2178932E-01
 0.3123000E+00 -0.2376388E-01
 0.3134000E+00 -0.2560157E-01
 0.3145000E+00 -0.2728698E-01
 0.3156000E+00 -0.2880631E-01
 0.3167000E+00 -0.3014761E-01
 0.3178000E+00 -0.3130087E-01
 0.3189000E+00 -0.3225817E-01
 0.3200000E+00 -0.3301377E-01
 0.3211000E+00 -0.3356413E-01
 0.3222000E+00 -0.3390794E-01
 0.3233000E+00 -0.3404612E-01
 0.3244000E+00 -0.3398174E-01
 0.3255000E+00 -0.3371993E-01
 0.3266000E+00 -0.3326779E-01
 0.3277000E+00 -0.3263421E-01
 0.3288000E+00 -0.3182975E-01
 0.3299000E+00 -0.3086642E-01
 0.3310000E+00 -0.2975752E-01
 0.3321000E+00 -0.2851736E-01
 0.3332000E+00 -0.2716112E-01
 0.3343000E+00 -0.2570455E-01
 0.3354000E+00 -0.2416380E-01
 0.3365000E+00 -0.2255516E-01
 0.3376000E+00 -0.2089485E-01
 0.3387000E+00 -0.1919886E-01
 0.3398000E+00 -0.1748270E-01
 0.3409000E+00 -0.1576126E-01
 0.3420000E+00 -0.1404866E-01
 0.3431000E+00 -0.1235812E-01
 0.3442000E+00 -0.1070184E-01
 0.3453000E+00 -0.9090893E-02
 0.3464000E+00 -0.7535195E-02
 0.3475000E+00 -0.6043425E-02
 0.3486000E+00 -0.4623015E-02
 0.3497000E+00 -0.3280139E-02
 0.3508000E+00 -0.2019727E-02
 0.3519000E+00 -0.8454955E-03
 0.3530000E+00  0.2400047E-03
 0.3541000E+00  0.1235331E-02
 0.3552000E+00  0.2140078E-02
 0.3563000E+00  0.2954795E-02
 0.3574000E+00  0.3680902E-02
 0.3585000E+00  0.4320592E-02
 0.3596000E+00  0.4876737E-02
 0.3607000E+00  0.5352793E-02
 0.3618000E+00  0.5752706E-02
 0.3629000E+00  0.6080808E-02
 0.3640000E+00  0.6341740E-02
 0.3651000E+00  0.6540349E-02
 0.3662000E+00  0.6681616E-02
 0.3673000E+00  0.6770576E-02
 0.3684000E+00  0.6812248E-02
 0.3695000E+00  0.6811580E-02
 0.3706000E+00  0.6773391E-02
 0.3717000E+00  0.6702329E-02
 0.3728000E+00  0.6602830E-02
 0.3739000E+00  0.6479086E-02
 0.3750000E+00  0.6335019E-02
 0.3761000E+00  0.6174266E-02
 0.3772000E+00  0.6000169E-02
 0.3783000E+00  0.5815773E-02
 0.3794000E+00  0.5623829E-02
 0.3805000E+00  0.5426794E-02
 0.3816000E+00  0.5226846E-02
 0.3827000E+00  0.5025888E-02
 0.3838000E+00  0.4825567E-02
 0.3849000E+00  0.4627287E-02
 0.3860000E+00  0.4432232E-02
 0.3871000E+00  0.4241385E-02
 0.3882000E+00  0.4055545E-02
 0.3893000E+00  0.3875349E-02
 0.3904000E+00  0.3701289E-02
 0.3915000E+00  0.3533727E-02
 0.3926000E+00  0.3372914E-02
 0.3937000E+00  0.3219009E-02
 0.3948000E+00  0.3072088E-02
 0.3959000E+00  0.2932166E-02
 0.3970000E+00  0.2799198E-02
 0.3981000E+00  0.2673092E-02
 0.3992000E+00  0.2553715E-02
 0.4003000E+00  0.2440899E-02
 0.4014000E+00  0.2334450E-02
 0.4025000E+00  0.2234155E-02
 0.4036000E+00  0.2139783E-02
 0.4047000E+00  0.2051095E-02
 0.4058000E+00  0.1967836E-02
 0.4069000E+00  0.1889744E-02
 0.4080000E+00  0.1816548E-02
 0.4091000E+00  0.1747967E-02
 0.4102000E+00  0.1683719E-02
 0.4113000E+00  0.1623518E-02
 0.4124000E+00  0.1567082E-02
 0.4135000E+00  0.1514132E-02
 0.4146000E+00  0.1464395E-02
 0.4157000E+00  0.1417604E-02
 0.4168000E+00  0.1373498E-02
 0.4179000E+00  0.1331827E-02
 0.4190000E+00  0.1292351E-02
 0.4201000E+00  0.1254848E-02
 0.4212000E+00  0.1219113E-02
 0.4223000E+00  0.1184966E-02
 0.4234000E+00  0.1152251E-02
 0.4245000E+00  0.1120836E-02
 0.4256000E+00  0.1090609E-02
 0.4267000E+00  0.1061483E-02
 0.4278000E+00  0.1033390E-02
 0.4289000E+00  0.1006284E-02
 0.4300000E+00  0.9801422E-03
 0.4311000E+00  0.9549627E-03
 0.4322000E+00  0.9307642E-03
 0.4333000E+00  0.9075826E-03
 0.4344000E+00  0.8854684E-03
 0.4355000E+00  0.8644859E-03
 0.4366000E+00  0.8447124E-03
 0.4377000E+00  0.8262398E-03
 0.4388000E+00  0.8091761E-03
 0.4399000E+00  0.7936461E-03
 0.4410000E+00  0.7797913E-03
 0.4421000E+00  0.7677699E-03
 0.4432000E+00  0.7577580E-03
 0.4443000E+00  0.7499541E-03
 0.4454000E+00  0.7445841E-03
 0.4465000E+00  0.7419099E-03
 0.4476000E+00  0.7422367E-03
 0.4487000E+00  0.7459210E-03
 0.4498000E+00  0.7533787E-03
 0.4509000E+00  0.7650921E-03
 0.4520000E+00  0.7816202E-03
 0.4531000E+00  0.8036087E-03
 0.4542000E+00  0.8318021E-03
 0.4553000E+00  0.8670547E-03
 0.4564000E+00  0.9103417E-03
 0.4575000E+00  0.9627684E-03
 0.4586000E+00  0.1025579E-02
 0.4597000E+00  0.1100166E-02
 0.4608000E+00  0.1188075E-02
 0.4619000E+00  0.1291015E-02
 0.4630000E+00  0.1410863E-02
 0.4641000E+00  0.1549673E-02
 0.4652000E+00  0.1709674E-02
 0.4663000E+00  0.1893277E-02
 0.4674000E+00  0.2103067E-02
 0.4685000E+00  0.2341795E-02
 0.4696000E+00  0.2612373E-02
 0.4707000E+00  0.2917850E-02
 0.4718000E+00  0.3261404E-02
 0.4729000E+00  0.3646313E-02
 0.4740000E+00  0.4075932E-02
 0.4751000E+00  0.4553656E-02
 0.4762000E+00  0.5082884E-02
 0.4773000E+00  0.5666967E-02
 0.4784000E+00  0.6309153E-02
 0.4795000E+00  0.7012525E-02
 0.4806000E+00  0.7779934E-02
 0.4817000E+00  0.8613927E-02
 0.4828000E+00  0.9516665E-02
 0.4839000E+00  0.1048983E-01
 0.4850000E+00  0.1153453E-01
 0.4861000E+00  0.1265120E-01
 0.4872000E+00  0.1383950E-01
 0.4883000E+00  0.1509822E-01
 0.4894000E+00  0.1642516E-01
 0.4905000E+00  0.1781704E-01
 0.4916000E+00  0.1926943E-01
 0.4927000E+00  0.2077664E-01
 0.4938000E+00  0.2233163E-01
 0.4949000E+00  0.2392600E-01
 0.4960000E+00  0.2554990E-01
 0.4971000E+00  0.2719203E-01
 0.4982000E+00  0.2883963E-01
 0.4993000E+00  0.3047850E-01
 0.5004000E+00  0.3209308E-01
 0.5015000E+00  0.3366651E-01
 0.5026000E+00  0.3518072E-01
 0.5037000E+00  0.3661662E-01
 0.5048000E+00  0.3795424E-01
 0.5059000E+00  0.3917298E-01
 0.5070000E+00  0.4025183E-01
 0.5081000E+00  0.4116958E-01
 0.5092000E+00  0.4190521E-01
 0.5103000E+00  0.4243811E-01
 0.5114000E+00  0.4274847E-01
 0.5125000E+00  0.4281759E-01
 0.5136000E+00  0.4262821E-01
 0.5147000E+00  0.4216488E-01
 0.5158000E+00  0.4141426E-01
 0.5169000E+00  0.4036545E-01
 0.5180000E+00  0.3901030E-01
 0.5191000E+00  0.3734366E-01
 0.5202000E+00  0.3536363E-01
 0.5213000E+00  0.3307174E-01
 0.5224000E+00  0.3047306E-01
 0.5235000E+00  0.2757631E-01
 0.5246000E+00  0.2439392E-01
 0.5257000E+00  0.2094194E-01
 0.5268000E+00  0.1724005E-01
 0.5279000E+00  0.1331134E-01
 0.5290000E+00  0.9182131E-02
 0.5301000E+00  0.4881710E-02
 0.5312000E+00  0.4419988E-03
 0.5323000E+00 -0.4102810E-02
 0.5334000E+00 -0.8716663E-02
 0.5345000E+00 -0.1336209E-01
 0.5356000E+00 -0.1800068E-01
 0.5367000E+00 -0.2259355E-01
 0.5378000E+00 -0.2710192E-01
 0.5389000E+00 -0.3148756E-01
 0.5400000E+00 -0.3571336E-01
 0.5411000E+00 -0.3974380E-01
 0.5422000E+00 -0.4354540E-01
 0.5433000E+00 -0.4708719E-01
 0.5444000E+00 -0.5034105E-01
 0.5455000E+00 -0.5328212E-01
 0.5466000E+00 -0.5588907E-01
 0.5477000E+00 -0.5814434E-01
 0.5488000E+00 -0.6003435E-01
 0.5499000E+00 -0.6154958E-01
 0.5510000E+00 -0.6268468E-01
 0.5521000E+00 -0.6343839E-01
 0.5532000E+00 -0.6381354E-01
 0.5543000E+00 -0.6381684E-01
 0.5554000E+00 -0.6345877E-01
 0.5565000E+00 -0.6275330E-01
 0.5576000E+00 -0.6171763E-01
 0.5587000E+00 -0.6037185E-01
 0.5598000E+00 -0.5873863E-01
 0.5609000E+00 -0.5684282E-01
 0.5620000E+00 -0.5471103E-01
 0.5631000E+00 -0.5237121E-01
 0.5642000E+00 -0.4985231E-01
 0.5653000E+00 -0.4718379E-01
 0.5664000E+00 -0.4439529E-01
 0.5675000E+00 -0.4151622E-01
 0.5686000E+00 -0.3857539E-01
 0.5697000E+00 -0.3560069E-01
 0.5708000E+00 -0.3261876E-01
 0.5719000E+00 -0.2965473E-01
 0.5730000E+00 -0.2673198E-01
 0.5741000E+00 -0.2387196E-01
 0.5752000E+00 -0.2109399E-01
 0.5763000E+00 -0.1841519E-01
 0.5774000E+00 -0.1585034E-01
 0.5785000E+00 -0.1341188E-01
 0.5796000E+00 -0.1110986E-01
 0.5807000E+00 -0.8951979E-02
 0.5818000E+00 -0.6943640E-02
 0.5829000E+00 -0.5088038E-02
 0.5840000E+00 -0.3386267E-02
 0.5851000E+00 -0.1837453E-02
 0.5862000E+00 -0.4389049E-03
 0.5873000E+00  0.8137179E-03
 0.5884000E+00  0.1926229E-02
 0.5895000E+00  0.2905726E-02
 0.5906000E+00  0.3760391E-02
 0.5917000E+00  0.4499296E-02
 0.5928000E+00  0.5132195E-02
 0.5939000E+00  0.5669329E-02
 0.5950000E+00  0.6121238E-02
 0.5961000E+00  0.6498572E-02
 0.5972000E+00  0.6811923E-02
 0.5983000E+00  0.7071665E-02
 0.5994000E+00  0.7287798E-02
 0.6005000E+00  0.7469818E-02
 0.6016000E+00  0.7626594E-02
 0.6027000E+00  0.7766254E-02
 0.6038000E+00  0.7896109E-02
 0.6049000E+00  0.8022579E-02
 0.6060000E+00  0.8151147E-02
 0.6071000E+00  0.8286327E-02
 0.6082000E+00  0.8431662E-02
 0.6093000E+00  0.8589714E-02
 0.6104000E+00  0.8762083E-02
 0.6115000E+00  0.8949438E-02
 0.6126000E+00  0.9151554E-02
 0.6137000E+00  0.9367377E-02
 0.6148000E+00  0.9595104E-02
 0.6159000E+00  0.9832259E-02
 0.6170000E+00  0.1007580E-01
 0.6181000E+00  0.1032218E-01
 0.6192000E+00  0.1056751E-01
 0.6203000E+00  0.1080758E-01
 0.6214000E+00  0.1103802E-01
 0.6225000E+00  0.1125436E-01
 0.6236000E+00  0.1145218E-01
 0.6247000E+00  0.1162716E-01
 0.6258000E+00  0.1177522E-01
 0.6269000E+00  0.1189256E-01
 0.6280000E+00  0.1197574E-01
 0.6291000E+00  0.1202177E-01
 0.6302000E+00  0.1202811E-01
 0.6313000E+00  0.1199277E-01
 0.6324000E+00  0.1191431E-01
 0.6335000E+00  0.1179187E-01
 0.6346000E+00  0.1162520E-01
 0.6357000E+00  0.1141462E-01
 0.6368000E+00  0.1116105E-01
 0.6379000E+00  0.1086594E-01
 0.6390000E+00  0.1053125E-01
 0.6401000E+00  0.1015942E-01
 0.6412000E+00  0.9753349E-02
 0.6423000E+00  0.9316304E-02
 0.6434000E+00  0.8851884E-02
 0.6445000E+00  0.8363956E-02
 0.6456000E+00  0.7856577E-02
 0.6467000E+00  0.7333936E-02
 0.6478000E+00  0.6800292E-02
 0.6489000E+00  0.6259913E-02
 0.6500000E+00  0.5717027E-02
 0.6511000E+00  0.5175759E-02
 0.6522000E+00  0.4640085E-02
 0.6533000E+00  0.4113771E-02
 0.6544000E+00  0.3600332E-02
 0.6555000E+00  0.3102995E-02
 0.6566000E+00  0.2624674E-02
 0.6577000E+00  0.2167950E-02
 0.6588000E+00  0.1735059E-02
 0.6599000E+00  0.1327878E-02
 0.6610000E+00  0.9479208E-03
 0.6621000E+00  0.5963329E-03
 0.6632000E+00  0.2738973E-03
 0.6643000E+00 -0.1895165E-04
 0.6654000E+00 -0.2821086E-03
 0.6665000E+00 -0.5157720E-03
 0.6676000E+00 -0.7204189E-03
 0.6687000E+00 -0.8967810E-03
 0.6698000E+00 -0.1045820E-02
 0.6709000E+00 -0.1168702E-02
 0.6720000E+00 -0.1266769E-02
 0.6731000E+00 -0.1341502E-02
 0.6742000E+00 -0.1394490E-02
 0.6753000E+00 -0.1427394E-02
 0.6764000E+00 -0.1441920E-02
 0.6775000E+00 -0.1439791E-02
 0.6786000E+00 -0.1422729E-02
 0.6797000E+00 -0.1392439E-02
 0.6808000E+00 -0.1350584E-02
 0.6819000E+00 -0.1298765E-02
 0.6830000E+00 -0.1238503E-02
 0.6841000E+00 -0.1171221E-02
 0.6852000E+00 -0.1098230E-02
 0.6863000E+00 -0.1020728E-02
 0.6874000E+00 -0.9397953E-03
 0.6885000E+00 -0.8563924E-03
 0.6896000E+00 -0.7713598E-03
 0.6907000E+00 -0.6854153E-03
 0.6918000E+00 -0.5991524E-03
 0.6929000E+00 -0.5130412E-03
 0.6940000E+00 -0.4274325E-03
 0.6951000E+00 -0.3425646E-03
 0.6962000E+00 -0.2585704E-03
 0.6973000E+00 -0.1754851E-03
 0.6984000E+00 -0.9325164E-04
 0.6995000E+00 -0.1172640E-04
 0.7006000E+00  0.6931570E-04
 0.7017000E+00  0.1501749E-03
 0.7028000E+00  0.2312191E-03
 0.7039000E+00  0.3128751E-03
 0.7050000E+00  0.3956194E-03
 0.7061000E+00  0.4799677E-03
 0.7072000E+00  0.5664656E-03
 0.7083000E+00  0.6556782E-03
 0.7094000E+00  0.7481811E-03
 0.7105000E+00  0.8445506E-03
 0.7116000E+00  0.9453550E-03
 0.7127000E+00  0.1051145E-02
 0.7138000E+00  0.1162442E-02
 0.7149000E+00  0.1279725E-02
 0.7160000E+00  0.1403417E-02
 0.7171000E+00  0.1533869E-02
 0.7182000E+00  0.1671348E-02
 0.7193000E+00  0.1816016E-02
 0.7204000E+00  0.1967929E-02
 0.7215000E+00  0.2127014E-02
 0.7226000E+00  0.2293066E-02
 0.7237000E+00  0.2465733E-02
 0.7248000E+00  0.2644503E-02
 0.7259000E+00  0.2828697E-02
 0.7270000E+00  0.3017461E-02
 0.7281000E+00  0.3209763E-02
 0.7292000E+00  0.3404395E-02
 0.7303000E+00  0.3599978E-02
 0.7314000E+00  0.3794963E-02
 0.7325000E+00  0.3987638E-02
 0.7336000E+00  0.4176136E-02
 0.7347000E+00  0.4358449E-02
 0.7358000E+00  0.4532444E-02
 0.7369000E+00  0.4695887E-02
 0.7380000E+00  0.4846472E-02
 0.7391000E+00  0.4981857E-02
 0.7402000E+00  0.5099688E-02
 0.7413000E+00  0.5197636E-02
 0.7424000E+00  0.5273431E-02
 0.7435000E+00  0.5324887E-02
 0.7446000E+00  0.5349947E-02
 0.7457000E+00  0.5346719E-02
 0.7468000E+00  0.5313520E-02
 0.7479000E+00  0.5248909E-02
 0.7490000E+00  0.5151729E-02
 0.7501000E+00  0.5021134E-02
 0.7512000E+00  0.4856616E-02
 0.7523000E+00  0.4658028E-02
 0.7534000E+00  0.4425598E-02
 0.7545000E+00  0.4159947E-02
 0.7556000E+00  0.3862102E-02
 0.7567000E+00  0.3533499E-02
 0.7578000E+00  0.3175981E-02
 0.7589000E+00  0.2791789E-02
 0.7600000E+00  0.2383543E-02
 0.7611000E+00  0.1954213E-02
 0.7622000E+00  0.1507091E-02
 0.7633000E+00  0.1045756E-02
 0.7644000E+00  0.5740351E-03
 0.7655000E+00  0.9595832E-04
 0.7666000E+00 -0.3842896E-03
 0.7677000E+00 -0.8624233E-03
 0.7688000E+00 -0.1334115E-02
 0.7699000E+00 -0.1795057E-02
 0.7710000E+00 -0.2241021E-02
 0.7721000E+00 -0.2667921E-02
 0.7732000E+00 -0.3071866E-02
 0.7743000E+00 -0.3449222E-02
 0.7754000E+00 -0.3796656E-02
 0.7765000E+00 -0.4111184E-02
 0.7776000E+00 -0.4390218E-02
 0.7787000E+00 -0.4631600E-02
 0.7798000E+00 -0.4833640E-02
 0.7809000E+00 -0.4995135E-02
 0.7820000E+00 -0.5115392E-02
 0.7831000E+00 -0.5194229E-02
 0.7842000E+00 -0.5231975E-02
 0.7853000E+00 -0.5229453E-02
 0.7864000E+00 -0.5187970E-02
 0.7875000E+00 -0.5109290E-02
 0.7886000E+00 -0.4995605E-02
 0.7897000E+00 -0.4849502E-02
 0.7908000E+00 -0.4673921E-02
 0.7919000E+00 -0.4472096E-02
 0.7930000E+00 -0.4247502E-02
 0.7941000E+00 -0.4003792E-02
 0.7952000E+00 -0.3744740E-02
 0.7963000E+00 -0.3474180E-02
 0.7974000E+00 -0.3195955E-02
 0.7985000E+00 -0.2913857E-02
 0.7996000E+00 -0.2631579E-02
 0.8007000E+00 -0.2352650E-02
 0.8018000E+00 -0.2080389E-02
 0.8029000E+00 -0.1817854E-02
 0.8040000E+00 -0.1567806E-02
 0.8051000E+00 -0.1332684E-02
 0.8062000E+00 -0.1114581E-02
 0.8073000E+00 -0.9152339E-03
 0.8084000E+00 -0.7360064E-03
 0.8095000E+00 -0.5778847E-03
 0.8106000E+00 -0.4414730E-03
 0.8117000E+00 -0.3270018E-03
 0.8128000E+00 -0.2343450E-03
 0.8139000E+00 -0.1630461E-03
 0.8150000E+00 -0.1123487E-03
 0.8161000E+00 -0.8122821E-04
 0.8172000E+00 -0.6842289E-04
 0.8183000E+00 -0.7246382E-04
 0.8194000E+00 -0.9170704E-04
 0.8205000E+00 -0.1243690E-03
 0.8216000E+00 -0.1685665E-03
 0.8227000E+00 -0.2223584E-03
 0.8238000E+00 -0.2837864E-03
 0.8249000E+00 -0.3509106E-03
 0.8260000E+00 -0.4218383E-03
 0.8271000E+00 -0.4947472E-03
 0.8282000E+00 -0.5679041E-03
 0.8293000E+00 -0.6396842E-03
 0.8304000E+00 -0.7085897E-03
 0.8315000E+00 -0.7732690E-03
 0.8326000E+00 -0.8325318E-03
 0.8337000E+00 -0.8853576E-03
 0.8348000E+00 -0.9308973E-03
 0.8359000E+00 -0.9684673E-03
 0.8370000E+00 -0.9975419E-03
 0.8381000E+00 -0.1017746E-02
 0.8392000E+00 -0.1028851E-02
 0.8403000E+00 -0.1030770E-02
 0.8414000E+00 -0.1023555E-02
 0.8425000E+00 -0.1007384E-02
 0.8436000E+00 -0.9825472E-03
 0.8447000E+00 -0.9494248E-03
 0.8458000E+00 -0.9084708E-03
 0.8469000E+00 -0.8601986E-03
 0.8480000E+00 -0.8051724E-03
 0.8491000E+00 -0.7440010E-03
 0.8502000E+00 -0.6773295E-03
 0.8513000E+00 -0.6058278E-03
 0.8524000E+00 -0.5301745E-03
 0.8535000E+00 -0.4510408E-03
 0.8546000E+00 -0.3690776E-03
 0.8557000E+00 -0.2849089E-03
 0.8568000E+00 -0.1991288E-03
 0.8579000E+00 -0.1123004E-03
 0.8590000E+00 -0.2495188E-04
 0.8601000E+00  0.6243111E-04
 0.8612000E+00  0.1494147E-03
 0.8623000E+00  0.2356245E-03
 0.8634000E+00  0.3207487E-03
 0.8645000E+00  0.4045366E-03
 0.8656000E+00  0.4867923E-03
 0.8667000E+00  0.5673703E-03
 0.8678000E+00  0.6461719E-03
 0.8689000E+00  0.7231447E-03
 0.8700000E+00  0.7982819E-03
 0.8711000E+00  0.8716200E-03
 0.8722000E+00  0.9432323E-03
 0.8733000E+00  0.1013220E-02
 0.8744000E+00  0.1081698E-02
 0.8755000E+00  0.1148786E-02
 0.8766000E+00  0.1214601E-02
 0.8777000E+00  0.1279245E-02
 0.8788000E+00  0.1342803E-02
 0.8799000E+00  0.1405335E-02
 0.8810000E+00  0.1466865E-02
 0.8821000E+00  0.1527376E-02
 0.8832000E+00  0.1586796E-02
 0.8843000E+00  0.1644992E-02
 0.8854000E+00  0.1701767E-02
 0.8865000E+00  0.1756860E-02
 0.8876000E+00  0.1809947E-02
 0.8887000E+00  0.1860646E-02
 0.8898000E+00  0.1908517E-02
 0.8909000E+00  0.1953067E-02
 0.8920000E+00  0.1993754E-02
 0.8931000E+00  0.2029990E-02
 0.8942000E+00  0.2061159E-02
 0.8953000E+00  0.2086621E-02
 0.8964000E+00  0.2105733E-02
 0.8975000E+00  0.2117863E-02
 0.8986000E+00  0.2122401E-02
 0.8997000E+00  0.2118770E-02
 0.9008000E+00  0.2106443E-02
 0.9019000E+00  0.2084951E-02
 0.9030000E+00  0.2053900E-02
 0.9041000E+00  0.2012988E-02
 0.9052000E+00  0.1962009E-02
 0.9063000E+00  0.1900868E-02
 0.9074000E+00  0.1829583E-02
 0.9085000E+00  0.1748289E-02
 0.9096000E+00  0.1657243E-02
 0.9107000E+00  0.1556827E-02
 0.9118000E+00  0.1447553E-02
 0.9129000E+00  0.1330055E-02
 0.9140000E+00  0.1205088E-02
 0.9151000E+00  0.1073509E-02
 0.9162000E+00  0.9362742E-03
 0.9173000E+00  0.7944242E-03
 0.9184000E+00  0.6490760E-03
 0.9195000E+00  0.5014131E-03
 0.9206000E+00  0.3526697E-03
 0.9217000E+00  0.2041119E-03
 0.9228000E+00  0.5701517E-04
 0.9239000E+00 -0.8735466E-04
 0.9250000E+00 -0.2277576E-03
 0.9261000E+00 -0.3629910E-03
 0.9272000E+00 -0.4919006E-03
 0.9283000E+00 -0.6133935E-03
 0.9294000E+00 -0.7264554E-03
 0.9305000E+00 -0.8301702E-03
 0.9316000E+00 -0.9237357E-03
 0.9327000E+00 -0.1006476E-02
 0.9338000E+00 -0.1077845E-02
 0.9349000E+00 -0.1137428E-02
 0.9360000E+00 -0.1184945E-02
 0.9371000E+00 -0.1220249E-02
 0.9382000E+00 -0.1243334E-02
 0.9393000E+00 -0.1254333E-02
 0.9404000E+00 -0.1253518E-02
 0.9415000E+00 -0.1241291E-02
 0.9426000E+00 -0.1218174E-02
 0.9437000E+00 -0.1184797E-02
 0.9448000E+00 -0.1141884E-02
 0.9459000E+00 -0.1090247E-02
 0.9470000E+00 -0.1030774E-02
 0.9481000E+00 -0.9644115E-03
 0.9492000E+00 -0.8921548E-03
 0.9503000E+00 -0.8150249E-03
 0.9514000E+00 -0.7340532E-03
 0.9525000E+00 -0.6502652E-03
 0.9536000E+00 -0.5646661E-03
 0.9547000E+00 -0.4782286E-03
 0.9558000E+00 -0.3918804E-03
 0.9569000E+00 -0.3064929E-03
 0.9580000E+00 -0.2228704E-03
 0.9591000E+00 -0.1417416E-03
 0.9602000E+00 -0.6375288E-04
 0.9613000E+00  0.1053753E-04
 0.9624000E+00  0.8066360E-04
 0.9635000E+00  0.1462541E-03
 0.9646000E+00  0.2070332E-03
 0.9657000E+00  0.2628176E-03
 0.9668000E+00  0.3135125E-03
 0.9679000E+00  0.3591050E-03
 0.9690000E+00  0.3996566E-03
 0.9701000E+00  0.4352968E-03
 0.9712000E+00  0.4662150E-03
 0.9723000E+00  0.4926524E-03
 0.9734000E+00  0.5148918E-03
 0.9745000E+00  0.5332484E-03
 0.9756000E+00  0.5480586E-03
 0.9767000E+00  0.5596704E-03
 0.9778000E+00  0.5684343E-03
 0.9789000E+00  0.5746952E-03