-0.1200000E+00  0.0000000E+00
-0.1189000E+00  0.0000000E+00
-0.1178000E+00  0.0000000E+00
-0.1167000E+00  0.0000000E+00
-0.1156000E+00  0.0000000E+00
-0.1145000E+00  0.0000000E+00
-0.1134000E+00  0.0000000E+00
-0.1123000E+00  0.0000000E+00
-0.1112000E+00  0.0000000E+00
-0.1101000E+00  0.0000000E+00
-0.1090000E+00  0.0000000E+00
-0.1079000E+00  0.0000000E+00
-0.1068000E+00  0.0000000E+00
-0.1057000E+00  0.0000000E+00
-0.1046000E+00 -0.0000000E+00
-0.1035000E+00 -0.1593376E-37
-0.1024000E+00 -0.1330018E-36
-0.1013000E+00 -0.7037402E-36
-0.1002000E+00 -0.3011516E-35
-0.9910000E-01 -0.1065063E-34
-0.9800000E-01 -0.3111154E-34
-0.9690000E-01 -0.7387778E-34
-0.9580000E-01 -0.1364380E-33
-0.9470000E-01 -0.1709228E-33
-0.9360000E-01 -0.5091061E-34
-0.9250000E-01  0.3845156E-33
-0.9140000E-01  0.1119621E-32
-0.9030000E-01  0.1707241E-32
-0.8920000E-01  0.1574083E-32
-0.8810000E-01  0.1534420E-32
-0.8700000E-01  0.5157821E-32
-0.8590000E-01  0.1424842E-31
-0.8480000E-01  0.1200117E-31
-0.8370000E-01 -0.5515358E-31
-0.8260000E-01 -0.2436024E-30
-0.8150000E-01 -0.4475222E-30
-0.8040000E-01 -0.1333250E-30
-0.7930000E-01  0.1644646E-29
-0.7820000E-01  0.5162257E-29
-0.7710000E-01  0.7431641E-29
-0.7600000E-01 -0.1588115E-30
-0.7490000E-01 -0.2835983E-28
-0.7380000E-01 -0.7357271E-28
-0.7270000E-01 -0.9016084E-28
-0.7160000E-01  0.2149363E-28
-0.7050000E-01  0.3552365E-27
-0.6940000E-01  0.8223451E-27
-0.6830000E-01  0.9212985E-27
-0.6720000E-01 -0.2709791E-27
-0.6610000E-01 -0.3452136E-26
-0.6500000E-01 -0.7591656E-26
-0.6390000E-01 -0.8318205E-26
-0.6280000E-01  0.1619719E-26
-0.6170000E-01  0.2699544E-25
-0.6060000E-01  0.5934207E-25
-0.5950000E-01  0.6689732E-25
-0.5840000E-01 -0.2351689E-27
-0.5730000E-01 -0.1735257E-24
-0.5620000E-01 -0.3986588E-24
-0.5510000E-01 -0.4775207E-24
-0.5400000E-01 -0.1036383E-24
-0.5290000E-01  0.9242172E-24
-0.5180000E-01  0.2325054E-23
-0.5070000E-01  0.3019139E-23
-0.4960000E-01  0.1308299E-23
-0.4850000E-01 -0.4031659E-23
-0.4740000E-01 -0.1183820E-22
-0.4630000E-01 -0.1691966E-22
-0.4520000E-01 -0.1074243E-22
-0.4410000E-01  0.1361958E-22
-0.4300000E-01  0.5261891E-22
-0.4190000E-01  0.8417088E-22
-0.4080000E-01  0.6931458E-22
-0.3970000E-01 -0.2783534E-22
-0.3860000E-01 -0.2024270E-21
-0.3750000E-01 -0.3717524E-21
-0.3640000E-01 -0.3743372E-21
-0.3530000E-01 -0.4125284E-22
-0.3420000E-01  0.6572892E-21
-0.3310000E-01  0.1453149E-20
-0.3200000E-01  0.1740924E-20
-0.3090000E-01  0.8007365E-21
-0.2980000E-01 -0.1680466E-20
-0.2870000E-01 -0.4982055E-20
-0.2760000E-01 -0.7065169E-20
-0.2650000E-01 -0.5159138E-20
-0.2540000E-01  0.2555288E-20
-0.2430000E-01  0.1467490E-19
-0.2320000E-01  0.2511257E-19
-0.2210000E-01  0.2426618E-19
-0.2100000E-01  0.3899698E-20
-0.1990000E-01 -0.3534488E-19
-0.1880000E-01 -0.7777097E-19
-0.1770000E-01 -0.9357964E-19
-0.1660000E-01 -0.5132829E-19
-0.1550000E-01  0.5952387E-19
-0.1440000E-01  0.2060786E-18
-0.1330000E-01  0.3063939E-18
-0.1220000E-01  0.2563174E-18
-0.1110000E-01 -0.9669056E-20
-0.1000000E-01 -0.4460267E-18
-0.8900000E-02 -0.8572126E-18
-0.7800000E-02 -0.9410649E-18
-0.6700000E-02 -0.4342216E-18
-0.5600000E-02  0.6813842E-18
-0.4500000E-02  0.2019091E-17
-0.3400000E-02  0.2813071E-17
-0.2300000E-02  0.2217199E-17
-0.1200000E-02 -0.1728903E-18
-0.1000000E-03 -0.3804411E-17
 0.1000000E-02 -0.7008149E-17
 0.2100000E-02 -0.7491043E-17
 0.3200000E-02 -0.3496175E-17
 0.4300000E-02  0.4787622E-17
 0.5400000E-02  0.1435794E-16
 0.6500000E-02  0.1990134E-16
 0.7600000E-02  0.1600940E-16
 0.8700000E-02  0.5135267E-18
 0.9800000E-02 -0.2264689E-16
 0.1090000E-01 -0.4303786E-16
 0.1200000E-01 -0.4718201E-16
 0.1310000E-01 -0.2540051E-16
 0.1420000E-01  0.2070170E-16
 0.1530000E-01  0.7441422E-16
 0.1640000E-01  0.1076063E-15
 0.1750000E-01  0.9274083E-16
 0.1860000E-01  0.1931239E-16
 0.1970000E-01 -0.9339349E-16
 0.2080000E-01 -0.1962078E-15
 0.2190000E-01 -0.2274395E-15
 0.2300000E-01 -0.1438510E-15
 0.2410000E-01  0.4803411E-16
 0.2520000E-01  0.2784442E-15
 0.2630000E-01  0.4326435E-15
 0.2740000E-01  0.4010551E-15
 0.2850000E-01  0.1427473E-15
 0.2960000E-01 -0.2699612E-15
 0.3070000E-01 -0.6573325E-15
 0.3180000E-01 -0.8007099E-15
 0.3290000E-01 -0.5534893E-15
 0.3400000E-01  0.5618606E-16
 0.3510000E-01  0.7920033E-15
 0.3620000E-01  0.1284270E-14
 0.3730000E-01  0.1200878E-14
 0.3840000E-01  0.4438189E-15
 0.3950000E-01 -0.7337330E-15
 0.4060000E-01 -0.1778197E-14
 0.4170000E-01 -0.2070566E-14
 0.4280000E-01 -0.1260844E-14
 0.4390000E-01  0.4625673E-15
 0.4500000E-01  0.2339708E-14
 0.4610000E-01  0.3323696E-14
 0.4720000E-01  0.2604755E-14
 0.4830000E-01  0.1381437E-15
 0.4940000E-01 -0.3123396E-14
 0.5050000E-01 -0.5502442E-14
 0.5160000E-01 -0.5353544E-14
 0.5270000E-01 -0.2004496E-14
 0.5380000E-01  0.3596626E-14
 0.5490000E-01  0.8964576E-14
 0.5600000E-01  0.1103065E-13
 0.5710000E-01  0.7663459E-14
 0.5820000E-01 -0.9292934E-15
 0.5930000E-01 -0.1170160E-13
 0.6040000E-01 -0.1965190E-13
 0.6150000E-01 -0.1993871E-13
 0.6260000E-01 -0.1039723E-13
 0.6370000E-01  0.6758688E-14
 0.6480000E-01  0.2508584E-13
 0.6590000E-01  0.3619529E-13
 0.6700000E-01  0.3341659E-13
 0.6810000E-01  0.1526281E-13
 0.6920000E-01 -0.1303407E-13
 0.7030000E-01 -0.4093863E-13
 0.7140000E-01 -0.5667370E-13
 0.7250000E-01 -0.5228356E-13
 0.7360000E-01 -0.2739351E-13
 0.7470000E-01  0.1019549E-13
 0.7580000E-01  0.4750636E-13
 0.7690000E-01  0.7164764E-13
 0.7800000E-01  0.7483228E-13
 0.7910000E-01  0.5675402E-13
 0.8020000E-01  0.2335409E-13
 0.8130000E-01 -0.1694119E-13
 0.8240000E-01 -0.5693541E-13
 0.8350000E-01 -0.9180101E-13
 0.8460000E-01 -0.1168970E-12
 0.8570000E-01 -0.1241615E-12
 0.8680000E-01 -0.1008472E-12
 0.8790000E-01 -0.3395736E-13
 0.8900000E-01  0.7939041E-13
 0.9010000E-01  0.2200695E-12
 0.9120000E-01  0.3414719E-12
 0.9230000E-01  0.3781605E-12
 0.9340000E-01  0.2710096E-12
 0.9450000E-01  0.2129422E-14
 0.9560000E-01 -0.3758855E-12
 0.9670000E-01 -0.7351076E-12
 0.9780000E-01 -0.9045480E-12
 0.9890000E-01 -0.7371558E-12
 0.1000000E+00 -0.1900659E-12
 0.1011000E+00  0.6176371E-12
 0.1022000E+00  0.1405925E-11
 0.1033000E+00  0.1812362E-11
 0.1044000E+00  0.1534859E-11
 0.1055000E+00  0.4903918E-12
 0.1066000E+00 -0.1080195E-11
 0.1077000E+00 -0.2625602E-11
 0.1088000E+00 -0.3442959E-11
 0.1099000E+00 -0.2950110E-11
 0.1110000E+00 -0.9795901E-12
 0.1121000E+00  0.2030589E-11
 0.1132000E+00  0.5059888E-11
 0.1143000E+00  0.6786416E-11
 0.1154000E+00  0.6070435E-11
 0.1165000E+00  0.2485357E-11
 0.1176000E+00 -0.3313865E-11
 0.1187000E+00 -0.9574843E-11
 0.1198000E+00 -0.1387215E-10
 0.1209000E+00 -0.1390178E-10
 0.1220000E+00 -0.8414447E-11
 0.1231000E+00  0.2044340E-11
 0.1242000E+00  0.1491047E-10
 0.1253000E+00  0.2608263E-10
 0.1264000E+00  0.3106939E-10
 0.1275000E+00  0.2651005E-10
 0.1286000E+00  0.1159116E-10
 0.1297000E+00 -0.1116085E-10
 0.1308000E+00 -0.3609151E-10
 0.1319000E+00 -0.5571985E-10
 0.1330000E+00 -0.6284834E-10
 0.1341000E+00 -0.5288336E-10
 0.1352000E+00 -0.2562199E-10
 0.1363000E+00  0.1414240E-10
 0.1374000E+00  0.5750761E-10
 0.1385000E+00  0.9367417E-10
 0.1396000E+00  0.1128448E-09
 0.1407000E+00  0.1088951E-09
 0.1418000E+00  0.8093561E-10
 0.1429000E+00  0.3325184E-10
 0.1440000E+00 -0.2628594E-10
 0.1451000E+00 -0.8864607E-10
 0.1462000E+00 -0.1458216E-09
 0.1473000E+00 -0.1917790E-09
 0.1484000E+00 -0.2217174E-09
 0.1495000E+00 -0.2300511E-09
 0.1506000E+00 -0.2083813E-09
 0.1517000E+00 -0.1451465E-09
 0.1528000E+00 -0.2834397E-10
 0.1539000E+00  0.1483870E-09
 0.1550000E+00  0.3776368E-09
 0.1561000E+00  0.6309256E-09
 0.1572000E+00  0.8559047E-09
 0.1583000E+00  0.9812297E-09
 0.1594000E+00  0.9303283E-09
 0.1605000E+00  0.6423122E-09
 0.1616000E+00  0.9521013E-10
 0.1627000E+00 -0.6753130E-09
 0.1638000E+00 -0.1568575E-08
 0.1649000E+00 -0.2427263E-08
 0.1660000E+00 -0.3061761E-08
 0.1671000E+00 -0.3285762E-08
 0.1682000E+00 -0.2954834E-08
 0.1693000E+00 -0.1998533E-08
 0.1704000E+00 -0.4387605E-09
 0.1715000E+00  0.1608189E-08
 0.1726000E+00  0.3942938E-08
 0.1737000E+00  0.6300702E-08
 0.1748000E+00  0.8367668E-08
 0.1759000E+00  0.9791934E-08
 0.1770000E+00  0.1019131E-07
 0.1781000E+00  0.9167118E-08
 0.1792000E+00  0.6337069E-08
 0.1803000E+00  0.1398203E-08
 0.1814000E+00 -0.5777188E-08
 0.1825000E+00 -0.1502288E-07
 0.1836000E+00 -0.2576055E-07
 0.1847000E+00 -0.3691347E-07
 0.1858000E+00 -0.4688172E-07
 0.1869000E+00 -0.5359542E-07
 0.1880000E+00 -0.5464067E-07
 0.1891000E+00 -0.4742722E-07
 0.1902000E+00 -0.2934789E-07
 0.1913000E+00  0.2128017E-08
 0.1924000E+00  0.4947493E-07
 0.1935000E+00  0.1152680E-06
 0.1946000E+00  0.2024669E-06
 0.1957000E+00  0.3147873E-06
 0.1968000E+00  0.4571034E-06
 0.1979000E+00  0.6358296E-06
 0.1990000E+00  0.8592539E-06
 0.2001000E+00  0.1137833E-05
 0.2012000E+00  0.1484496E-05
 0.2023000E+00  0.1915025E-05
 0.2034000E+00  0.2448599E-05
 0.2045000E+00  0.3108522E-05
 0.2056000E+00  0.3923177E-05
 0.2067000E+00  0.4927144E-05
 0.2078000E+00  0.6162432E-05
 0.2089000E+00  0.7679754E-05
 0.2100000E+00  0.9539830E-05
 0.2111000E+00  0.1181472E-04
 0.2122000E+00  0.1458931E-04
 0.2133000E+00  0.1796302E-04
 0.2144000E+00  0.2205192E-04
 0.2155000E+00  0.2699138E-04
 0.2166000E+00  0.3293918E-04
 0.2177000E+00  0.4007917E-04
 0.2188000E+00  0.4862521E-04
 0.2199000E+00  0.5882547E-04
 0.2210000E+00  0.7096666E-04
 0.2221000E+00  0.8537844E-04
 0.2232000E+00  0.1024377E-03
 0.2243000E+00  0.1225732E-03
 0.2254000E+00  0.1462702E-03
 0.2265000E+00  0.1740754E-03
 0.2276000E+00  0.2066023E-03
 0.2287000E+00  0.2445370E-03
 0.2298000E+00  0.2886434E-03
 0.2309000E+00  0.3397684E-03
 0.2320000E+00  0.3988470E-03
 0.2331000E+00  0.4669058E-03
 0.2342000E+00  0.5450663E-03
 0.2353000E+00  0.6345463E-03
 0.2364000E+00  0.7366614E-03
 0.2375000E+00  0.8528237E-03
 0.2386000E+00  0.9845401E-03
 0.2397000E+00  0.1133409E-02
 0.2408000E+00  0.1301112E-02
 0.2419000E+00  0.1489410E-02
 0.2430000E+00  0.1700124E-02
 0.2441000E+00  0.1935128E-02
 0.2452000E+00  0.2196322E-02
 0.2463000E+00  0.2485616E-02
 0.2474000E+00  0.2804900E-02
 0.2485000E+00  0.3156016E-02
 0.2496000E+00  0.3540725E-02
 0.2507000E+00  0.3960670E-02
 0.2518000E+00  0.4417338E-02
 0.2529000E+00  0.4912016E-02
 0.2540000E+00  0.5445742E-02
 0.2551000E+00  0.6019259E-02
 0.2562000E+00  0.6632966E-02
 0.2573000E+00  0.7286854E-02
 0.2584000E+00  0.7980466E-02
 0.2595000E+00  0.8712837E-02
 0.2606000E+00  0.9482443E-02
 0.2617000E+00  0.1028716E-01
 0.2628000E+00  0.1112422E-01
 0.2639000E+00  0.1199015E-01
 0.2650000E+00  0.1288078E-01
 0.2661000E+00  0.1379120E-01
 0.2672000E+00  0.1471573E-01
 0.2683000E+00  0.1564794E-01
 0.2694000E+00  0.1658064E-01
 0.2705000E+00  0.1750592E-01
 0.2716000E+00  0.1841516E-01
 0.2727000E+00  0.1929911E-01
 0.2738000E+00  0.2014794E-01
 0.2749000E+00  0.2095134E-01
 0.2760000E+00  0.2169859E-01
 0.2771000E+00  0.2237869E-01
 0.2782000E+00  0.2298047E-01
 0.2793000E+00  0.2349275E-01
 0.2804000E+00  0.2390444E-01
 0.2815000E+00  0.2420478E-01
 0.2826000E+00  0.2438342E-01
 0.2837000E+00  0.2443064E-01
 0.2848000E+00  0.2433753E-01
 0.2859000E+00  0.2409615E-01
 0.2870000E+00  0.2369971E-01
 0.2881000E+00  0.2314270E-01
 0.2892000E+00  0.2242108E-01
 0.2903000E+00  0.2153239E-01
 0.2914000E+00  0.2047587E-01
 0.2925000E+00  0.1925255E-01
 0.2936000E+00  0.1786533E-01
 0.2947000E+00  0.1631902E-01
 0.2958000E+00  0.1462037E-01
 0.2969000E+00  0.1277806E-01
 0.2980000E+00  0.1080264E-01
 0.2991000E+00  0.8706491E-02
 0.3002000E+00  0.6503681E-02
 0.3013000E+00  0.4209857E-02
 0.3024000E+00  0.1842068E-02
 0.3035000E+00 -0.5814285E-03
 0.3046000E+00 -0.3041376E-02
 0.3057000E+00 -0.5517752E-02
 0.3068000E+00 -0.7990022E-02
 0.3079000E+00 -0.1043740E-01
 0.3090000E+00 -0.1283910E-01
 0.3101000E+00 -0.1517465E-01
 0.3112000E+00 -0.1742412E-01
 0.3123000E+00 -0.1956843E-01
 0.3134000E+00 -0.2158958E-01
 0.3145000E+00 -0.2347089E-01
 0.3156000E+00 -0.2519725E-01
 0.3167000E+00 -0.2675528E-01
 0.3178000E+00 -0.2813351E-01
 0.3189000E+00 -0.2932251E-01
 0.3200000E+00 -0.3031497E-01
 0.3211000E+00 -0.3110584E-01
 0.3222000E+00 -0.3169227E-01
 0.3233000E+00 -0.3207368E-01
 0.3244000E+00 -0.3225169E-01
 0.3255000E+00 -0.3223007E-01
 0.3266000E+00 -0.3201460E-01
 0.3277000E+00 -0.3161297E-01
 0.3288000E+00 -0.3103465E-01
 0.3299000E+00 -0.3029063E-01
 0.3310000E+00 -0.2939329E-01
 0.3321000E+00 -0.2835617E-01
 0.3332000E+00 -0.2719376E-01
 0.3343000E+00 -0.2592125E-01
 0.3354000E+00 -0.2455432E-01
 0.3365000E+00 -0.2310891E-01
 0.3376000E+00 -0.2160100E-01
 0.3387000E+00 -0.2004640E-01
 0.3398000E+00 -0.1846054E-01
 0.3409000E+00 -0.1685833E-01
 0.3420000E+00 -0.1525394E-01
 0.3431000E+00 -0.1366069E-01
 0.3442000E+00 -0.1209097E-01
 0.3453000E+00 -0.1055608E-01
 0.3464000E+00 -0.9066198E-02
 0.3475000E+00 -0.7630324E-02
 0.3486000E+00 -0.6256243E-02
 0.3497000E+00 -0.4950511E-02
 0.3508000E+00 -0.3718470E-02
 0.3519000E+00 -0.2564269E-02
 0.3530000E+00 -0.1490912E-02
 0.3541000E+00 -0.5003139E-03
 0.3552000E+00  0.4066262E-03
 0.3563000E+00  0.1229945E-02
 0.3574000E+00  0.1970530E-02
 0.3585000E+00  0.2630023E-02
 0.3596000E+00  0.3210734E-02
 0.3607000E+00  0.3715547E-02
 0.3618000E+00  0.4147829E-02
 0.3629000E+00  0.4511347E-02
 0.3640000E+00  0.4810181E-02
 0.3651000E+00  0.5048643E-02
 0.3662000E+00  0.5231200E-02
 0.3673000E+00  0.5362403E-02
 0.3684000E+00  0.5446817E-02
 0.3695000E+00  0.5488967E-02
 0.3706000E+00  0.5493290E-02
 0.3717000E+00  0.5464097E-02
 0.3728000E+00  0.5405541E-02
 0.3739000E+00  0.5321583E-02
 0.3750000E+00  0.5215980E-02
 0.3761000E+00  0.5092257E-02
 0.3772000E+00  0.4953702E-02
 0.3783000E+00  0.4803352E-02
 0.3794000E+00  0.4643986E-02
 0.3805000E+00  0.4478129E-02
 0.3816000E+00  0.4308054E-02
 0.3827000E+00  0.4135782E-02
 0.3838000E+00  0.3963100E-02
 0.3849000E+00  0.3791561E-02
 0.3860000E+00  0.3622502E-02
 0.3871000E+00  0.3457049E-02
 0.3882000E+00  0.3296132E-02
 0.3893000E+00  0.3140491E-02
 0.3904000E+00  0.2990692E-02
 0.3915000E+00  0.2847136E-02
 0.3926000E+00  0.2710080E-02
 0.3937000E+00  0.2579653E-02
 0.3948000E+00  0.2455872E-02
 0.3959000E+00  0.2338663E-02
 0.3970000E+00  0.2227874E-02
 0.3981000E+00  0.2123287E-02
 0.3992000E+00  0.2024634E-02
 0.4003000E+00  0.1931606E-02
 0.4014000E+00  0.1843867E-02
 0.4025000E+00  0.1761060E-02
 0.4036000E+00  0.1682821E-02
 0.4047000E+00  0.1608789E-02
 0.4058000E+00  0.1538619E-02
 0.4069000E+00  0.1471984E-02
 0.4080000E+00  0.1408590E-02
 0.4091000E+00  0.1348175E-02
 0.4102000E+00  0.1290514E-02
 0.4113000E+00  0.1235417E-02
 0.4124000E+00  0.1182724E-02
 0.4135000E+00  0.1132311E-02
 0.4146000E+00  0.1084078E-02
 0.4157000E+00  0.1037951E-02
 0.4168000E+00  0.9938797E-03
 0.4179000E+00  0.9518287E-03
 0.4190000E+00  0.9117745E-03
 0.4201000E+00  0.8736999E-03
 0.4212000E+00  0.8375887E-03
 0.4223000E+00  0.8034211E-03
 0.4234000E+00  0.7711693E-03
 0.4245000E+00  0.7407934E-03
 0.4256000E+00  0.7122380E-03
 0.4267000E+00  0.6854297E-03
 0.4278000E+00  0.6602771E-03
 0.4289000E+00  0.6366713E-03
 0.4300000E+00  0.6144872E-03
 0.4311000E+00  0.5935860E-03
 0.4322000E+00  0.5738148E-03
 0.4333000E+00  0.5550083E-03
 0.4344000E+00  0.5369878E-03
 0.4355000E+00  0.5195647E-03
 0.4366000E+00  0.5025422E-03
 0.4377000E+00  0.4857204E-03
 0.4388000E+00  0.4688987E-03
 0.4399000E+00  0.4518766E-03
 0.4410000E+00  0.4344530E-03
 0.4421000E+00  0.4164215E-03
 0.4432000E+00  0.3975655E-03
 0.4443000E+00  0.3776527E-03
 0.4454000E+00  0.3564288E-03
 0.4465000E+00  0.3336109E-03
 0.4476000E+00  0.3088784E-03
 0.4487000E+00  0.2818631E-03
 0.4498000E+00  0.2521380E-03
 0.4509000E+00  0.2192041E-03
 0.4520000E+00  0.1824784E-03
 0.4531000E+00  0.1412815E-03
 0.4542000E+00  0.9482525E-04
 0.4553000E+00  0.4220037E-04
 0.4564000E+00 -0.1763572E-04
 0.4575000E+00 -0.8587039E-04
 0.4586000E+00 -0.1638462E-03
 0.4597000E+00 -0.2530695E-03
 0.4608000E+00 -0.3552178E-03
 0.4619000E+00 -0.4721443E-03
 0.4630000E+00 -0.6058822E-03
 0.4641000E+00 -0.7586457E-03
 0.4652000E+00 -0.9328281E-03
 0.4663000E+00 -0.1130998E-02
 0.4674000E+00 -0.1355889E-02
 0.4685000E+00 -0.1610392E-02
 0.4696000E+00 -0.1897536E-02
 0.4707000E+00 -0.2220473E-02
 0.4718000E+00 -0.2582453E-02
 0.4729000E+00 -0.2986801E-02
 0.4740000E+00 -0.3436882E-02
 0.4751000E+00 -0.3936064E-02
 0.4762000E+00 -0.4487683E-02
 0.4773000E+00 -0.5094985E-02
 0.4784000E+00 -0.5761081E-02
 0.4795000E+00 -0.6488882E-02
 0.4806000E+00 -0.7281030E-02
 0.4817000E+00 -0.8139821E-02
 0.4828000E+00 -0.9067125E-02
 0.4839000E+00 -0.1006430E-01
 0.4850000E+00 -0.1113209E-01
 0.4861000E+00 -0.1227056E-01
 0.4872000E+00 -0.1347897E-01
 0.4883000E+00 -0.1475570E-01
 0.4894000E+00 -0.1609814E-01
 0.4905000E+00 -0.1750262E-01
 0.4916000E+00 -0.1896430E-01
 0.4927000E+00 -0.2047710E-01
 0.4938000E+00 -0.2203362E-01
 0.4949000E+00 -0.2362513E-01
 0.4960000E+00 -0.2524149E-01
 0.4971000E+00 -0.2687114E-01
 0.4982000E+00 -0.2850115E-01
 0.4993000E+00 -0.3011718E-01
 0.5004000E+00 -0.3170362E-01
 0.5015000E+00 -0.3324363E-01
 0.5026000E+00 -0.3471929E-01
 0.5037000E+00 -0.3611176E-01
 0.5048000E+00 -0.3740143E-01
 0.5059000E+00 -0.3856818E-01
 0.5070000E+00 -0.3959159E-01
 0.5081000E+00 -0.4045121E-01
 0.5092000E+00 -0.4112686E-01
 0.5103000E+00 -0.4159895E-01
 0.5114000E+00 -0.4184882E-01
 0.5125000E+00 -0.4185900E-01
 0.5136000E+00 -0.4161365E-01
 0.5147000E+00 -0.4109881E-01
 0.5158000E+00 -0.4030276E-01
 0.5169000E+00 -0.3921632E-01
 0.5180000E+00 -0.3783309E-01
 0.5191000E+00 -0.3614974E-01
 0.5202000E+00 -0.3416617E-01
 0.5213000E+00 -0.3188572E-01
 0.5224000E+00 -0.2931522E-01
 0.5235000E+00 -0.2646509E-01
 0.5246000E+00 -0.2334935E-01
 0.5257000E+00 -0.1998552E-01
 0.5268000E+00 -0.1639454E-01
 0.5279000E+00 -0.1260054E-01
 0.5290000E+00 -0.8630667E-02
 0.5301000E+00 -0.4514758E-02
 0.5312000E+00 -0.2849949E-03
 0.5323000E+00  0.4024478E-02
 0.5334000E+00  0.8377976E-02
 0.5345000E+00  0.1273874E-01
 0.5356000E+00  0.1706942E-01
 0.5367000E+00  0.2133255E-01
 0.5378000E+00  0.2549110E-01
 0.5389000E+00  0.2950891E-01
 0.5400000E+00  0.3335123E-01
 0.5411000E+00  0.3698515E-01
 0.5422000E+00  0.4038005E-01
 0.5433000E+00  0.4350801E-01
 0.5444000E+00  0.4634413E-01
 0.5455000E+00  0.4886690E-01
 0.5466000E+00  0.5105836E-01
 0.5477000E+00  0.5290436E-01
 0.5488000E+00  0.5439466E-01
 0.5499000E+00  0.5552300E-01
 0.5510000E+00  0.5628712E-01
 0.5521000E+00  0.5668866E-01
 0.5532000E+00  0.5673305E-01
 0.5543000E+00  0.5642940E-01
 0.5554000E+00  0.5579020E-01
 0.5565000E+00  0.5483112E-01
 0.5576000E+00  0.5357065E-01
 0.5587000E+00  0.5202983E-01
 0.5598000E+00  0.5023183E-01
 0.5609000E+00  0.4820160E-01
 0.5620000E+00  0.4596550E-01
 0.5631000E+00  0.4355087E-01
 0.5642000E+00  0.4098567E-01
 0.5653000E+00  0.3829812E-01
 0.5664000E+00  0.3551625E-01
 0.5675000E+00  0.3266768E-01
 0.5686000E+00  0.2977923E-01
 0.5697000E+00  0.2687663E-01
 0.5708000E+00  0.2398433E-01
 0.5719000E+00  0.2112521E-01
 0.5730000E+00  0.1832046E-01
 0.5741000E+00  0.1558937E-01
 0.5752000E+00  0.1294929E-01
 0.5763000E+00  0.1041548E-01
 0.5774000E+00  0.8001151E-02
 0.5785000E+00  0.5717370E-02
 0.5796000E+00  0.3573147E-02
 0.5807000E+00  0.1575463E-02
 0.5818000E+00 -0.2706524E-03
 0.5829000E+00 -0.1962032E-02
 0.5840000E+00 -0.3497257E-02
 0.5851000E+00 -0.4876536E-02
 0.5862000E+00 -0.6101564E-02
 0.5873000E+00 -0.7175372E-02
 0.5884000E+00 -0.8102184E-02
 0.5895000E+00 -0.8887253E-02
 0.5906000E+00 -0.9536710E-02
 0.5917000E+00 -0.1005742E-01
 0.5928000E+00 -0.1045685E-01
 0.5939000E+00 -0.1074288E-01
 0.5950000E+00 -0.1092375E-01
 0.5961000E+00 -0.1100788E-01
 0.5972000E+00 -0.1100375E-01
 0.5983000E+00 -0.1091987E-01
 0.5994000E+00 -0.1076460E-01
 0.6005000E+00 -0.1054611E-01
 0.6016000E+00 -0.1027235E-01
 0.6027000E+00 -0.9950913E-02
 0.6038000E+00 -0.9589060E-02
 0.6049000E+00 -0.9193648E-02
 0.6060000E+00 -0.8771112E-02
 0.6071000E+00 -0.8327451E-02
 0.6082000E+00 -0.7868215E-02
 0.6093000E+00 -0.7398508E-02
 0.6104000E+00 -0.6922979E-02
 0.6115000E+00 -0.6445843E-02
 0.6126000E+00 -0.5970885E-02
 0.6137000E+00 -0.5501476E-02
 0.6148000E+00 -0.5040598E-02
 0.6159000E+00 -0.4590861E-02
 0.6170000E+00 -0.4154531E-02
 0.6181000E+00 -0.3733551E-02
 0.6192000E+00 -0.3329572E-02
 0.6203000E+00 -0.2943977E-02
 0.6214000E+00 -0.2577903E-02
 0.6225000E+00 -0.2232260E-02
 0.6236000E+00 -0.1907750E-02
 0.6247000E+00 -0.1604883E-02
 0.6258000E+00 -0.1323991E-02
 0.6269000E+00 -0.1065244E-02
 0.6280000E+00 -0.8286669E-03
 0.6291000E+00 -0.6141463E-03
 0.6302000E+00 -0.4214451E-03
 0.6313000E+00 -0.2502086E-03
 0.6324000E+00 -0.9997143E-04
 0.6335000E+00  0.2983641E-04
 0.6346000E+00  0.1398833E-03
 0.6357000E+00  0.2309300E-03
 0.6368000E+00  0.3038239E-03
 0.6379000E+00  0.3594944E-03
 0.6390000E+00  0.3989463E-03
 0.6401000E+00  0.4232546E-03
 0.6412000E+00  0.4335561E-03
 0.6423000E+00  0.4310407E-03
 0.6434000E+00  0.4169417E-03
 0.6445000E+00  0.3925248E-03
 0.6456000E+00  0.3590765E-03
 0.6467000E+00  0.3178916E-03
 0.6478000E+00  0.2702599E-03
 0.6489000E+00  0.2174530E-03
 0.6500000E+00  0.1607106E-03
 0.6511000E+00  0.1012279E-03
 0.6522000E+00  0.4014448E-04
 0.6533000E+00 -0.2146636E-04
 0.6544000E+00 -0.8260755E-04
 0.6555000E+00 -0.1423674E-03
 0.6566000E+00 -0.1999283E-03
 0.6577000E+00 -0.2545741E-03
 0.6588000E+00 -0.3056952E-03
 0.6599000E+00 -0.3527918E-03
 0.6610000E+00 -0.3954738E-03
 0.6621000E+00 -0.4334598E-03
 0.6632000E+00 -0.4665722E-03
 0.6643000E+00 -0.4947315E-03
 0.6654000E+00 -0.5179483E-03
 0.6665000E+00 -0.5363142E-03
 0.6676000E+00 -0.5499918E-03
 0.6687000E+00 -0.5592052E-03
 0.6698000E+00 -0.5642310E-03
 0.6709000E+00 -0.5653885E-03
 0.6720000E+00 -0.5630308E-03
 0.6731000E+00 -0.5575331E-03
 0.6742000E+00 -0.5492812E-03
 0.6753000E+00 -0.5386598E-03
 0.6764000E+00 -0.5260413E-03
 0.6775000E+00 -0.5117771E-03
 0.6786000E+00 -0.4961914E-03
 0.6797000E+00 -0.4795758E-03
 0.6808000E+00 -0.4621866E-03
 0.6819000E+00 -0.4442415E-03
 0.6830000E+00 -0.4259195E-03
 0.6841000E+00 -0.4073609E-03
 0.6852000E+00 -0.3886698E-03
 0.6863000E+00 -0.3699173E-03
 0.6874000E+00 -0.3511451E-03
 0.6885000E+00 -0.3323688E-03
 0.6896000E+00 -0.3135801E-03
 0.6907000E+00 -0.2947494E-03
 0.6918000E+00 -0.2758281E-03
 0.6929000E+00 -0.2567520E-03
 0.6940000E+00 -0.2374456E-03
 0.6951000E+00 -0.2178260E-03
 0.6962000E+00 -0.1978083E-03
 0.6973000E+00 -0.1773084E-03
 0.6984000E+00 -0.1562470E-03
 0.6995000E+00 -0.1345506E-03
 0.7006000E+00 -0.1121532E-03
 0.7017000E+00 -0.8899634E-04
 0.7028000E+00 -0.6502823E-04
 0.7039000E+00 -0.4020277E-04
 0.7050000E+00 -0.1447811E-04
 0.7061000E+00  0.1218485E-04
 0.7072000E+00  0.3982391E-04
 0.7083000E+00  0.6847709E-04
 0.7094000E+00  0.9818408E-04
 0.7105000E+00  0.1289870E-03
 0.7116000E+00  0.1609302E-03
 0.7127000E+00  0.1940581E-03
 0.7138000E+00  0.2284124E-03
 0.7149000E+00  0.2640279E-03
 0.7160000E+00  0.3009289E-03
 0.7171000E+00  0.3391276E-03
 0.7182000E+00  0.3786231E-03
 0.7193000E+00  0.4194007E-03
 0.7204000E+00  0.4614310E-03
 0.7215000E+00  0.5046658E-03
 0.7226000E+00  0.5490324E-03
 0.7237000E+00  0.5944260E-03
 0.7248000E+00  0.6407022E-03
 0.7259000E+00  0.6876710E-03
 0.7270000E+00  0.7350933E-03
 0.7281000E+00  0.7826785E-03
 0.7292000E+00  0.8300849E-03
 0.7303000E+00  0.8769196E-03
 0.7314000E+00  0.9227392E-03
 0.7325000E+00  0.9670515E-03
 0.7336000E+00  0.1009318E-02
 0.7347000E+00  0.1048957E-02
 0.7358000E+00  0.1085351E-02
 0.7369000E+00  0.1117850E-02
 0.7380000E+00  0.1145781E-02
 0.7391000E+00  0.1168458E-02
 0.7402000E+00  0.1185190E-02
 0.7413000E+00  0.1195294E-02
 0.7424000E+00  0.1198107E-02
 0.7435000E+00  0.1193001E-02
 0.7446000E+00  0.1179394E-02
 0.7457000E+00  0.1156767E-02
 0.7468000E+00  0.1124672E-02
 0.7479000E+00  0.1082747E-02
 0.7490000E+00  0.1030724E-02
 0.7501000E+00  0.9684417E-03
 0.7512000E+00  0.8958502E-03
 0.7523000E+00  0.8130207E-03
 0.7534000E+00  0.7201501E-03
 0.7545000E+00  0.6175642E-03
 0.7556000E+00  0.5057196E-03
 0.7567000E+00  0.3852019E-03
 0.7578000E+00  0.2567240E-03
 0.7589000E+00  0.1211199E-03
 0.7600000E+00 -0.2066300E-04
 0.7611000E+00 -0.1675740E-03
 0.7622000E+00 -0.3184726E-03
 0.7633000E+00 -0.4721423E-03
 0.7644000E+00 -0.6273070E-03
 0.7655000E+00 -0.7826466E-03
 0.7666000E+00 -0.9368138E-03
 0.7677000E+00 -0.1088450E-02
 0.7688000E+00 -0.1236205E-02
 0.7699000E+00 -0.1378750E-02
 0.7710000E+00 -0.1514801E-02
 0.7721000E+00 -0.1643132E-02
 0.7732000E+00 -0.1762594E-02
 0.7743000E+00 -0.1872127E-02
 0.7754000E+00 -0.1970777E-02
 0.7765000E+00 -0.2057708E-02
 0.7776000E+00 -0.2132208E-02
 0.7787000E+00 -0.2193706E-02
 0.7798000E+00 -0.2241774E-02
 0.7809000E+00 -0.2276128E-02
 0.7820000E+00 -0.2296635E-02
 0.7831000E+00 -0.2303307E-02
 0.7842000E+00 -0.2296296E-02
 0.7853000E+00 -0.2275891E-02
 0.7864000E+00 -0.2242511E-02
 0.7875000E+00 -0.2196700E-02
 0.7886000E+00 -0.2139120E-02
 0.7897000E+00 -0.2070539E-02
 0.7908000E+00 -0.1991820E-02
 0.7919000E+00 -0.1903905E-02
 0.7930000E+00 -0.1807804E-02
 0.7941000E+00 -0.1704575E-02
 0.7952000E+00 -0.1595311E-02
 0.7963000E+00 -0.1481132E-02
 0.7974000E+00 -0.1363164E-02
 0.7985000E+00 -0.1242533E-02
 0.7996000E+00 -0.1120348E-02
 0.8007000E+00 -0.9976851E-03
 0.8018000E+00 -0.8755806E-03
 0.8029000E+00 -0.7550163E-03
 0.8040000E+00 -0.6369127E-03
 0.8051000E+00 -0.5221234E-03
 0.8062000E+00 -0.4114289E-03
 0.8073000E+00 -0.3055320E-03
 0.8084000E+00 -0.2050513E-03
 0.8095000E+00 -0.1105179E-03
 0.8106000E+00 -0.2237191E-04
 0.8117000E+00  0.5903730E-04
 0.8128000E+00  0.1334493E-03
 0.8139000E+00  0.2006894E-03
 0.8150000E+00  0.2606647E-03
 0.8161000E+00  0.3133608E-03
 0.8172000E+00  0.3588369E-03
 0.8183000E+00  0.3972219E-03
 0.8194000E+00  0.4287080E-03
 0.8205000E+00  0.4535448E-03
 0.8216000E+00  0.4720316E-03
 0.8227000E+00  0.4845101E-03
 0.8238000E+00  0.4913574E-03
 0.8249000E+00  0.4929778E-03
 0.8260000E+00  0.4897958E-03
 0.8271000E+00  0.4822478E-03
 0.8282000E+00  0.4707749E-03
 0.8293000E+00  0.4558152E-03
 0.8304000E+00  0.4377968E-03
 0.8315000E+00  0.4171319E-03
 0.8326000E+00  0.3942105E-03
 0.8337000E+00  0.3693943E-03
 0.8348000E+00  0.3430116E-03
 0.8359000E+00  0.3153515E-03
 0.8370000E+00  0.2866597E-03
 0.8381000E+00  0.2571336E-03
 0.8392000E+00  0.2269180E-03
 0.8403000E+00  0.1961004E-03
 0.8414000E+00  0.1647071E-03
 0.8425000E+00  0.1327002E-03
 0.8436000E+00  0.9997695E-04
 0.8447000E+00  0.6637049E-04
 0.8458000E+00  0.3165135E-04
 0.8469000E+00 -0.4470905E-05
 0.8480000E+00 -0.4234715E-04
 0.8491000E+00 -0.8238857E-04
 0.8502000E+00 -0.1250661E-03
 0.8513000E+00 -0.1709079E-03
 0.8524000E+00 -0.2204950E-03
 0.8535000E+00 -0.2744546E-03
 0.8546000E+00 -0.3334525E-03
 0.8557000E+00 -0.3981856E-03
 0.8568000E+00 -0.4693745E-03
 0.8579000E+00 -0.5477558E-03
 0.8590000E+00 -0.6340727E-03
 0.8601000E+00 -0.7290640E-03
 0.8612000E+00 -0.8334517E-03
 0.8623000E+00 -0.9479270E-03
 0.8634000E+00 -0.1073137E-02
 0.8645000E+00 -0.1209670E-02
 0.8656000E+00 -0.1358044E-02
 0.8667000E+00 -0.1518685E-02
 0.8678000E+00 -0.1691919E-02
 0.8689000E+00 -0.1877947E-02
 0.8700000E+00 -0.2076830E-02
 0.8711000E+00 -0.2288472E-02
 0.8722000E+00 -0.2512603E-02
 0.8733000E+00 -0.2748764E-02
 0.8744000E+00 -0.2996291E-02
 0.8755000E+00 -0.3254303E-02
 0.8766000E+00 -0.3521692E-02
 0.8777000E+00 -0.3797110E-02
 0.8788000E+00 -0.4078965E-02
 0.8799000E+00 -0.4365415E-02
 0.8810000E+00 -0.4654366E-02
 0.8821000E+00 -0.4943471E-02
 0.8832000E+00 -0.5230144E-02
 0.8843000E+00 -0.5511563E-02
 0.8854000E+00 -0.5784698E-02
 0.8865000E+00 -0.6046325E-02
 0.8876000E+00 -0.6293062E-02
 0.8887000E+00 -0.6521392E-02
 0.8898000E+00 -0.6727702E-02
 0.8909000E+00 -0.6908329E-02
 0.8920000E+00 -0.7059596E-02
 0.8931000E+00 -0.7177868E-02
 0.8942000E+00 -0.7259614E-02
 0.8953000E+00 -0.7301450E-02
 0.8964000E+00 -0.7300205E-02
 0.8975000E+00 -0.7252975E-02
 0.8986000E+00 -0.7157182E-02
 0.8997000E+00 -0.7010633E-02
 0.9008000E+00 -0.6811576E-02
 0.9019000E+00 -0.6558754E-02
 0.9030000E+00 -0.6251457E-02
 0.9041000E+00 -0.5889555E-02
 0.9052000E+00 -0.5473534E-02
 0.9063000E+00 -0.5004522E-02
 0.9074000E+00 -0.4484305E-02
 0.9085000E+00 -0.3915334E-02
 0.9096000E+00 -0.3300727E-02
 0.9107000E+00 -0.2644260E-02
 0.9118000E+00 -0.1950331E-02
 0.9129000E+00 -0.1223934E-02
 0.9140000E+00 -0.4706063E-03
 0.9151000E+00  0.3036248E-03
 0.9162000E+00  0.1092305E-02
 0.9173000E+00  0.1888626E-02
 0.9184000E+00  0.2685511E-02
 0.9195000E+00  0.3475707E-02
 0.9206000E+00  0.4251879E-02
 0.9217000E+00  0.5006709E-02
 0.9228000E+00  0.5733000E-02
 0.9239000E+00  0.6423764E-02
 0.9250000E+00  0.7072327E-02
 0.9261000E+00  0.7672416E-02
 0.9272000E+00  0.8218251E-02
 0.9283000E+00  0.8704631E-02
 0.9294000E+00  0.9127008E-02
 0.9305000E+00  0.9481553E-02
 0.9316000E+00  0.9765208E-02
 0.9327000E+00  0.9975727E-02
 0.9338000E+00  0.1011171E-01
 0.9349000E+00  0.1017262E-01
 0.9360000E+00  0.1015878E-01
 0.9371000E+00  0.1007135E-01
 0.9382000E+00  0.9912354E-02
 0.9393000E+00  0.9684558E-02
 0.9404000E+00  0.9391488E-02
 0.9415000E+00  0.9037336E-02
 0.9426000E+00  0.8626909E-02
 0.9437000E+00  0.8165544E-02
 0.9448000E+00  0.7659026E-02
 0.9459000E+00  0.7113502E-02
 0.9470000E+00  0.6535382E-02
 0.9481000E+00  0.5931242E-02
 0.9492000E+00  0.5307735E-02
 0.9503000E+00  0.4671485E-02
 0.9514000E+00  0.4029000E-02
 0.9525000E+00  0.3386584E-02
 0.9536000E+00  0.2750259E-02
 0.9547000E+00  0.2125692E-02
 0.9558000E+00  0.1518136E-02
 0.9569000E+00  0.9323749E-03
 0.9580000E+00  0.3726822E-03
 0.9591000E+00 -0.1572181E-03
 0.9602000E+00 -0.6541745E-03
 0.9613000E+00 -0.1115623E-02
 0.9624000E+00 -0.1539589E-02
 0.9635000E+00 -0.1924682E-02
 0.9646000E+00 -0.2270075E-02
 0.9657000E+00 -0.2575487E-02
 0.9668000E+00 -0.2841145E-02
 0.9679000E+00 -0.3067754E-02
 0.9690000E+00 -0.3256440E-02
 0.9701000E+00 -0.3408707E-02
 0.9712000E+00 -0.3526374E-02
 0.9723000E+00 -0.3611525E-02
 0.9734000E+00 -0.3666452E-02
 0.9745000E+00 -0.3693609E-02
 0.9756000E+00 -0.3695555E-02
 0.9767000E+00 -0.3674911E-02
 0.9778000E+00 -0.3634301E-02
 0.9789000E+00 -0.3576310E-02