-0.1200000E+00  0.0000000E+00
-0.1189000E+00  0.0000000E+00
-0.1178000E+00  0.0000000E+00
-0.1167000E+00  0.0000000E+00
-0.1156000E+00  0.0000000E+00
-0.1145000E+00  0.0000000E+00
-0.1134000E+00  0.0000000E+00
-0.1123000E+00  0.0000000E+00
-0.1112000E+00  0.0000000E+00
-0.1101000E+00  0.0000000E+00
-0.1090000E+00  0.0000000E+00
-0.1079000E+00  0.0000000E+00
-0.1068000E+00  0.0000000E+00
-0.1057000E+00  0.0000000E+00
-0.1046000E+00  0.0000000E+00
-0.1035000E+00  0.0000000E+00
-0.1024000E+00  0.0000000E+00
-0.1013000E+00  0.0000000E+00
-0.1002000E+00  0.0000000E+00
-0.9910000E-01  0.0000000E+00
-0.9800000E-01  0.0000000E+00
-0.9690000E-01  0.0000000E+00
-0.9580000E-01  0.0000000E+00
-0.9470000E-01  0.0000000E+00
-0.9360000E-01  0.0000000E+00
-0.9250000E-01  0.0000000E+00
-0.9140000E-01  0.0000000E+00
-0.9030000E-01  0.0000000E+00
-0.8920000E-01  0.0000000E+00
-0.8810000E-01  0.0000000E+00
-0.8700000E-01  0.0000000E+00
-0.8590000E-01  0.0000000E+00
-0.8480000E-01  0.0000000E+00
-0.8370000E-01  0.0000000E+00
-0.8260000E-01  0.0000000E+00
-0.8150000E-01  0.0000000E+00
-0.8040000E-01  0.0000000E+00
-0.7930000E-01  0.0000000E+00
-0.7820000E-01  0.0000000E+00
-0.7710000E-01  0.0000000E+00
-0.7600000E-01  0.0000000E+00
-0.7490000E-01  0.0000000E+00
-0.7380000E-01  0.0000000E+00
-0.7270000E-01  0.0000000E+00
-0.7160000E-01  0.0000000E+00
-0.7050000E-01  0.0000000E+00
-0.6940000E-01  0.0000000E+00
-0.6830000E-01  0.0000000E+00
-0.6720000E-01  0.0000000E+00
-0.6610000E-01  0.0000000E+00
-0.6500000E-01  0.0000000E+00
-0.6390000E-01  0.0000000E+00
-0.6280000E-01  0.0000000E+00
-0.6170000E-01  0.0000000E+00
-0.6060000E-01  0.0000000E+00
-0.5950000E-01  0.0000000E+00
-0.5840000E-01  0.0000000E+00
-0.5730000E-01  0.0000000E+00
-0.5620000E-01  0.0000000E+00
-0.5510000E-01  0.0000000E+00
-0.5400000E-01  0.0000000E+00
-0.5290000E-01  0.0000000E+00
-0.5180000E-01  0.0000000E+00
-0.5070000E-01  0.0000000E+00
-0.4960000E-01  0.0000000E+00
-0.4850000E-01  0.0000000E+00
-0.4740000E-01  0.0000000E+00
-0.4630000E-01  0.0000000E+00
-0.4520000E-01  0.0000000E+00
-0.4410000E-01  0.0000000E+00
-0.4300000E-01  0.0000000E+00
-0.4190000E-01  0.0000000E+00
-0.4080000E-01  0.0000000E+00
-0.3970000E-01  0.0000000E+00
-0.3860000E-01  0.0000000E+00
-0.3750000E-01  0.0000000E+00
-0.3640000E-01  0.0000000E+00
-0.3530000E-01  0.0000000E+00
-0.3420000E-01  0.0000000E+00
-0.3310000E-01  0.0000000E+00
-0.3200000E-01  0.0000000E+00
-0.3090000E-01  0.0000000E+00
-0.2980000E-01  0.0000000E+00
-0.2870000E-01  0.0000000E+00
-0.2760000E-01  0.0000000E+00
-0.2650000E-01  0.0000000E+00
-0.2540000E-01  0.0000000E+00
-0.2430000E-01  0.0000000E+00
-0.2320000E-01  0.0000000E+00
-0.2210000E-01  0.0000000E+00
-0.2100000E-01  0.0000000E+00
-0.1990000E-01  0.0000000E+00
-0.1880000E-01  0.0000000E+00
-0.1770000E-01  0.0000000E+00
-0.1660000E-01  0.0000000E+00
-0.1550000E-01  0.0000000E+00
-0.1440000E-01  0.0000000E+00
-0.1330000E-01  0.0000000E+00
-0.1220000E-01  0.0000000E+00
-0.1110000E-01  0.0000000E+00
-0.1000000E-01  0.0000000E+00
-0.8900000E-02  0.0000000E+00
-0.7800000E-02  0.0000000E+00
-0.6700000E-02  0.0000000E+00
-0.5600000E-02  0.0000000E+00
-0.4500000E-02  0.0000000E+00
-0.3400000E-02  0.0000000E+00
-0.2300000E-02  0.0000000E+00
-0.1200000E-02  0.0000000E+00
-0.1000000E-03  0.0000000E+00
 0.1000000E-02  0.0000000E+00
 0.2100000E-02  0.0000000E+00
 0.3200000E-02  0.0000000E+00
 0.4300000E-02  0.0000000E+00
 0.5400000E-02  0.0000000E+00
 0.6500000E-02  0.0000000E+00
 0.7600000E-02  0.0000000E+00
 0.8700000E-02  0.0000000E+00
 0.9800000E-02  0.0000000E+00
 0.1090000E-01  0.0000000E+00
 0.1200000E-01  0.0000000E+00
 0.1310000E-01  0.0000000E+00
 0.1420000E-01  0.0000000E+00
 0.1530000E-01  0.0000000E+00
 0.1640000E-01  0.0000000E+00
 0.1750000E-01  0.0000000E+00
 0.1860000E-01  0.0000000E+00
 0.1970000E-01  0.0000000E+00
 0.2080000E-01  0.0000000E+00
 0.2190000E-01  0.0000000E+00
 0.2300000E-01  0.0000000E+00
 0.2410000E-01  0.0000000E+00
 0.2520000E-01  0.0000000E+00
 0.2630000E-01  0.0000000E+00
 0.2740000E-01  0.0000000E+00
 0.2850000E-01  0.0000000E+00
 0.2960000E-01  0.0000000E+00
 0.3070000E-01  0.0000000E+00
 0.3180000E-01  0.0000000E+00
 0.3290000E-01  0.0000000E+00
 0.3400000E-01  0.0000000E+00
 0.3510000E-01  0.0000000E+00
 0.3620000E-01 -0.0000000E+00
 0.3730000E-01 -0.2941847E-37
 0.3840000E-01 -0.4243974E-37
 0.3950000E-01 -0.2242112E-37
 0.4060000E-01  0.0000000E+00
 0.4170000E-01  0.0000000E+00
 0.4280000E-01  0.0000000E+00
 0.4390000E-01  0.3569857E-37
 0.4500000E-01  0.9587737E-37
 0.4610000E-01  0.9968843E-37
 0.4720000E-01 -0.8737282E-37
 0.4830000E-01 -0.4943167E-36
 0.4940000E-01 -0.9566829E-36
 0.5050000E-01 -0.1092620E-35
 0.5160000E-01 -0.4497542E-36
 0.5270000E-01  0.1239699E-35
 0.5380000E-01  0.3678883E-35
 0.5490000E-01  0.5735869E-35
 0.5600000E-01  0.5553814E-35
 0.5710000E-01  0.1215274E-35
 0.5820000E-01 -0.7943420E-35
 0.5930000E-01 -0.1980183E-34
 0.6040000E-01 -0.2853297E-34
 0.6150000E-01 -0.2543979E-34
 0.6260000E-01 -0.2441002E-35
 0.6370000E-01  0.4192475E-34
 0.6480000E-01  0.9599572E-34
 0.6590000E-01  0.1319471E-33
 0.6700000E-01  0.1110768E-33
 0.6810000E-01  0.5925495E-36
 0.6920000E-01 -0.2000727E-33
 0.7030000E-01 -0.4332706E-33
 0.7140000E-01 -0.5747820E-33
 0.7250000E-01 -0.4621905E-33
 0.7360000E-01  0.3028974E-34
 0.7470000E-01  0.8835689E-33
 0.7580000E-01  0.1836346E-32
 0.7690000E-01  0.2368858E-32
 0.7800000E-01  0.1837655E-32
 0.7910000E-01 -0.2136113E-33
 0.8020000E-01 -0.3635442E-32
 0.8130000E-01 -0.7329997E-32
 0.8240000E-01 -0.9251264E-32
 0.8350000E-01 -0.6987357E-32
 0.8460000E-01  0.1029809E-32
 0.8570000E-01  0.1399686E-31
 0.8680000E-01  0.2760654E-31
 0.8790000E-01  0.3426059E-31
 0.8900000E-01  0.2539326E-31
 0.9010000E-01 -0.4099523E-32
 0.9120000E-01 -0.5059617E-31
 0.9230000E-01 -0.9823633E-31
 0.9340000E-01 -0.1203478E-30
 0.9450000E-01 -0.8808649E-31
 0.9560000E-01  0.1426832E-31
 0.9670000E-01  0.1721671E-30
 0.9780000E-01  0.3306003E-30
 0.9890000E-01  0.4009465E-30
 0.1000000E+00  0.2910918E-30
 0.1011000E+00 -0.4466574E-31
 0.1022000E+00 -0.5527985E-30
 0.1033000E+00 -0.1053092E-29
 0.1044000E+00 -0.1266548E-29
 0.1055000E+00 -0.9142239E-30
 0.1066000E+00  0.1287113E-30
 0.1077000E+00  0.1679157E-29
 0.1088000E+00  0.3178111E-29
 0.1099000E+00  0.3792565E-29
 0.1110000E+00  0.2721827E-29
 0.1121000E+00 -0.3520110E-30
 0.1132000E+00 -0.4840741E-29
 0.1143000E+00 -0.9098745E-29
 0.1154000E+00 -0.1076490E-28
 0.1165000E+00 -0.7661637E-29
 0.1176000E+00  0.9559777E-30
 0.1187000E+00  0.1330003E-28
 0.1198000E+00  0.2476120E-28
 0.1209000E+00  0.2897781E-28
 0.1220000E+00  0.2034128E-28
 0.1231000E+00 -0.2714678E-29
 0.1242000E+00 -0.3501700E-28
 0.1253000E+00 -0.6424603E-28
 0.1264000E+00 -0.7407896E-28
 0.1275000E+00 -0.5083803E-28
 0.1286000E+00  0.8270938E-29
 0.1297000E+00  0.8892953E-28
 0.1308000E+00  0.1596127E-27
 0.1319000E+00  0.1803372E-27
 0.1330000E+00  0.1195085E-27
 0.1341000E+00 -0.2640767E-28
 0.1352000E+00 -0.2193542E-27
 0.1363000E+00 -0.3818155E-27
 0.1374000E+00 -0.4199743E-27
 0.1385000E+00 -0.2646108E-27
 0.1396000E+00  0.8399755E-28
 0.1407000E+00  0.5284838E-27
 0.1418000E+00  0.8850320E-27
 0.1429000E+00  0.9418949E-27
 0.1440000E+00  0.5548011E-27
 0.1451000E+00 -0.2547396E-27
 0.1462000E+00 -0.1246738E-26
 0.1473000E+00 -0.1999507E-26
 0.1484000E+00 -0.2051186E-26
 0.1495000E+00 -0.1114211E-26
 0.1506000E+00  0.7174400E-27
 0.1517000E+00  0.2874259E-26
 0.1528000E+00  0.4418520E-26
 0.1539000E+00  0.4372377E-26
 0.1550000E+00  0.2183525E-26
 0.1561000E+00 -0.1852533E-26
 0.1572000E+00 -0.6436749E-26
 0.1583000E+00 -0.9546799E-26
 0.1594000E+00 -0.9167125E-26
 0.1605000E+00 -0.4266731E-26
 0.1616000E+00  0.4366793E-26
 0.1627000E+00  0.1389011E-25
 0.1638000E+00  0.2007770E-25
 0.1649000E+00  0.1888216E-25
 0.1660000E+00  0.8421261E-26
 0.1671000E+00 -0.9423015E-26
 0.1682000E+00 -0.2868248E-25
 0.1693000E+00 -0.4081727E-25
 0.1704000E+00 -0.3792455E-25
 0.1715000E+00 -0.1664699E-25
 0.1726000E+00  0.1885223E-25
 0.1737000E+00  0.5653735E-25
 0.1748000E+00  0.7972966E-25
 0.1759000E+00  0.7347413E-25
 0.1770000E+00  0.3198758E-25
 0.1781000E+00 -0.3597944E-25
 0.1792000E+00 -0.1069797E-24
 0.1803000E+00 -0.1494822E-24
 0.1814000E+00 -0.1361192E-24
 0.1825000E+00 -0.5747248E-25
 0.1836000E+00  0.6857214E-25
 0.1847000E+00  0.1974815E-24
 0.1858000E+00  0.2712186E-24
 0.1869000E+00  0.2412369E-24
 0.1880000E+00  0.9339315E-25
 0.1891000E+00 -0.1362067E-24
 0.1902000E+00 -0.3642069E-24
 0.1913000E+00 -0.4855609E-24
 0.1924000E+00 -0.4159522E-24
 0.1935000E+00 -0.1360902E-24
 0.1946000E+00  0.2819686E-24
 0.1957000E+00  0.6833356E-24
 0.1968000E+00  0.8789871E-24
 0.1979000E+00  0.7230130E-24
 0.1990000E+00  0.1907032E-24
 0.2001000E+00 -0.5778419E-24
 0.2012000E+00 -0.1297373E-23
 0.2023000E+00 -0.1627963E-23
 0.2034000E+00 -0.1313731E-23
 0.2045000E+00 -0.3197959E-24
 0.2056000E+00  0.1094439E-23
 0.2067000E+00  0.2414495E-23
 0.2078000E+00  0.3033248E-23
 0.2089000E+00  0.2495042E-23
 0.2100000E+00  0.7335470E-24
 0.2111000E+00 -0.1803004E-23
 0.2122000E+00 -0.4221230E-23
 0.2133000E+00 -0.5462339E-23
 0.2144000E+00 -0.4719175E-23
 0.2155000E+00 -0.1840593E-23
 0.2166000E+00  0.2455317E-23
 0.2177000E+00  0.6694291E-23
 0.2188000E+00  0.9108181E-23
 0.2199000E+00  0.8322504E-23
 0.2210000E+00  0.4020666E-23
 0.2221000E+00 -0.2706647E-23
 0.2232000E+00 -0.9543119E-23
 0.2243000E+00 -0.1369016E-22
 0.2254000E+00 -0.1296481E-22
 0.2265000E+00 -0.6848215E-23
 0.2276000E+00  0.2980184E-23
 0.2287000E+00  0.1295764E-22
 0.2298000E+00  0.1883385E-22
 0.2309000E+00  0.1739964E-22
 0.2320000E+00  0.8096240E-23
 0.2331000E+00 -0.6227601E-23
 0.2342000E+00 -0.1991846E-22
 0.2353000E+00 -0.2649394E-22
 0.2364000E+00 -0.2140101E-22
 0.2375000E+00 -0.4498136E-23
 0.2386000E+00  0.1889954E-22
 0.2397000E+00  0.3918683E-22
 0.2408000E+00  0.4581498E-22
 0.2419000E+00  0.3182503E-22
 0.2430000E+00 -0.2157765E-23
 0.2441000E+00 -0.4633125E-22
 0.2452000E+00 -0.8375077E-22
 0.2463000E+00 -0.9591943E-22
 0.2474000E+00 -0.7032994E-22
 0.2485000E+00 -0.7189883E-23
 0.2496000E+00  0.7766559E-22
 0.2507000E+00  0.1556830E-21
 0.2518000E+00  0.1943136E-21
 0.2529000E+00  0.1691441E-21
 0.2540000E+00  0.7517860E-22
 0.2551000E+00 -0.6741651E-22
 0.2562000E+00 -0.2163829E-21
 0.2573000E+00 -0.3195444E-21
 0.2584000E+00 -0.3327711E-21
 0.2595000E+00 -0.2375870E-21
 0.2606000E+00 -0.5149349E-22
 0.2617000E+00  0.1740077E-21
 0.2628000E+00  0.3684878E-21
 0.2639000E+00  0.4664276E-21
 0.2650000E+00  0.4314297E-21
 0.2661000E+00  0.2712738E-21
 0.2672000E+00  0.3692907E-22
 0.2683000E+00 -0.1955156E-21
 0.2694000E+00 -0.3540161E-21
 0.2705000E+00 -0.3994753E-21
 0.2716000E+00 -0.3418323E-21
 0.2727000E+00 -0.2349039E-21
 0.2738000E+00 -0.1499652E-21
 0.2749000E+00 -0.1377451E-21
 0.2760000E+00 -0.1954240E-21
 0.2771000E+00 -0.2558070E-21
 0.2782000E+00 -0.2087532E-21
 0.2793000E+00  0.4807295E-22
 0.2804000E+00  0.5463803E-21
 0.2815000E+00  0.1199166E-20
 0.2826000E+00  0.1793892E-20
 0.2837000E+00  0.2041505E-20
 0.2848000E+00  0.1675108E-20
 0.2859000E+00  0.5695281E-21
 0.2870000E+00 -0.1162276E-20
 0.2881000E+00 -0.3140301E-20
 0.2892000E+00 -0.4782976E-20
 0.2903000E+00 -0.5462504E-20
 0.2914000E+00 -0.4710417E-20
 0.2925000E+00 -0.2407988E-20
 0.2936000E+00  0.1108617E-20
 0.2947000E+00  0.5077694E-20
 0.2958000E+00  0.8483199E-20
 0.2969000E+00  0.1032574E-19
 0.2980000E+00  0.9912456E-20
 0.2991000E+00  0.7072599E-20
 0.3002000E+00  0.2226601E-20
 0.3013000E+00 -0.3714194E-20
 0.3024000E+00 -0.9580542E-20
 0.3035000E+00 -0.1422726E-19
 0.3046000E+00 -0.1676629E-19
 0.3057000E+00 -0.1667968E-19
 0.3068000E+00 -0.1380010E-19
 0.3079000E+00 -0.8212932E-20
 0.3090000E+00 -0.1773282E-21
 0.3101000E+00  0.9841384E-20
 0.3112000E+00  0.2099563E-19
 0.3123000E+00  0.3180057E-19
 0.3134000E+00  0.3995952E-19
 0.3145000E+00  0.4247301E-19
 0.3156000E+00  0.3619001E-19
 0.3167000E+00  0.1881824E-19
 0.3178000E+00 -0.9796718E-20
 0.3189000E+00 -0.4651844E-19
 0.3200000E+00 -0.8440557E-19
 0.3211000E+00 -0.1133048E-18
 0.3222000E+00 -0.1217824E-18
 0.3233000E+00 -0.1002253E-18
 0.3244000E+00 -0.4448235E-19
 0.3255000E+00  0.4097007E-19
 0.3266000E+00  0.1415079E-18
 0.3277000E+00  0.2334729E-18
 0.3288000E+00  0.2883669E-18
 0.3299000E+00  0.2797540E-18
 0.3310000E+00  0.1915779E-18
 0.3321000E+00  0.2584211E-19
 0.3332000E+00 -0.1927669E-18
 0.3343000E+00 -0.4174864E-18
 0.3354000E+00 -0.5865819E-18
 0.3365000E+00 -0.6367232E-18
 0.3376000E+00 -0.5205904E-18
 0.3387000E+00 -0.2249359E-18
 0.3398000E+00  0.2158507E-18
 0.3409000E+00  0.7157867E-18
 0.3420000E+00  0.1146875E-17
 0.3431000E+00  0.1363528E-17
 0.3442000E+00  0.1239404E-17
 0.3453000E+00  0.7099445E-18
 0.3464000E+00 -0.1897719E-18
 0.3475000E+00 -0.1304259E-17
 0.3486000E+00 -0.2365402E-17
 0.3497000E+00 -0.3035752E-17
 0.3508000E+00 -0.2986272E-17
 0.3519000E+00 -0.1997049E-17
 0.3530000E+00 -0.5888421E-19
 0.3541000E+00  0.2553926E-17
 0.3552000E+00  0.5270818E-17
 0.3563000E+00  0.7296078E-17
 0.3574000E+00  0.7770918E-17
 0.3585000E+00  0.6009012E-17
 0.3596000E+00  0.1760436E-17
 0.3607000E+00 -0.4564521E-17
 0.3618000E+00 -0.1179109E-16
 0.3629000E+00 -0.1806592E-16
 0.3640000E+00 -0.2117142E-16
 0.3651000E+00 -0.1905262E-16
 0.3662000E+00 -0.1047386E-16
 0.3673000E+00  0.4341714E-17
 0.3684000E+00  0.2327977E-16
 0.3695000E+00  0.4230084E-16
 0.3706000E+00  0.5594441E-16
 0.3717000E+00  0.5840290E-16
 0.3728000E+00  0.4504721E-16
 0.3739000E+00  0.1412227E-16
 0.3750000E+00 -0.3180437E-16
 0.3761000E+00 -0.8511994E-16
 0.3772000E+00 -0.1335980E-15
 0.3783000E+00 -0.1622308E-15
 0.3794000E+00 -0.1564039E-15
 0.3805000E+00 -0.1059784E-15
 0.3816000E+00 -0.9467737E-17
 0.3827000E+00  0.1227724E-15
 0.3838000E+00  0.2674882E-15
 0.3849000E+00  0.3905373E-15
 0.3860000E+00  0.4523729E-15
 0.3871000E+00  0.4166320E-15
 0.3882000E+00  0.2605483E-15
 0.3893000E+00 -0.1493161E-16
 0.3904000E+00 -0.3779962E-15
 0.3915000E+00 -0.7644705E-15
 0.3926000E+00 -0.1084021E-14
 0.3937000E+00 -0.1234773E-14
 0.3948000E+00 -0.1125174E-14
 0.3959000E+00 -0.6998000E-15
 0.3970000E+00  0.3607266E-16
 0.3981000E+00  0.9994811E-15
 0.3992000E+00  0.2026658E-14
 0.4003000E+00  0.2888474E-14
 0.4014000E+00  0.3325988E-14
 0.4025000E+00  0.3103339E-14
 0.4036000E+00  0.2070337E-14
 0.4047000E+00  0.2228106E-15
 0.4058000E+00 -0.2253944E-14
 0.4069000E+00 -0.4973287E-14
 0.4080000E+00 -0.7378272E-14
 0.4091000E+00 -0.8820207E-14
 0.4102000E+00 -0.8679822E-14
 0.4113000E+00 -0.6515356E-14
 0.4124000E+00 -0.2211783E-14
 0.4135000E+00  0.3901474E-14
 0.4146000E+00  0.1099846E-13
 0.4157000E+00  0.1779892E-13
 0.4168000E+00  0.2272037E-13
 0.4179000E+00  0.2413631E-13
 0.4190000E+00  0.2071302E-13
 0.4201000E+00  0.1177467E-13
 0.4212000E+00 -0.2372743E-14
 0.4223000E+00 -0.2023609E-13
 0.4234000E+00 -0.3912139E-13
 0.4245000E+00 -0.5536342E-13
 0.4256000E+00 -0.6481416E-13
 0.4267000E+00 -0.6355782E-13
 0.4278000E+00 -0.4876732E-13
 0.4289000E+00 -0.1956840E-13
 0.4300000E+00  0.2225633E-13
 0.4311000E+00  0.7190163E-13
 0.4322000E+00  0.1216684E-12
 0.4333000E+00  0.1616876E-12
 0.4344000E+00  0.1812519E-12
 0.4355000E+00  0.1706564E-12
 0.4366000E+00  0.1233320E-12
 0.4377000E+00  0.3794527E-13
 0.4388000E+00 -0.7993230E-13
 0.4399000E+00 -0.2170039E-12
 0.4410000E+00 -0.3526431E-12
 0.4421000E+00 -0.4607428E-12
 0.4432000E+00 -0.5130562E-12
 0.4443000E+00 -0.4838069E-12
 0.4454000E+00 -0.3550710E-12
 0.4465000E+00 -0.1221672E-12
 0.4476000E+00  0.2018961E-12
 0.4487000E+00  0.5839457E-12
 0.4498000E+00  0.9710838E-12
 0.4509000E+00  0.1294718E-11
 0.4520000E+00  0.1478413E-11
 0.4531000E+00  0.1449190E-11
 0.4542000E+00  0.1151228E-11
 0.4553000E+00  0.5602397E-12
 0.4564000E+00 -0.3037451E-12
 0.4575000E+00 -0.1367776E-11
 0.4586000E+00 -0.2504072E-11
 0.4597000E+00 -0.3536867E-11
 0.4608000E+00 -0.4259105E-11
 0.4619000E+00 -0.4458762E-11
 0.4630000E+00 -0.3952917E-11
 0.4641000E+00 -0.2625967E-11
 0.4652000E+00 -0.4668337E-12
 0.4663000E+00  0.2401128E-11
 0.4674000E+00  0.5704162E-11
 0.4685000E+00  0.9022154E-11
 0.4696000E+00  0.1181706E-10
 0.4707000E+00  0.1348736E-10
 0.4718000E+00  0.1344652E-10
 0.4729000E+00  0.1121918E-10
 0.4740000E+00  0.6544763E-11
 0.4751000E+00 -0.5256264E-12
 0.4762000E+00 -0.9555219E-11
 0.4773000E+00 -0.1968728E-10
 0.4784000E+00 -0.2966515E-10
 0.4795000E+00 -0.3791685E-10
 0.4806000E+00 -0.4270727E-10
 0.4817000E+00 -0.4235198E-10
 0.4828000E+00 -0.3547677E-10
 0.4839000E+00 -0.2129644E-10
 0.4850000E+00  0.1216290E-12
 0.4861000E+00  0.2764970E-10
 0.4872000E+00  0.5898928E-10
 0.4883000E+00  0.9069574E-10
 0.4894000E+00  0.1183657E-09
 0.4905000E+00  0.1369989E-09
 0.4916000E+00  0.1415271E-09
 0.4927000E+00  0.1274765E-09
 0.4938000E+00  0.9170950E-10
 0.4949000E+00  0.3316695E-10
 0.4960000E+00 -0.4648324E-10
 0.4971000E+00 -0.1423928E-09
 0.4982000E+00 -0.2463747E-09
 0.4993000E+00 -0.3471227E-09
 0.5004000E+00 -0.4308646E-09
 0.5015000E+00 -0.4824640E-09
 0.5026000E+00 -0.4869358E-09
 0.5037000E+00 -0.4312898E-09
 0.5048000E+00 -0.3065574E-09
 0.5059000E+00 -0.1098174E-09
 0.5070000E+00  0.1540048E-09
 0.5081000E+00  0.4707992E-09
 0.5092000E+00  0.8166258E-09
 0.5103000E+00  0.1157959E-08
 0.5114000E+00  0.1452961E-08
 0.5125000E+00  0.1653851E-08
 0.5136000E+00  0.1710334E-08
 0.5147000E+00  0.1573959E-08
 0.5158000E+00  0.1203176E-08
 0.5169000E+00  0.5687794E-09
 0.5180000E+00 -0.3406339E-09
 0.5191000E+00 -0.1513588E-08
 0.5202000E+00 -0.2911404E-08
 0.5213000E+00 -0.4464948E-08
 0.5224000E+00 -0.6072626E-08
 0.5235000E+00 -0.7599714E-08
 0.5246000E+00 -0.8878859E-08
 0.5257000E+00 -0.9711448E-08
 0.5268000E+00 -0.9869318E-08
 0.5279000E+00 -0.9096099E-08
 0.5290000E+00 -0.7107323E-08
 0.5301000E+00 -0.3588317E-08
 0.5312000E+00  0.1811165E-08
 0.5323000E+00  0.9486634E-08
 0.5334000E+00  0.1989389E-07
 0.5345000E+00  0.3357032E-07
 0.5356000E+00  0.5116337E-07
 0.5367000E+00  0.7346677E-07
 0.5378000E+00  0.1014653E-06
 0.5389000E+00  0.1363884E-06
 0.5400000E+00  0.1797740E-06
 0.5411000E+00  0.2335414E-06
 0.5422000E+00  0.3000761E-06
 0.5433000E+00  0.3823260E-06
 0.5444000E+00  0.4839105E-06
 0.5455000E+00  0.6092446E-06
 0.5466000E+00  0.7636791E-06
 0.5477000E+00  0.9536603E-06
 0.5488000E+00  0.1186911E-05
 0.5499000E+00  0.1472634E-05
 0.5510000E+00  0.1821749E-05
 0.5521000E+00  0.2247152E-05
 0.5532000E+00  0.2764016E-05
 0.5543000E+00  0.3390126E-05
 0.5554000E+00  0.4146250E-05
 0.5565000E+00  0.5056557E-05
 0.5576000E+00  0.6149073E-05
 0.5587000E+00  0.7456179E-05
 0.5598000E+00  0.9015152E-05
 0.5609000E+00  0.1086874E-04
 0.5620000E+00  0.1306577E-04
 0.5631000E+00  0.1566179E-04
 0.5642000E+00  0.1871973E-04
 0.5653000E+00  0.2231055E-04
 0.5664000E+00  0.2651394E-04
 0.5675000E+00  0.3141892E-04
 0.5686000E+00  0.3712449E-04
 0.5697000E+00  0.4374021E-04
 0.5708000E+00  0.5138662E-04
 0.5719000E+00  0.6019571E-04
 0.5730000E+00  0.7031111E-04
 0.5741000E+00  0.8188821E-04
 0.5752000E+00  0.9509410E-04
 0.5763000E+00  0.1101072E-03
 0.5774000E+00  0.1271167E-03
 0.5785000E+00  0.1463219E-03
 0.5796000E+00  0.1679305E-03
 0.5807000E+00  0.1921575E-03
 0.5818000E+00  0.2192231E-03
 0.5829000E+00  0.2493500E-03
 0.5840000E+00  0.2827609E-03
 0.5851000E+00  0.3196747E-03
 0.5862000E+00  0.3603030E-03
 0.5873000E+00  0.4048453E-03
 0.5884000E+00  0.4534844E-03
 0.5895000E+00  0.5063809E-03
 0.5906000E+00  0.5636674E-03
 0.5917000E+00  0.6254421E-03
 0.5928000E+00  0.6917623E-03
 0.5939000E+00  0.7626379E-03
 0.5950000E+00  0.8380241E-03
 0.5961000E+00  0.9178147E-03
 0.5972000E+00  0.1001835E-02
 0.5983000E+00  0.1089834E-02
 0.5994000E+00  0.1181481E-02
 0.6005000E+00  0.1276357E-02
 0.6016000E+00  0.1373951E-02
 0.6027000E+00  0.1473658E-02
 0.6038000E+00  0.1574773E-02
 0.6049000E+00  0.1676491E-02
 0.6060000E+00  0.1777908E-02
 0.6071000E+00  0.1878022E-02
 0.6082000E+00  0.1975737E-02
 0.6093000E+00  0.2069867E-02
 0.6104000E+00  0.2159148E-02
 0.6115000E+00  0.2242242E-02
 0.6126000E+00  0.2317754E-02
 0.6137000E+00  0.2384245E-02
 0.6148000E+00  0.2440246E-02
 0.6159000E+00  0.2484278E-02
 0.6170000E+00  0.2514872E-02
 0.6181000E+00  0.2530589E-02
 0.6192000E+00  0.2530044E-02
 0.6203000E+00  0.2511930E-02
 0.6214000E+00  0.2475040E-02
 0.6225000E+00  0.2418295E-02
 0.6236000E+00  0.2340763E-02
 0.6247000E+00  0.2241686E-02
 0.6258000E+00  0.2120499E-02
 0.6269000E+00  0.1976853E-02
 0.6280000E+00  0.1810632E-02
 0.6291000E+00  0.1621965E-02
 0.6302000E+00  0.1411242E-02
 0.6313000E+00  0.1179119E-02
 0.6324000E+00  0.9265260E-03
 0.6335000E+00  0.6546645E-03
 0.6346000E+00  0.3650056E-03
 0.6357000E+00  0.5927936E-04
 0.6368000E+00 -0.2605369E-03
 0.6379000E+00 -0.5922367E-03
 0.6390000E+00 -0.9334058E-03
 0.6401000E+00 -0.1281448E-02
 0.6412000E+00 -0.1633613E-02
 0.6423000E+00 -0.1987031E-02
 0.6434000E+00 -0.2338747E-02
 0.6445000E+00 -0.2685756E-02
 0.6456000E+00 -0.3025047E-02
 0.6467000E+00 -0.3353635E-02
 0.6478000E+00 -0.3668608E-02
 0.6489000E+00 -0.3967165E-02
 0.6500000E+00 -0.4246648E-02
 0.6511000E+00 -0.4504586E-02
 0.6522000E+00 -0.4738722E-02
 0.6533000E+00 -0.4947044E-02
 0.6544000E+00 -0.5127815E-02
 0.6555000E+00 -0.5279588E-02
 0.6566000E+00 -0.5401230E-02
 0.6577000E+00 -0.5491933E-02
 0.6588000E+00 -0.5551221E-02
 0.6599000E+00 -0.5578949E-02
 0.6610000E+00 -0.5575303E-02
 0.6621000E+00 -0.5540795E-02
 0.6632000E+00 -0.5476243E-02
 0.6643000E+00 -0.5382762E-02
 0.6654000E+00 -0.5261741E-02
 0.6665000E+00 -0.5114818E-02
 0.6676000E+00 -0.4943853E-02
 0.6687000E+00 -0.4750897E-02
 0.6698000E+00 -0.4538163E-02
 0.6709000E+00 -0.4307989E-02
 0.6720000E+00 -0.4062808E-02
 0.6731000E+00 -0.3805115E-02
 0.6742000E+00 -0.3537429E-02
 0.6753000E+00 -0.3262268E-02
 0.6764000E+00 -0.2982111E-02
 0.6775000E+00 -0.2699377E-02
 0.6786000E+00 -0.2416393E-02
 0.6797000E+00 -0.2135375E-02
 0.6808000E+00 -0.1858400E-02
 0.6819000E+00 -0.1587395E-02
 0.6830000E+00 -0.1324120E-02
 0.6841000E+00 -0.1070154E-02
 0.6852000E+00 -0.8268919E-03
 0.6863000E+00 -0.5955360E-03
 0.6874000E+00 -0.3770956E-03
 0.6885000E+00 -0.1723862E-03
 0.6896000E+00  0.1796689E-04
 0.6907000E+00  0.1935228E-03
 0.6918000E+00  0.3540170E-03
 0.6929000E+00  0.4993510E-03
 0.6940000E+00  0.6295809E-03
 0.6951000E+00  0.7449054E-03
 0.6962000E+00  0.8456511E-03
 0.6973000E+00  0.9322591E-03
 0.6984000E+00  0.1005269E-02
 0.6995000E+00  0.1065304E-02
 0.7006000E+00  0.1113054E-02
 0.7017000E+00  0.1149263E-02
 0.7028000E+00  0.1174713E-02
 0.7039000E+00  0.1190210E-02
 0.7050000E+00  0.1196571E-02
 0.7061000E+00  0.1194612E-02
 0.7072000E+00  0.1185137E-02
 0.7083000E+00  0.1168927E-02
 0.7094000E+00  0.1146733E-02
 0.7105000E+00  0.1119267E-02
 0.7116000E+00  0.1087201E-02
 0.7127000E+00  0.1051156E-02
 0.7138000E+00  0.1011701E-02
 0.7149000E+00  0.9693521E-03
 0.7160000E+00  0.9245724E-03
 0.7171000E+00  0.8777709E-03
 0.7182000E+00  0.8293065E-03
 0.7193000E+00  0.7794895E-03
 0.7204000E+00  0.7285847E-03
 0.7215000E+00  0.6768153E-03
 0.7226000E+00  0.6243687E-03
 0.7237000E+00  0.5714010E-03
 0.7248000E+00  0.5180443E-03
 0.7259000E+00  0.4644121E-03
 0.7270000E+00  0.4106041E-03
 0.7281000E+00  0.3567108E-03
 0.7292000E+00  0.3028186E-03
 0.7303000E+00  0.2490140E-03
 0.7314000E+00  0.1953883E-03
 0.7325000E+00  0.1420417E-03
 0.7336000E+00  0.8908602E-04
 0.7347000E+00  0.3664652E-04
 0.7358000E+00 -0.1513796E-04
 0.7369000E+00 -0.6611514E-04
 0.7380000E+00 -0.1161198E-03
 0.7391000E+00 -0.1649747E-03
 0.7402000E+00 -0.2124915E-03
 0.7413000E+00 -0.2584731E-03
 0.7424000E+00 -0.3027165E-03
 0.7435000E+00 -0.3450158E-03
 0.7446000E+00 -0.3851660E-03
 0.7457000E+00 -0.4229664E-03
 0.7468000E+00 -0.4582242E-03
 0.7479000E+00 -0.4907576E-03
 0.7490000E+00 -0.5203998E-03
 0.7501000E+00 -0.5470015E-03
 0.7512000E+00 -0.5704340E-03
 0.7523000E+00 -0.5905905E-03
 0.7534000E+00 -0.6073877E-03
 0.7545000E+00 -0.6207674E-03
 0.7556000E+00 -0.6306971E-03
 0.7567000E+00 -0.6371710E-03
 0.7578000E+00 -0.6402100E-03
 0.7589000E+00 -0.6398605E-03
 0.7600000E+00 -0.6361928E-03
 0.7611000E+00 -0.6292984E-03
 0.7622000E+00 -0.6192887E-03
 0.7633000E+00 -0.6062922E-03
 0.7644000E+00 -0.5904537E-03
 0.7655000E+00 -0.5719318E-03
 0.7666000E+00 -0.5508970E-03
 0.7677000E+00 -0.5275284E-03
 0.7688000E+00 -0.5020116E-03
 0.7699000E+00 -0.4745364E-03
 0.7710000E+00 -0.4452947E-03
 0.7721000E+00 -0.4144799E-03
 0.7732000E+00 -0.3822852E-03
 0.7743000E+00 -0.3489026E-03
 0.7754000E+00 -0.3145219E-03
 0.7765000E+00 -0.2793304E-03
 0.7776000E+00 -0.2435123E-03
 0.7787000E+00 -0.2072496E-03
 0.7798000E+00 -0.1707215E-03
 0.7809000E+00 -0.1341055E-03
 0.7820000E+00 -0.9757673E-04
 0.7831000E+00 -0.6130862E-04
 0.7842000E+00 -0.2547269E-04
 0.7853000E+00  0.9760683E-05
 0.7864000E+00  0.4422228E-04
 0.7875000E+00  0.7774423E-04
 0.7886000E+00  0.1101610E-03
 0.7897000E+00  0.1413106E-03
 0.7908000E+00  0.1710361E-03
 0.7919000E+00  0.1991871E-03
 0.7930000E+00  0.2256207E-03
 0.7941000E+00  0.2502033E-03
 0.7952000E+00  0.2728124E-03
 0.7963000E+00  0.2933388E-03
 0.7974000E+00  0.3116890E-03
 0.7985000E+00  0.3277879E-03
 0.7996000E+00  0.3415801E-03
 0.8007000E+00  0.3530324E-03
 0.8018000E+00  0.3621349E-03
 0.8029000E+00  0.3689025E-03
 0.8040000E+00  0.3733753E-03
 0.8051000E+00  0.3756188E-03
 0.8062000E+00  0.3757236E-03
 0.8073000E+00  0.3738040E-03
 0.8084000E+00  0.3699970E-03
 0.8095000E+00  0.3644601E-03
 0.8106000E+00  0.3573692E-03
 0.8117000E+00  0.3489149E-03
 0.8128000E+00  0.3392989E-03
 0.8139000E+00  0.3287287E-03
 0.8150000E+00  0.3174133E-03
 0.8161000E+00  0.3055581E-03
 0.8172000E+00  0.2933613E-03
 0.8183000E+00  0.2810093E-03
 0.8194000E+00  0.2686730E-03
 0.8205000E+00  0.2565028E-03
 0.8216000E+00  0.2446249E-03
 0.8227000E+00  0.2331380E-03
 0.8238000E+00  0.2221108E-03
 0.8249000E+00  0.2115814E-03
 0.8260000E+00  0.2015565E-03
 0.8271000E+00  0.1920111E-03
 0.8282000E+00  0.1828889E-03
 0.8293000E+00  0.1741024E-03
 0.8304000E+00  0.1655346E-03
 0.8315000E+00  0.1570420E-03
 0.8326000E+00  0.1484576E-03
 0.8337000E+00  0.1395950E-03
 0.8348000E+00  0.1302519E-03
 0.8359000E+00  0.1202131E-03
 0.8370000E+00  0.1092534E-03
 0.8381000E+00  0.9714074E-04
 0.8392000E+00  0.8363929E-04
 0.8403000E+00  0.6851173E-04
 0.8414000E+00  0.5152125E-04
 0.8425000E+00  0.3243203E-04
 0.8436000E+00  0.1100892E-04
 0.8447000E+00 -0.1298372E-04
 0.8458000E+00 -0.3978354E-04
 0.8469000E+00 -0.6963217E-04
 0.8480000E+00 -0.1027778E-03
 0.8491000E+00 -0.1394782E-03
 0.8502000E+00 -0.1800047E-03
 0.8513000E+00 -0.2246460E-03
 0.8524000E+00 -0.2737119E-03
 0.8535000E+00 -0.3275360E-03
 0.8546000E+00 -0.3864787E-03
 0.8557000E+00 -0.4509289E-03
 0.8568000E+00 -0.5213048E-03
 0.8579000E+00 -0.5980543E-03
 0.8590000E+00 -0.6816525E-03
 0.8601000E+00 -0.7725988E-03
 0.8612000E+00 -0.8714102E-03
 0.8623000E+00 -0.9786146E-03
 0.8634000E+00 -0.1094741E-02
 0.8645000E+00 -0.1220308E-02
 0.8656000E+00 -0.1355810E-02
 0.8667000E+00 -0.1501704E-02
 0.8678000E+00 -0.1658389E-02
 0.8689000E+00 -0.1826186E-02
 0.8700000E+00 -0.2005325E-02
 0.8711000E+00 -0.2195916E-02
 0.8722000E+00 -0.2397933E-02
 0.8733000E+00 -0.2611197E-02
 0.8744000E+00 -0.2835349E-02
 0.8755000E+00 -0.3069835E-02
 0.8766000E+00 -0.3313886E-02
 0.8777000E+00 -0.3566504E-02
 0.8788000E+00 -0.3826448E-02
 0.8799000E+00 -0.4092228E-02
 0.8810000E+00 -0.4362100E-02
 0.8821000E+00 -0.4634061E-02
 0.8832000E+00 -0.4905854E-02
 0.8843000E+00 -0.5174976E-02
 0.8854000E+00 -0.5438691E-02
 0.8865000E+00 -0.5694049E-02
 0.8876000E+00 -0.5937912E-02
 0.8887000E+00 -0.6166984E-02
 0.8898000E+00 -0.6377848E-02
 0.8909000E+00 -0.6567006E-02
 0.8920000E+00 -0.6730919E-02
 0.8931000E+00 -0.6866061E-02
 0.8942000E+00 -0.6968967E-02
 0.8953000E+00 -0.7036289E-02
 0.8964000E+00 -0.7064850E-02
 0.8975000E+00 -0.7051702E-02
 0.8986000E+00 -0.6994183E-02
 0.8997000E+00 -0.6889968E-02
 0.9008000E+00 -0.6737125E-02
 0.9019000E+00 -0.6534158E-02
 0.9030000E+00 -0.6280055E-02
 0.9041000E+00 -0.5974323E-02
 0.9052000E+00 -0.5617016E-02
 0.9063000E+00 -0.5208764E-02
 0.9074000E+00 -0.4750785E-02
 0.9085000E+00 -0.4244895E-02
 0.9096000E+00 -0.3693499E-02
 0.9107000E+00 -0.3099583E-02
 0.9118000E+00 -0.2466688E-02
 0.9129000E+00 -0.1798879E-02
 0.9140000E+00 -0.1100700E-02
 0.9151000E+00 -0.3771274E-03
 0.9162000E+00  0.3664872E-03
 0.9173000E+00  0.1124482E-02
 0.9184000E+00  0.1890955E-02
 0.9195000E+00  0.2659839E-02
 0.9206000E+00  0.3424982E-02
 0.9217000E+00  0.4180228E-02
 0.9228000E+00  0.4919498E-02
 0.9239000E+00  0.5636867E-02
 0.9250000E+00  0.6326646E-02
 0.9261000E+00  0.6983452E-02
 0.9272000E+00  0.7602280E-02
 0.9283000E+00  0.8178557E-02
 0.9294000E+00  0.8708208E-02
 0.9305000E+00  0.9187696E-02
 0.9316000E+00  0.9614060E-02
 0.9327000E+00  0.9984947E-02
 0.9338000E+00  0.1029863E-01
 0.9349000E+00  0.1055400E-01
 0.9360000E+00  0.1075060E-01
 0.9371000E+00  0.1088857E-01
 0.9382000E+00  0.1096866E-01
 0.9393000E+00  0.1099216E-01
 0.9404000E+00  0.1096091E-01
 0.9415000E+00  0.1087724E-01
 0.9426000E+00  0.1074390E-01
 0.9437000E+00  0.1056404E-01
 0.9448000E+00  0.1034114E-01
 0.9459000E+00  0.1007891E-01
 0.9470000E+00  0.9781303E-02
 0.9481000E+00  0.9452399E-02
 0.9492000E+00  0.9096369E-02
 0.9503000E+00  0.8717414E-02
 0.9514000E+00  0.8319715E-02
 0.9525000E+00  0.7907378E-02
 0.9536000E+00  0.7484395E-02
 0.9547000E+00  0.7054589E-02
 0.9558000E+00  0.6621591E-02
 0.9569000E+00  0.6188807E-02
 0.9580000E+00  0.5759390E-02
 0.9591000E+00  0.5336225E-02
 0.9602000E+00  0.4921916E-02
 0.9613000E+00  0.4518773E-02
 0.9624000E+00  0.4128814E-02
 0.9635000E+00  0.3753761E-02
 0.9646000E+00  0.3395045E-02
 0.9657000E+00  0.3053812E-02
 0.9668000E+00  0.2730933E-02
 0.9679000E+00  0.2427020E-02
 0.9690000E+00  0.2142439E-02
 0.9701000E+00  0.1877328E-02
 0.9712000E+00  0.1631614E-02
 0.9723000E+00  0.1405028E-02
 0.9734000E+00  0.1197124E-02
 0.9745000E+00  0.1007299E-02
 0.9756000E+00  0.8348065E-03
 0.9767000E+00  0.6787807E-03
 0.9778000E+00  0.5382512E-03
 0.9789000E+00  0.4121620E-03