-0.1200000E+00  0.0000000E+00
-0.1189000E+00  0.0000000E+00
-0.1178000E+00  0.0000000E+00
-0.1167000E+00  0.0000000E+00
-0.1156000E+00  0.0000000E+00
-0.1145000E+00  0.0000000E+00
-0.1134000E+00  0.0000000E+00
-0.1123000E+00  0.0000000E+00
-0.1112000E+00  0.0000000E+00
-0.1101000E+00  0.0000000E+00
-0.1090000E+00  0.0000000E+00
-0.1079000E+00  0.0000000E+00
-0.1068000E+00  0.0000000E+00
-0.1057000E+00  0.0000000E+00
-0.1046000E+00  0.0000000E+00
-0.1035000E+00  0.0000000E+00
-0.1024000E+00  0.0000000E+00
-0.1013000E+00  0.0000000E+00
-0.1002000E+00  0.0000000E+00
-0.9910000E-01  0.0000000E+00
-0.9800000E-01  0.0000000E+00
-0.9690000E-01  0.0000000E+00
-0.9580000E-01  0.0000000E+00
-0.9470000E-01  0.0000000E+00
-0.9360000E-01  0.0000000E+00
-0.9250000E-01  0.0000000E+00
-0.9140000E-01  0.0000000E+00
-0.9030000E-01  0.0000000E+00
-0.8920000E-01  0.0000000E+00
-0.8810000E-01  0.0000000E+00
-0.8700000E-01  0.0000000E+00
-0.8590000E-01  0.0000000E+00
-0.8480000E-01  0.0000000E+00
-0.8370000E-01  0.0000000E+00
-0.8260000E-01  0.0000000E+00
-0.8150000E-01  0.0000000E+00
-0.8040000E-01  0.0000000E+00
-0.7930000E-01  0.0000000E+00
-0.7820000E-01  0.0000000E+00
-0.7710000E-01  0.0000000E+00
-0.7600000E-01  0.0000000E+00
-0.7490000E-01  0.0000000E+00
-0.7380000E-01  0.0000000E+00
-0.7270000E-01  0.0000000E+00
-0.7160000E-01  0.0000000E+00
-0.7050000E-01  0.0000000E+00
-0.6940000E-01  0.0000000E+00
-0.6830000E-01  0.0000000E+00
-0.6720000E-01  0.0000000E+00
-0.6610000E-01  0.0000000E+00
-0.6500000E-01  0.0000000E+00
-0.6390000E-01  0.0000000E+00
-0.6280000E-01  0.0000000E+00
-0.6170000E-01  0.0000000E+00
-0.6060000E-01  0.0000000E+00
-0.5950000E-01  0.0000000E+00
-0.5840000E-01  0.0000000E+00
-0.5730000E-01  0.0000000E+00
-0.5620000E-01  0.0000000E+00
-0.5510000E-01  0.0000000E+00
-0.5400000E-01  0.0000000E+00
-0.5290000E-01  0.0000000E+00
-0.5180000E-01  0.0000000E+00
-0.5070000E-01  0.0000000E+00
-0.4960000E-01  0.0000000E+00
-0.4850000E-01  0.0000000E+00
-0.4740000E-01  0.0000000E+00
-0.4630000E-01  0.0000000E+00
-0.4520000E-01  0.0000000E+00
-0.4410000E-01  0.0000000E+00
-0.4300000E-01  0.0000000E+00
-0.4190000E-01  0.0000000E+00
-0.4080000E-01  0.0000000E+00
-0.3970000E-01  0.0000000E+00
-0.3860000E-01  0.0000000E+00
-0.3750000E-01  0.0000000E+00
-0.3640000E-01  0.0000000E+00
-0.3530000E-01  0.0000000E+00
-0.3420000E-01  0.0000000E+00
-0.3310000E-01  0.0000000E+00
-0.3200000E-01  0.0000000E+00
-0.3090000E-01  0.0000000E+00
-0.2980000E-01  0.0000000E+00
-0.2870000E-01  0.0000000E+00
-0.2760000E-01  0.0000000E+00
-0.2650000E-01  0.0000000E+00
-0.2540000E-01  0.0000000E+00
-0.2430000E-01  0.0000000E+00
-0.2320000E-01  0.0000000E+00
-0.2210000E-01  0.0000000E+00
-0.2100000E-01  0.0000000E+00
-0.1990000E-01  0.0000000E+00
-0.1880000E-01  0.0000000E+00
-0.1770000E-01  0.0000000E+00
-0.1660000E-01  0.0000000E+00
-0.1550000E-01  0.0000000E+00
-0.1440000E-01  0.0000000E+00
-0.1330000E-01  0.0000000E+00
-0.1220000E-01  0.0000000E+00
-0.1110000E-01  0.0000000E+00
-0.1000000E-01  0.0000000E+00
-0.8900000E-02  0.0000000E+00
-0.7800000E-02  0.0000000E+00
-0.6700000E-02  0.0000000E+00
-0.5600000E-02  0.0000000E+00
-0.4500000E-02  0.0000000E+00
-0.3400000E-02  0.0000000E+00
-0.2300000E-02  0.0000000E+00
-0.1200000E-02  0.0000000E+00
-0.1000000E-03  0.0000000E+00
 0.1000000E-02  0.0000000E+00
 0.2100000E-02  0.0000000E+00
 0.3200000E-02  0.0000000E+00
 0.4300000E-02  0.0000000E+00
 0.5400000E-02  0.0000000E+00
 0.6500000E-02  0.0000000E+00
 0.7600000E-02  0.0000000E+00
 0.8700000E-02  0.0000000E+00
 0.9800000E-02  0.0000000E+00
 0.1090000E-01  0.0000000E+00
 0.1200000E-01  0.0000000E+00
 0.1310000E-01  0.0000000E+00
 0.1420000E-01  0.0000000E+00
 0.1530000E-01  0.0000000E+00
 0.1640000E-01  0.0000000E+00
 0.1750000E-01  0.0000000E+00
 0.1860000E-01  0.0000000E+00
 0.1970000E-01  0.0000000E+00
 0.2080000E-01  0.0000000E+00
 0.2190000E-01  0.0000000E+00
 0.2300000E-01  0.0000000E+00
 0.2410000E-01  0.0000000E+00
 0.2520000E-01  0.0000000E+00
 0.2630000E-01  0.0000000E+00
 0.2740000E-01  0.0000000E+00
 0.2850000E-01  0.0000000E+00
 0.2960000E-01  0.0000000E+00
 0.3070000E-01  0.0000000E+00
 0.3180000E-01  0.0000000E+00
 0.3290000E-01  0.0000000E+00
 0.3400000E-01  0.0000000E+00
 0.3510000E-01  0.0000000E+00
 0.3620000E-01  0.0000000E+00
 0.3730000E-01  0.0000000E+00
 0.3840000E-01  0.0000000E+00
 0.3950000E-01  0.0000000E+00
 0.4060000E-01  0.0000000E+00
 0.4170000E-01  0.0000000E+00
 0.4280000E-01  0.0000000E+00
 0.4390000E-01  0.0000000E+00
 0.4500000E-01  0.0000000E+00
 0.4610000E-01  0.0000000E+00
 0.4720000E-01  0.0000000E+00
 0.4830000E-01  0.0000000E+00
 0.4940000E-01  0.0000000E+00
 0.5050000E-01  0.0000000E+00
 0.5160000E-01  0.0000000E+00
 0.5270000E-01  0.0000000E+00
 0.5380000E-01  0.0000000E+00
 0.5490000E-01  0.0000000E+00
 0.5600000E-01  0.0000000E+00
 0.5710000E-01  0.0000000E+00
 0.5820000E-01  0.0000000E+00
 0.5930000E-01  0.0000000E+00
 0.6040000E-01  0.0000000E+00
 0.6150000E-01  0.0000000E+00
 0.6260000E-01  0.0000000E+00
 0.6370000E-01  0.0000000E+00
 0.6480000E-01  0.0000000E+00
 0.6590000E-01  0.0000000E+00
 0.6700000E-01  0.0000000E+00
 0.6810000E-01  0.0000000E+00
 0.6920000E-01  0.0000000E+00
 0.7030000E-01  0.0000000E+00
 0.7140000E-01  0.0000000E+00
 0.7250000E-01  0.0000000E+00
 0.7360000E-01  0.0000000E+00
 0.7470000E-01  0.0000000E+00
 0.7580000E-01  0.0000000E+00
 0.7690000E-01  0.0000000E+00
 0.7800000E-01  0.0000000E+00
 0.7910000E-01  0.0000000E+00
 0.8020000E-01  0.0000000E+00
 0.8130000E-01  0.0000000E+00
 0.8240000E-01  0.0000000E+00
 0.8350000E-01  0.0000000E+00
 0.8460000E-01  0.0000000E+00
 0.8570000E-01  0.0000000E+00
 0.8680000E-01  0.0000000E+00
 0.8790000E-01  0.0000000E+00
 0.8900000E-01  0.0000000E+00
 0.9010000E-01  0.0000000E+00
 0.9120000E-01  0.0000000E+00
 0.9230000E-01  0.0000000E+00
 0.9340000E-01  0.0000000E+00
 0.9450000E-01  0.0000000E+00
 0.9560000E-01  0.0000000E+00
 0.9670000E-01  0.0000000E+00
 0.9780000E-01  0.0000000E+00
 0.9890000E-01  0.0000000E+00
 0.1000000E+00  0.0000000E+00
 0.1011000E+00  0.0000000E+00
 0.1022000E+00  0.0000000E+00
 0.1033000E+00  0.0000000E+00
 0.1044000E+00  0.0000000E+00
 0.1055000E+00 -0.0000000E+00
 0.1066000E+00 -0.0000000E+00
 0.1077000E+00  0.0000000E+00
 0.1088000E+00  0.0000000E+00
 0.1099000E+00  0.0000000E+00
 0.1110000E+00  0.0000000E+00
 0.1121000E+00 -0.0000000E+00
 0.1132000E+00 -0.0000000E+00
 0.1143000E+00 -0.3905322E-37
 0.1154000E+00 -0.1407990E-37
 0.1165000E+00  0.9784254E-37
 0.1176000E+00  0.2687666E-36
 0.1187000E+00  0.3958456E-36
 0.1198000E+00  0.3292253E-36
 0.1209000E+00 -0.2450698E-37
 0.1220000E+00 -0.6024873E-36
 0.1231000E+00 -0.1166414E-35
 0.1242000E+00 -0.1322973E-35
 0.1253000E+00 -0.6712989E-36
 0.1264000E+00  0.9127742E-36
 0.1275000E+00  0.3040797E-35
 0.1286000E+00  0.4682671E-35
 0.1297000E+00  0.4441249E-35
 0.1308000E+00  0.1184533E-35
 0.1319000E+00 -0.4999453E-35
 0.1330000E+00 -0.1212446E-34
 0.1341000E+00 -0.1632414E-34
 0.1352000E+00 -0.1309083E-34
 0.1363000E+00  0.3059787E-36
 0.1374000E+00  0.2198572E-34
 0.1385000E+00  0.4377061E-34
 0.1396000E+00  0.5236446E-34
 0.1407000E+00  0.3444455E-34
 0.1418000E+00 -0.1515285E-34
 0.1429000E+00 -0.8538249E-34
 0.1440000E+00 -0.1461312E-33
 0.1451000E+00 -0.1553642E-33
 0.1462000E+00 -0.7769526E-34
 0.1473000E+00  0.9041625E-34
 0.1484000E+00  0.3004508E-33
 0.1495000E+00  0.4516742E-33
 0.1506000E+00  0.4223174E-33
 0.1517000E+00  0.1305439E-33
 0.1528000E+00 -0.3952170E-33
 0.1539000E+00 -0.9736813E-33
 0.1550000E+00 -0.1296167E-32
 0.1561000E+00 -0.1040944E-32
 0.1572000E+00 -0.5515294E-34
 0.1583000E+00  0.1468418E-32
 0.1594000E+00  0.2926778E-32
 0.1605000E+00  0.3449580E-32
 0.1616000E+00  0.2270028E-32
 0.1627000E+00 -0.7796067E-33
 0.1638000E+00 -0.4875926E-32
 0.1649000E+00 -0.8195220E-32
 0.1660000E+00 -0.8478568E-32
 0.1671000E+00 -0.4119715E-32
 0.1682000E+00  0.4605009E-32
 0.1693000E+00  0.1480845E-31
 0.1704000E+00  0.2142148E-31
 0.1715000E+00  0.1907001E-31
 0.1726000E+00  0.4989669E-32
 0.1737000E+00 -0.1821859E-31
 0.1748000E+00 -0.4164071E-31
 0.1759000E+00 -0.5226377E-31
 0.1770000E+00 -0.3850040E-31
 0.1781000E+00  0.2654599E-32
 0.1792000E+00  0.6018278E-31
 0.1803000E+00  0.1091464E-30
 0.1814000E+00  0.1186757E-30
 0.1825000E+00  0.6670926E-31
 0.1836000E+00 -0.4394791E-31
 0.1847000E+00 -0.1767237E-30
 0.1858000E+00 -0.2675331E-30
 0.1869000E+00 -0.2489830E-30
 0.1880000E+00 -0.8639456E-31
 0.1891000E+00  0.1896298E-30
 0.1902000E+00  0.4736487E-30
 0.1913000E+00  0.6134331E-30
 0.1924000E+00  0.4751108E-30
 0.1935000E+00  0.2404198E-31
 0.1946000E+00 -0.6171053E-30
 0.1957000E+00 -0.1174077E-29
 0.1968000E+00 -0.1312192E-29
 0.1979000E+00 -0.7957520E-30
 0.1990000E+00  0.3457007E-30
 0.2001000E+00  0.1732814E-29
 0.2012000E+00  0.2710652E-29
 0.2023000E+00  0.2600674E-29
 0.2034000E+00  0.1059199E-29
 0.2045000E+00 -0.1613450E-29
 0.2056000E+00 -0.4399196E-29
 0.2067000E+00 -0.5849629E-29
 0.2078000E+00 -0.4709564E-29
 0.2089000E+00 -0.6603711E-30
 0.2100000E+00  0.5175446E-29
 0.2111000E+00  0.1032497E-28
 0.2122000E+00  0.1181175E-28
 0.2133000E+00  0.7568527E-29
 0.2144000E+00 -0.2145003E-29
 0.2155000E+00 -0.1407658E-28
 0.2166000E+00 -0.2268180E-28
 0.2177000E+00 -0.2228296E-28
 0.2188000E+00 -0.1003076E-28
 0.2199000E+00  0.1163473E-28
 0.2210000E+00  0.3449758E-28
 0.2221000E+00  0.4696823E-28
 0.2232000E+00  0.3905963E-28
 0.2243000E+00  0.8157302E-29
 0.2254000E+00 -0.3719583E-28
 0.2265000E+00 -0.7813263E-28
 0.2276000E+00 -0.9196384E-28
 0.2287000E+00 -0.6276063E-28
 0.2298000E+00  0.8212148E-29
 0.2309000E+00  0.9769689E-28
 0.2320000E+00  0.1655418E-27
 0.2331000E+00  0.1701342E-27
 0.2342000E+00  0.8937336E-28
 0.2353000E+00 -0.6195643E-28
 0.2364000E+00 -0.2284696E-27
 0.2375000E+00 -0.3301721E-27
 0.2386000E+00 -0.2958757E-27
 0.2397000E+00 -0.1021086E-27
 0.2408000E+00  0.2007554E-27
 0.2419000E+00  0.4922594E-27
 0.2430000E+00  0.6223454E-27
 0.2441000E+00  0.4786314E-27
 0.2452000E+00  0.5405626E-28
 0.2463000E+00 -0.5192918E-27
 0.2474000E+00 -0.9969154E-27
 0.2485000E+00 -0.1112861E-26
 0.2496000E+00 -0.7071015E-27
 0.2507000E+00  0.1645790E-27
 0.2518000E+00  0.1198248E-26
 0.2529000E+00  0.1924694E-26
 0.2540000E+00  0.1897675E-26
 0.2551000E+00  0.9222783E-27
 0.2562000E+00 -0.7795468E-27
 0.2573000E+00 -0.2565625E-26
 0.2584000E+00 -0.3577527E-26
 0.2595000E+00 -0.3106110E-26
 0.2606000E+00 -0.9807411E-27
 0.2617000E+00  0.2203581E-26
 0.2628000E+00  0.5175379E-26
 0.2639000E+00  0.6430548E-26
 0.2650000E+00  0.4905015E-26
 0.2661000E+00  0.6060955E-27
 0.2672000E+00 -0.5115779E-26
 0.2683000E+00 -0.9877881E-26
 0.2694000E+00 -0.1115363E-25
 0.2705000E+00 -0.7452002E-26
 0.2716000E+00  0.7101116E-27
 0.2727000E+00  0.1056192E-25
 0.2738000E+00  0.1785346E-25
 0.2749000E+00  0.1852456E-25
 0.2760000E+00  0.1068147E-25
 0.2771000E+00 -0.3991388E-26
 0.2782000E+00 -0.2019148E-25
 0.2793000E+00 -0.3066830E-25
 0.2804000E+00 -0.2920397E-25
 0.2815000E+00 -0.1378809E-25
 0.2826000E+00  0.1147664E-25
 0.2837000E+00  0.3692940E-25
 0.2848000E+00  0.5065893E-25
 0.2859000E+00  0.4361573E-25
 0.2870000E+00  0.1451558E-25
 0.2881000E+00 -0.2782697E-25
 0.2892000E+00 -0.6640393E-25
 0.2903000E+00 -0.8219489E-25
 0.2914000E+00 -0.6265649E-25
 0.2925000E+00 -0.9040317E-26
 0.2936000E+00  0.6114398E-25
 0.2947000E+00  0.1187245E-24
 0.2958000E+00  0.1338998E-24
 0.2969000E+00  0.8995500E-25
 0.2980000E+00 -0.6136014E-26
 0.2991000E+00 -0.1217911E-24
 0.3002000E+00 -0.2082950E-24
 0.3013000E+00 -0.2196822E-24
 0.3024000E+00 -0.1342984E-24
 0.3035000E+00  0.3028480E-25
 0.3046000E+00  0.2171582E-24
 0.3057000E+00  0.3477783E-24
 0.3068000E+00  0.3529611E-24
 0.3079000E+00  0.2057087E-24
 0.3090000E+00 -0.5863242E-25
 0.3101000E+00 -0.3463934E-24
 0.3112000E+00 -0.5365100E-24
 0.3123000E+00 -0.5293996E-24
 0.3134000E+00 -0.2950582E-24
 0.3145000E+00  0.1014282E-24
 0.3156000E+00  0.5125066E-24
 0.3167000E+00  0.7600181E-24
 0.3178000E+00  0.7098431E-24
 0.3189000E+00  0.3396294E-24
 0.3200000E+00 -0.2322559E-24
 0.3211000E+00 -0.7765045E-24
 0.3222000E+00 -0.1038255E-23
 0.3233000E+00 -0.8491995E-24
 0.3244000E+00 -0.2202523E-24
 0.3255000E+00  0.6308414E-24
 0.3266000E+00  0.1341281E-23
 0.3277000E+00  0.1542659E-23
 0.3288000E+00  0.1029170E-23
 0.3299000E+00 -0.1160821E-24
 0.3310000E+00 -0.1501288E-23
 0.3321000E+00 -0.2541124E-23
 0.3332000E+00 -0.2680344E-23
 0.3343000E+00 -0.1646297E-23
 0.3354000E+00  0.3757742E-24
 0.3365000E+00  0.2735191E-23
 0.3376000E+00  0.4508428E-23
 0.3387000E+00  0.4842378E-23
 0.3398000E+00  0.3325288E-23
 0.3409000E+00  0.2309006E-24
 0.3420000E+00 -0.3487867E-23
 0.3431000E+00 -0.6490190E-23
 0.3442000E+00 -0.7540615E-23
 0.3453000E+00 -0.6022996E-23
 0.3464000E+00 -0.2259957E-23
 0.3475000E+00  0.2522219E-23
 0.3486000E+00  0.6611050E-23
 0.3497000E+00  0.8473149E-23
 0.3508000E+00  0.7407568E-23
 0.3519000E+00  0.3899951E-23
 0.3530000E+00 -0.5137935E-24
 0.3541000E+00 -0.3871157E-23
 0.3552000E+00 -0.4670698E-23
 0.3563000E+00 -0.2649048E-23
 0.3574000E+00  0.9318232E-24
 0.3585000E+00  0.3699410E-23
 0.3596000E+00  0.3210393E-23
 0.3607000E+00 -0.1763602E-23
 0.3618000E+00 -0.1026405E-22
 0.3629000E+00 -0.1900701E-22
 0.3640000E+00 -0.2331810E-22
 0.3651000E+00 -0.1894573E-22
 0.3662000E+00 -0.4132196E-23
 0.3673000E+00  0.1890762E-22
 0.3684000E+00  0.4385319E-22
 0.3695000E+00  0.6181164E-22
 0.3706000E+00  0.6420246E-22
 0.3717000E+00  0.4607578E-22
 0.3728000E+00  0.8633705E-23
 0.3739000E+00 -0.4013250E-22
 0.3750000E+00 -0.8717776E-22
 0.3761000E+00 -0.1181371E-21
 0.3772000E+00 -0.1218809E-21
 0.3783000E+00 -0.9430362E-22
 0.3794000E+00 -0.3994085E-22
 0.3805000E+00  0.2923411E-22
 0.3816000E+00  0.9742666E-22
 0.3827000E+00  0.1496993E-21
 0.3838000E+00  0.1759393E-21
 0.3849000E+00  0.1726548E-21
 0.3860000E+00  0.1421025E-21
 0.3871000E+00  0.8946826E-22
 0.3882000E+00  0.1977533E-22
 0.3893000E+00 -0.6361331E-22
 0.3904000E+00 -0.1577614E-21
 0.3915000E+00 -0.2564938E-21
 0.3926000E+00 -0.3461442E-21
 0.3937000E+00 -0.4034800E-21
 0.3948000E+00 -0.3982990E-21
 0.3959000E+00 -0.3016068E-21
 0.3970000E+00 -0.9785166E-22
 0.3981000E+00  0.2026766E-21
 0.3992000E+00  0.5564120E-21
 0.4003000E+00  0.8885357E-21
 0.4014000E+00  0.1106339E-20
 0.4025000E+00  0.1121960E-20
 0.4036000E+00  0.8787742E-21
 0.4047000E+00  0.3735181E-21
 0.4058000E+00 -0.3333342E-21
 0.4069000E+00 -0.1123296E-20
 0.4080000E+00 -0.1841150E-20
 0.4091000E+00 -0.2326313E-20
 0.4102000E+00 -0.2445768E-20
 0.4113000E+00 -0.2120078E-20
 0.4124000E+00 -0.1337187E-20
 0.4135000E+00 -0.1537063E-21
 0.4146000E+00  0.1311957E-20
 0.4157000E+00  0.2888338E-20
 0.4168000E+00  0.4357053E-20
 0.4179000E+00  0.5457165E-20
 0.4190000E+00  0.5895072E-20
 0.4201000E+00  0.5371456E-20
 0.4212000E+00  0.3635797E-20
 0.4223000E+00  0.5709824E-21
 0.4234000E+00 -0.3703196E-20
 0.4245000E+00 -0.8734638E-20
 0.4256000E+00 -0.1369052E-19
 0.4267000E+00 -0.1739696E-19
 0.4278000E+00 -0.1849654E-19
 0.4289000E+00 -0.1572748E-19
 0.4300000E+00 -0.8293153E-20
 0.4311000E+00  0.3747831E-20
 0.4322000E+00  0.1917030E-19
 0.4333000E+00  0.3546118E-19
 0.4344000E+00  0.4898562E-19
 0.4355000E+00  0.5549605E-19
 0.4366000E+00  0.5097121E-19
 0.4377000E+00  0.3268763E-19
 0.4388000E+00  0.3382095E-21
 0.4399000E+00 -0.4305922E-19
 0.4410000E+00 -0.9075565E-19
 0.4421000E+00 -0.1326375E-18
 0.4432000E+00 -0.1565435E-18
 0.4443000E+00 -0.1505411E-18
 0.4454000E+00 -0.1059386E-18
 0.4465000E+00 -0.2054657E-19
 0.4476000E+00  0.9853225E-19
 0.4487000E+00  0.2334536E-18
 0.4498000E+00  0.3563590E-18
 0.4509000E+00  0.4328667E-18
 0.4520000E+00  0.4284119E-18
 0.4531000E+00  0.3168251E-18
 0.4542000E+00  0.8974364E-19
 0.4553000E+00 -0.2352488E-18
 0.4564000E+00 -0.6102563E-18
 0.4575000E+00 -0.9588660E-18
 0.4586000E+00 -0.1185721E-17
 0.4597000E+00 -0.1194040E-17
 0.4608000E+00 -0.9093014E-18
 0.4619000E+00 -0.3051602E-18
 0.4630000E+00  0.5741658E-18
 0.4641000E+00  0.1601762E-17
 0.4652000E+00  0.2572461E-17
 0.4663000E+00  0.3228061E-17
 0.4674000E+00  0.3303741E-17
 0.4685000E+00  0.2590971E-17
 0.4696000E+00  0.1006759E-17
 0.4707000E+00 -0.1345671E-17
 0.4718000E+00 -0.4142208E-17
 0.4729000E+00 -0.6845750E-17
 0.4740000E+00 -0.8768111E-17
 0.4751000E+00 -0.9187937E-17
 0.4762000E+00 -0.7513881E-17
 0.4773000E+00 -0.3468153E-17
 0.4784000E+00  0.2746936E-17
 0.4795000E+00  0.1034427E-16
 0.4806000E+00  0.1795312E-16
 0.4817000E+00  0.2375885E-16
 0.4828000E+00  0.2579124E-16
 0.4839000E+00  0.2233999E-16
 0.4850000E+00  0.1243950E-16
 0.4861000E+00 -0.3668496E-17
 0.4872000E+00 -0.2420879E-16
 0.4883000E+00 -0.4580066E-16
 0.4894000E+00 -0.6373485E-16
 0.4905000E+00 -0.7264327E-16
 0.4916000E+00 -0.6752869E-16
 0.4927000E+00 -0.4502988E-16
 0.4938000E+00 -0.4706749E-17
 0.4949000E+00  0.4993971E-16
 0.4960000E+00  0.1110236E-15
 0.4971000E+00  0.1666821E-15
 0.4982000E+00  0.2025037E-15
 0.4993000E+00  0.2039678E-15
 0.5004000E+00  0.1596616E-15
 0.5015000E+00  0.6479837E-16
 0.5026000E+00 -0.7564796E-16
 0.5037000E+00 -0.2449960E-15
 0.5048000E+00 -0.4148831E-15
 0.5059000E+00 -0.5478550E-15
 0.5070000E+00 -0.6027302E-15
 0.5081000E+00 -0.5424161E-15
 0.5092000E+00 -0.3432313E-15
 0.5103000E+00 -0.4187099E-17
 0.5114000E+00  0.4457676E-15
 0.5125000E+00  0.9446908E-15
 0.5136000E+00  0.1400686E-14
 0.5147000E+00  0.1702213E-14
 0.5158000E+00  0.1735683E-14
 0.5169000E+00  0.1408815E-14
 0.5180000E+00  0.6765952E-15
 0.5191000E+00 -0.4347704E-15
 0.5202000E+00 -0.1811486E-14
 0.5213000E+00 -0.3248995E-14
 0.5224000E+00 -0.4466567E-14
 0.5235000E+00 -0.5141916E-14
 0.5246000E+00 -0.4964695E-14
 0.5257000E+00 -0.3703588E-14
 0.5268000E+00 -0.1277409E-14
 0.5279000E+00  0.2182911E-14
 0.5290000E+00  0.6296560E-14
 0.5301000E+00  0.1043392E-13
 0.5312000E+00  0.1376759E-13
 0.5323000E+00  0.1537784E-13
 0.5334000E+00  0.1440743E-13
 0.5345000E+00  0.1024978E-13
 0.5356000E+00  0.2743380E-14
 0.5367000E+00 -0.7663748E-14
 0.5378000E+00 -0.1981986E-13
 0.5389000E+00 -0.3188402E-13
 0.5400000E+00 -0.4147765E-13
 0.5411000E+00 -0.4598328E-13
 0.5422000E+00 -0.4297557E-13
 0.5433000E+00 -0.3074044E-13
 0.5444000E+00 -0.8809437E-14
 0.5455000E+00  0.2158673E-13
 0.5466000E+00  0.5725308E-13
 0.5477000E+00  0.9305569E-13
 0.5488000E+00  0.1223144E-12
 0.5499000E+00  0.1375931E-12
 0.5510000E+00  0.1318526E-12
 0.5521000E+00  0.9985798E-13
 0.5532000E+00  0.3965318E-13
 0.5543000E+00 -0.4614289E-13
 0.5554000E+00 -0.1495022E-12
 0.5565000E+00 -0.2568898E-12
 0.5576000E+00 -0.3501219E-12
 0.5587000E+00 -0.4082855E-12
 0.5598000E+00 -0.4106721E-12
 0.5609000E+00 -0.3404833E-12
 0.5620000E+00 -0.1888714E-12
 0.5631000E+00  0.4129372E-13
 0.5642000E+00  0.3326547E-12
 0.5653000E+00  0.6523321E-12
 0.5664000E+00  0.9532604E-12
 0.5675000E+00  0.1178292E-11
 0.5686000E+00  0.1267110E-11
 0.5697000E+00  0.1165515E-11
 0.5708000E+00  0.8361783E-12
 0.5719000E+00  0.2694400E-12
 0.5730000E+00 -0.5075887E-12
 0.5741000E+00 -0.1425556E-11
 0.5752000E+00 -0.2372840E-11
 0.5763000E+00 -0.3202352E-11
 0.5774000E+00 -0.3745804E-11
 0.5785000E+00 -0.3835056E-11
 0.5796000E+00 -0.3328950E-11
 0.5807000E+00 -0.2142750E-11
 0.5818000E+00 -0.2762901E-12
 0.5829000E+00  0.2163898E-11
 0.5840000E+00  0.4953330E-11
 0.5851000E+00  0.7753576E-11
 0.5862000E+00  0.1013461E-10
 0.5873000E+00  0.1161659E-10
 0.5884000E+00  0.1172938E-10
 0.5895000E+00  0.1008539E-10
 0.5906000E+00  0.6457951E-11
 0.5917000E+00  0.8552338E-12
 0.5928000E+00 -0.6422104E-11
 0.5939000E+00 -0.1475159E-10
 0.5950000E+00 -0.2319861E-10
 0.5961000E+00 -0.3057271E-10
 0.5972000E+00 -0.3553314E-10
 0.5983000E+00 -0.3674010E-10
 0.5994000E+00 -0.3304119E-10
 0.6005000E+00 -0.2367518E-10
 0.6016000E+00 -0.8469685E-11
 0.6027000E+00  0.1199541E-10
 0.6038000E+00  0.3628755E-10
 0.6049000E+00  0.6211096E-10
 0.6060000E+00  0.8640627E-10
 0.6071000E+00  0.1055706E-09
 0.6082000E+00  0.1157954E-09
 0.6093000E+00  0.1135031E-09
 0.6104000E+00  0.9584924E-10
 0.6115000E+00  0.6124089E-10
 0.6126000E+00  0.9811908E-11
 0.6137000E+00 -0.5621097E-10
 0.6148000E+00 -0.1323154E-09
 0.6159000E+00 -0.2117404E-09
 0.6170000E+00 -0.2857822E-09
 0.6181000E+00 -0.3443843E-09
 0.6192000E+00 -0.3769986E-09
 0.6203000E+00 -0.3736714E-09
 0.6214000E+00 -0.3262778E-09
 0.6225000E+00 -0.2297988E-09
 0.6236000E+00 -0.8351749E-10
 0.6247000E+00  0.1080039E-09
 0.6258000E+00  0.3342945E-09
 0.6269000E+00  0.5788127E-09
 0.6280000E+00  0.8193347E-09
 0.6291000E+00  0.1028941E-08
 0.6302000E+00  0.1177592E-08
 0.6313000E+00  0.1234243E-08
 0.6324000E+00  0.1169378E-08
 0.6335000E+00  0.9578117E-09
 0.6346000E+00  0.5815835E-09
 0.6357000E+00  0.3272322E-10
 0.6368000E+00 -0.6842902E-09
 0.6379000E+00 -0.1550556E-08
 0.6390000E+00 -0.2531381E-08
 0.6401000E+00 -0.3575575E-08
 0.6412000E+00 -0.4615375E-08
 0.6423000E+00 -0.5566904E-08
 0.6434000E+00 -0.6330952E-08
 0.6445000E+00 -0.6793800E-08
 0.6456000E+00 -0.6827729E-08
 0.6467000E+00 -0.6290794E-08
 0.6478000E+00 -0.5025427E-08
 0.6489000E+00 -0.2855366E-08
 0.6500000E+00  0.4195311E-09
 0.6511000E+00  0.5031057E-08
 0.6522000E+00  0.1125346E-07
 0.6533000E+00  0.1941767E-07
 0.6544000E+00  0.2992937E-07
 0.6555000E+00  0.4329132E-07
 0.6566000E+00  0.6013028E-07
 0.6577000E+00  0.8122909E-07
 0.6588000E+00  0.1075643E-06
 0.6599000E+00  0.1403501E-06
 0.6610000E+00  0.1810890E-06
 0.6621000E+00  0.2316308E-06
 0.6632000E+00  0.2942396E-06
 0.6643000E+00  0.3716718E-06
 0.6654000E+00  0.4672655E-06
 0.6665000E+00  0.5850418E-06
 0.6676000E+00  0.7298224E-06
 0.6687000E+00  0.9073621E-06
 0.6698000E+00  0.1124500E-05
 0.6709000E+00  0.1389332E-05
 0.6720000E+00  0.1711402E-05
 0.6731000E+00  0.2101919E-05
 0.6742000E+00  0.2573998E-05
 0.6753000E+00  0.3142926E-05
 0.6764000E+00  0.3826454E-05
 0.6775000E+00  0.4645121E-05
 0.6786000E+00  0.5622590E-05
 0.6797000E+00  0.6786022E-05
 0.6808000E+00  0.8166464E-05
 0.6819000E+00  0.9799254E-05
 0.6830000E+00  0.1172445E-04
 0.6841000E+00  0.1398726E-04
 0.6852000E+00  0.1663845E-04
 0.6863000E+00  0.1973481E-04
 0.6874000E+00  0.2333949E-04
 0.6885000E+00  0.2752244E-04
 0.6896000E+00  0.3236063E-04
 0.6907000E+00  0.3793840E-04
 0.6918000E+00  0.4434759E-04
 0.6929000E+00  0.5168760E-04
 0.6940000E+00  0.6006535E-04
 0.6951000E+00  0.6959509E-04
 0.6962000E+00  0.8039799E-04
 0.6973000E+00  0.9260159E-04
 0.6984000E+00  0.1063390E-03
 0.6995000E+00  0.1217479E-03
 0.7006000E+00  0.1389691E-03
 0.7017000E+00  0.1581453E-03
 0.7028000E+00  0.1794188E-03
 0.7039000E+00  0.2029294E-03
 0.7050000E+00  0.2288119E-03
 0.7061000E+00  0.2571935E-03
 0.7072000E+00  0.2881901E-03
 0.7083000E+00  0.3219031E-03
 0.7094000E+00  0.3584155E-03
 0.7105000E+00  0.3977881E-03
 0.7116000E+00  0.4400547E-03
 0.7127000E+00  0.4852183E-03
 0.7138000E+00  0.5332459E-03
 0.7149000E+00  0.5840647E-03
 0.7160000E+00  0.6375571E-03
 0.7171000E+00  0.6935566E-03
 0.7182000E+00  0.7518436E-03
 0.7193000E+00  0.8121421E-03
 0.7204000E+00  0.8741161E-03
 0.7215000E+00  0.9373674E-03
 0.7226000E+00  0.1001434E-02
 0.7237000E+00  0.1065789E-02
 0.7248000E+00  0.1129841E-02
 0.7259000E+00  0.1192935E-02
 0.7270000E+00  0.1254355E-02
 0.7281000E+00  0.1313329E-02
 0.7292000E+00  0.1369031E-02
 0.7303000E+00  0.1420592E-02
 0.7314000E+00  0.1467103E-02
 0.7325000E+00  0.1507630E-02
 0.7336000E+00  0.1541219E-02
 0.7347000E+00  0.1566912E-02
 0.7358000E+00  0.1583757E-02
 0.7369000E+00  0.1590825E-02
 0.7380000E+00  0.1587223E-02
 0.7391000E+00  0.1572110E-02
 0.7402000E+00  0.1544713E-02
 0.7413000E+00  0.1504344E-02
 0.7424000E+00  0.1450412E-02
 0.7435000E+00  0.1382441E-02
 0.7446000E+00  0.1300085E-02
 0.7457000E+00  0.1203137E-02
 0.7468000E+00  0.1091546E-02
 0.7479000E+00  0.9654238E-03
 0.7490000E+00  0.8250526E-03
 0.7501000E+00  0.6708909E-03
 0.7512000E+00  0.5035762E-03
 0.7523000E+00  0.3239245E-03
 0.7534000E+00  0.1329272E-03
 0.7545000E+00 -0.6825360E-04
 0.7556000E+00 -0.2782944E-03
 0.7567000E+00 -0.4957214E-03
 0.7578000E+00 -0.7189253E-03
 0.7589000E+00 -0.9461788E-03
 0.7600000E+00 -0.1175656E-02
 0.7611000E+00 -0.1405456E-02
 0.7622000E+00 -0.1633621E-02
 0.7633000E+00 -0.1858170E-02
 0.7644000E+00 -0.2077114E-02
 0.7655000E+00 -0.2288490E-02
 0.7666000E+00 -0.2490384E-02
 0.7677000E+00 -0.2680960E-02
 0.7688000E+00 -0.2858481E-02
 0.7699000E+00 -0.3021338E-02
 0.7710000E+00 -0.3168070E-02
 0.7721000E+00 -0.3297381E-02
 0.7732000E+00 -0.3408160E-02
 0.7743000E+00 -0.3499495E-02
 0.7754000E+00 -0.3570684E-02
 0.7765000E+00 -0.3621245E-02
 0.7776000E+00 -0.3650915E-02
 0.7787000E+00 -0.3659659E-02
 0.7798000E+00 -0.3647663E-02
 0.7809000E+00 -0.3615327E-02
 0.7820000E+00 -0.3563262E-02
 0.7831000E+00 -0.3492270E-02
 0.7842000E+00 -0.3403335E-02
 0.7853000E+00 -0.3297606E-02
 0.7864000E+00 -0.3176375E-02
 0.7875000E+00 -0.3041058E-02
 0.7886000E+00 -0.2893172E-02
 0.7897000E+00 -0.2734316E-02
 0.7908000E+00 -0.2566143E-02
 0.7919000E+00 -0.2390338E-02
 0.7930000E+00 -0.2208598E-02
 0.7941000E+00 -0.2022608E-02
 0.7952000E+00 -0.1834019E-02
 0.7963000E+00 -0.1644431E-02
 0.7974000E+00 -0.1455374E-02
 0.7985000E+00 -0.1268294E-02
 0.7996000E+00 -0.1084540E-02
 0.8007000E+00 -0.9053489E-03
 0.8018000E+00 -0.7318416E-03
 0.8029000E+00 -0.5650114E-03
 0.8040000E+00 -0.4057215E-03
 0.8051000E+00 -0.2547025E-03
 0.8062000E+00 -0.1125531E-03
 0.8073000E+00  0.2025829E-04
 0.8084000E+00  0.1433890E-03
 0.8095000E+00  0.2566178E-03
 0.8106000E+00  0.3598382E-03
 0.8117000E+00  0.4530519E-03
 0.8128000E+00  0.5363597E-03
 0.8139000E+00  0.6099521E-03
 0.8150000E+00  0.6740987E-03
 0.8161000E+00  0.7291379E-03
 0.8172000E+00  0.7754661E-03
 0.8183000E+00  0.8135281E-03
 0.8194000E+00  0.8438070E-03
 0.8205000E+00  0.8668159E-03
 0.8216000E+00  0.8830884E-03
 0.8227000E+00  0.8931704E-03
 0.8238000E+00  0.8976119E-03
 0.8249000E+00  0.8969597E-03
 0.8260000E+00  0.8917510E-03
 0.8271000E+00  0.8825081E-03
 0.8282000E+00  0.8697342E-03
 0.8293000E+00  0.8539098E-03
 0.8304000E+00  0.8354901E-03
 0.8315000E+00  0.8149027E-03
 0.8326000E+00  0.7925454E-03
 0.8337000E+00  0.7687857E-03
 0.8348000E+00  0.7439594E-03
 0.8359000E+00  0.7183712E-03
 0.8370000E+00  0.6922946E-03
 0.8381000E+00  0.6659733E-03
 0.8392000E+00  0.6396226E-03
 0.8403000E+00  0.6134306E-03
 0.8414000E+00  0.5875604E-03
 0.8425000E+00  0.5621509E-03
 0.8436000E+00  0.5373189E-03
 0.8447000E+00  0.5131604E-03
 0.8458000E+00  0.4897523E-03
 0.8469000E+00  0.4671548E-03
 0.8480000E+00  0.4454129E-03
 0.8491000E+00  0.4245592E-03
 0.8502000E+00  0.4046153E-03
 0.8513000E+00  0.3855930E-03
 0.8524000E+00  0.3674960E-03
 0.8535000E+00  0.3503203E-03
 0.8546000E+00  0.3340559E-03
 0.8557000E+00  0.3186879E-03
 0.8568000E+00  0.3041978E-03
 0.8579000E+00  0.2905651E-03
 0.8590000E+00  0.2777679E-03
 0.8601000E+00  0.2657835E-03
 0.8612000E+00  0.2545885E-03
 0.8623000E+00  0.2441591E-03
 0.8634000E+00  0.2344713E-03
 0.8645000E+00  0.2255011E-03
 0.8656000E+00  0.2172254E-03
 0.8667000E+00  0.2096218E-03
 0.8678000E+00  0.2026689E-03
 0.8689000E+00  0.1963459E-03
 0.8700000E+00  0.1906315E-03
 0.8711000E+00  0.1855038E-03
 0.8722000E+00  0.1809394E-03
 0.8733000E+00  0.1769134E-03
 0.8744000E+00  0.1733992E-03
 0.8755000E+00  0.1703680E-03
 0.8766000E+00  0.1677887E-03
 0.8777000E+00  0.1656271E-03
 0.8788000E+00  0.1638450E-03
 0.8799000E+00  0.1623998E-03
 0.8810000E+00  0.1612439E-03
 0.8821000E+00  0.1603252E-03
 0.8832000E+00  0.1595865E-03
 0.8843000E+00  0.1589666E-03
 0.8854000E+00  0.1584000E-03
 0.8865000E+00  0.1578173E-03
 0.8876000E+00  0.1571455E-03
 0.8887000E+00  0.1563081E-03
 0.8898000E+00  0.1552262E-03
 0.8909000E+00  0.1538190E-03
 0.8920000E+00  0.1520055E-03
 0.8931000E+00  0.1497052E-03
 0.8942000E+00  0.1468396E-03
 0.8953000E+00  0.1433334E-03
 0.8964000E+00  0.1391152E-03
 0.8975000E+00  0.1341189E-03
 0.8986000E+00  0.1282845E-03
 0.8997000E+00  0.1215589E-03
 0.9008000E+00  0.1138974E-03
 0.9019000E+00  0.1052642E-03
 0.9030000E+00  0.9563295E-04
 0.9041000E+00  0.8498770E-04
 0.9052000E+00  0.7332264E-04
 0.9063000E+00  0.6064229E-04
 0.9074000E+00  0.4696123E-04
 0.9085000E+00  0.3230359E-04
 0.9096000E+00  0.1670222E-04
 0.9107000E+00  0.1976029E-06
 0.9118000E+00 -0.1716349E-04
 0.9129000E+00 -0.3532955E-04
 0.9140000E+00 -0.5424591E-04
 0.9151000E+00 -0.7385669E-04
 0.9162000E+00 -0.9410681E-04
 0.9173000E+00 -0.1149445E-03
 0.9184000E+00 -0.1363239E-03
 0.9195000E+00 -0.1582080E-03
 0.9206000E+00 -0.1805721E-03
 0.9217000E+00 -0.2034060E-03
 0.9228000E+00 -0.2267174E-03
 0.9239000E+00 -0.2505345E-03
 0.9250000E+00 -0.2749082E-03
 0.9261000E+00 -0.2999152E-03
 0.9272000E+00 -0.3256610E-03
 0.9283000E+00 -0.3522827E-03
 0.9294000E+00 -0.3799519E-03
 0.9305000E+00 -0.4088766E-03
 0.9316000E+00 -0.4393028E-03
 0.9327000E+00 -0.4715158E-03
 0.9338000E+00 -0.5058401E-03
 0.9349000E+00 -0.5426405E-03
 0.9360000E+00 -0.5823211E-03
 0.9371000E+00 -0.6253254E-03
 0.9382000E+00 -0.6721353E-03
 0.9393000E+00 -0.7232677E-03
 0.9404000E+00 -0.7792718E-03
 0.9415000E+00 -0.8407235E-03
 0.9426000E+00 -0.9082201E-03
 0.9437000E+00 -0.9823730E-03
 0.9448000E+00 -0.1063800E-02
 0.9459000E+00 -0.1153118E-02
 0.9470000E+00 -0.1250930E-02
 0.9481000E+00 -0.1357818E-02
 0.9492000E+00 -0.1474326E-02
 0.9503000E+00 -0.1600952E-02
 0.9514000E+00 -0.1738123E-02
 0.9525000E+00 -0.1886192E-02
 0.9536000E+00 -0.2045412E-02
 0.9547000E+00 -0.2215923E-02
 0.9558000E+00 -0.2397737E-02
 0.9569000E+00 -0.2590723E-02
 0.9580000E+00 -0.2794584E-02
 0.9591000E+00 -0.3008852E-02
 0.9602000E+00 -0.3232860E-02
 0.9613000E+00 -0.3465744E-02
 0.9624000E+00 -0.3706421E-02
 0.9635000E+00 -0.3953591E-02
 0.9646000E+00 -0.4205723E-02
 0.9657000E+00 -0.4461064E-02
 0.9668000E+00 -0.4717629E-02
 0.9679000E+00 -0.4973217E-02
 0.9690000E+00 -0.5225415E-02
 0.9701000E+00 -0.5471611E-02
 0.9712000E+00 -0.5709021E-02
 0.9723000E+00 -0.5934706E-02
 0.9734000E+00 -0.6145605E-02
 0.9745000E+00 -0.6338564E-02
 0.9756000E+00 -0.6510375E-02
 0.9767000E+00 -0.6657815E-02
 0.9778000E+00 -0.6777691E-02
 0.9789000E+00 -0.6866889E-02