 -2.400000000000000E-002    0.000000000000000E+000
 -2.387000000000000E-002    0.000000000000000E+000
 -2.374000000000000E-002    0.000000000000000E+000
 -2.361000000000000E-002    0.000000000000000E+000
 -2.348000000000000E-002    0.000000000000000E+000
 -2.335000000000000E-002    0.000000000000000E+000
 -2.322000000000000E-002    0.000000000000000E+000
 -2.309000000000000E-002    0.000000000000000E+000
 -2.296000000000000E-002    0.000000000000000E+000
 -2.283000000000000E-002    0.000000000000000E+000
 -2.270000000000000E-002    0.000000000000000E+000
 -2.257000000000000E-002    0.000000000000000E+000
 -2.244000000000000E-002    0.000000000000000E+000
 -2.231000000000000E-002    0.000000000000000E+000
 -2.218000000000000E-002    0.000000000000000E+000
 -2.205000000000000E-002    0.000000000000000E+000
 -2.192000000000000E-002    0.000000000000000E+000
 -2.179000000000000E-002    0.000000000000000E+000
 -2.166000000000000E-002    0.000000000000000E+000
 -2.153000000000000E-002    0.000000000000000E+000
 -2.140000000000000E-002    0.000000000000000E+000
 -2.127000000000000E-002    0.000000000000000E+000
 -2.114000000000000E-002    0.000000000000000E+000
 -2.101000000000000E-002    0.000000000000000E+000
 -2.088000000000000E-002    0.000000000000000E+000
 -2.075000000000000E-002    0.000000000000000E+000
 -2.062000000000000E-002    0.000000000000000E+000
 -2.049000000000000E-002    0.000000000000000E+000
 -2.036000000000000E-002    0.000000000000000E+000
 -2.023000000000000E-002    0.000000000000000E+000
 -2.010000000000000E-002    0.000000000000000E+000
 -1.997000000000000E-002    0.000000000000000E+000
 -1.984000000000000E-002    0.000000000000000E+000
 -1.971000000000000E-002    0.000000000000000E+000
 -1.958000000000000E-002    0.000000000000000E+000
 -1.945000000000000E-002    0.000000000000000E+000
 -1.932000000000000E-002    0.000000000000000E+000
 -1.919000000000000E-002    0.000000000000000E+000
 -1.906000000000000E-002    0.000000000000000E+000
 -1.893000000000000E-002    0.000000000000000E+000
 -1.880000000000000E-002    0.000000000000000E+000
 -1.867000000000000E-002    0.000000000000000E+000
 -1.854000000000000E-002    0.000000000000000E+000
 -1.841000000000000E-002    0.000000000000000E+000
 -1.828000000000000E-002    0.000000000000000E+000
 -1.815000000000000E-002    0.000000000000000E+000
 -1.802000000000000E-002    0.000000000000000E+000
 -1.789000000000000E-002    0.000000000000000E+000
 -1.776000000000000E-002    0.000000000000000E+000
 -1.763000000000000E-002    0.000000000000000E+000
 -1.750000000000000E-002    0.000000000000000E+000
 -1.737000000000000E-002    0.000000000000000E+000
 -1.724000000000000E-002    0.000000000000000E+000
 -1.711000000000000E-002    0.000000000000000E+000
 -1.698000000000000E-002    0.000000000000000E+000
 -1.685000000000000E-002    0.000000000000000E+000
 -1.672000000000000E-002    0.000000000000000E+000
 -1.659000000000000E-002    0.000000000000000E+000
 -1.646000000000000E-002    0.000000000000000E+000
 -1.633000000000000E-002    0.000000000000000E+000
 -1.620000000000000E-002    0.000000000000000E+000
 -1.607000000000000E-002    0.000000000000000E+000
 -1.594000000000000E-002    0.000000000000000E+000
 -1.581000000000000E-002    0.000000000000000E+000
 -1.568000000000000E-002    0.000000000000000E+000
 -1.555000000000000E-002    0.000000000000000E+000
 -1.542000000000000E-002    0.000000000000000E+000
 -1.529000000000000E-002    0.000000000000000E+000
 -1.516000000000000E-002    0.000000000000000E+000
 -1.503000000000000E-002    0.000000000000000E+000
 -1.490000000000000E-002    0.000000000000000E+000
 -1.477000000000000E-002    0.000000000000000E+000
 -1.464000000000000E-002    0.000000000000000E+000
 -1.451000000000000E-002    0.000000000000000E+000
 -1.438000000000000E-002    0.000000000000000E+000
 -1.425000000000000E-002    0.000000000000000E+000
 -1.412000000000000E-002    0.000000000000000E+000
 -1.399000000000000E-002    0.000000000000000E+000
 -1.386000000000000E-002    0.000000000000000E+000
 -1.373000000000000E-002    0.000000000000000E+000
 -1.360000000000000E-002    0.000000000000000E+000
 -1.347000000000000E-002    0.000000000000000E+000
 -1.334000000000000E-002    0.000000000000000E+000
 -1.321000000000000E-002    0.000000000000000E+000
 -1.308000000000000E-002    0.000000000000000E+000
 -1.295000000000000E-002    0.000000000000000E+000
 -1.282000000000000E-002    0.000000000000000E+000
 -1.269000000000000E-002    0.000000000000000E+000
 -1.256000000000000E-002    0.000000000000000E+000
 -1.243000000000000E-002    0.000000000000000E+000
 -1.230000000000000E-002    0.000000000000000E+000
 -1.217000000000000E-002    0.000000000000000E+000
 -1.204000000000000E-002    0.000000000000000E+000
 -1.191000000000000E-002    0.000000000000000E+000
 -1.178000000000000E-002    0.000000000000000E+000
 -1.165000000000000E-002    0.000000000000000E+000
 -1.152000000000000E-002    0.000000000000000E+000
 -1.139000000000000E-002    0.000000000000000E+000
 -1.126000000000000E-002    0.000000000000000E+000
 -1.113000000000000E-002    0.000000000000000E+000
 -1.100000000000000E-002    0.000000000000000E+000
 -1.087000000000000E-002    0.000000000000000E+000
 -1.074000000000000E-002    0.000000000000000E+000
 -1.061000000000000E-002    0.000000000000000E+000
 -1.048000000000000E-002    0.000000000000000E+000
 -1.035000000000000E-002    0.000000000000000E+000
 -1.022000000000000E-002    0.000000000000000E+000
 -1.009000000000000E-002    0.000000000000000E+000
 -9.960000000000002E-003    0.000000000000000E+000
 -9.830000000000002E-003    0.000000000000000E+000
 -9.700000000000002E-003    0.000000000000000E+000
 -9.570000000000002E-003    0.000000000000000E+000
 -9.440000000000002E-003    0.000000000000000E+000
 -9.310000000000002E-003    0.000000000000000E+000
 -9.180000000000002E-003    0.000000000000000E+000
 -9.050000000000002E-003    0.000000000000000E+000
 -8.920000000000003E-003    0.000000000000000E+000
 -8.790000000000003E-003    0.000000000000000E+000
 -8.660000000000001E-003    0.000000000000000E+000
 -8.530000000000001E-003    0.000000000000000E+000
 -8.400000000000001E-003    0.000000000000000E+000
 -8.270000000000003E-003    0.000000000000000E+000
 -8.140000000000001E-003    0.000000000000000E+000
 -8.010000000000003E-003    0.000000000000000E+000
 -7.880000000000002E-003    0.000000000000000E+000
 -7.750000000000003E-003    0.000000000000000E+000
 -7.620000000000002E-003    0.000000000000000E+000
 -7.490000000000004E-003    0.000000000000000E+000
 -7.360000000000002E-003    0.000000000000000E+000
 -7.230000000000000E-003    0.000000000000000E+000
 -7.100000000000002E-003    0.000000000000000E+000
 -6.970000000000001E-003    0.000000000000000E+000
 -6.840000000000002E-003    0.000000000000000E+000
 -6.710000000000001E-003    0.000000000000000E+000
 -6.580000000000003E-003    0.000000000000000E+000
 -6.450000000000001E-003    0.000000000000000E+000
 -6.320000000000003E-003    0.000000000000000E+000
 -6.190000000000001E-003    0.000000000000000E+000
 -6.060000000000003E-003    0.000000000000000E+000
 -5.930000000000001E-003    0.000000000000000E+000
 -5.800000000000003E-003    0.000000000000000E+000
 -5.670000000000001E-003    0.000000000000000E+000
 -5.540000000000003E-003    0.000000000000000E+000
 -5.410000000000002E-003    0.000000000000000E+000
 -5.280000000000003E-003    0.000000000000000E+000
 -5.150000000000002E-003    0.000000000000000E+000
 -5.020000000000004E-003    0.000000000000000E+000
 -4.890000000000002E-003    0.000000000000000E+000
 -4.760000000000004E-003    0.000000000000000E+000
 -4.630000000000002E-003    0.000000000000000E+000
 -4.500000000000001E-003    0.000000000000000E+000
 -4.370000000000002E-003    0.000000000000000E+000
 -4.240000000000001E-003    0.000000000000000E+000
 -4.110000000000003E-003    0.000000000000000E+000
 -3.980000000000001E-003    0.000000000000000E+000
 -3.850000000000003E-003    0.000000000000000E+000
 -3.720000000000001E-003    0.000000000000000E+000
 -3.590000000000003E-003    0.000000000000000E+000
 -3.460000000000001E-003    0.000000000000000E+000
 -3.330000000000003E-003    0.000000000000000E+000
 -3.200000000000001E-003    0.000000000000000E+000
 -3.070000000000003E-003    0.000000000000000E+000
 -2.940000000000002E-003    0.000000000000000E+000
 -2.810000000000003E-003    0.000000000000000E+000
 -2.680000000000002E-003    0.000000000000000E+000
 -2.550000000000004E-003    0.000000000000000E+000
 -2.420000000000002E-003    0.000000000000000E+000
 -2.290000000000004E-003    0.000000000000000E+000
 -2.160000000000002E-003    0.000000000000000E+000
 -2.030000000000004E-003    0.000000000000000E+000
 -1.900000000000002E-003    0.000000000000000E+000
 -1.770000000000001E-003    0.000000000000000E+000
 -1.640000000000003E-003    0.000000000000000E+000
 -1.510000000000001E-003    0.000000000000000E+000
 -1.380000000000003E-003    0.000000000000000E+000
 -1.250000000000001E-003    0.000000000000000E+000
 -1.120000000000003E-003    0.000000000000000E+000
 -9.900000000000013E-004    0.000000000000000E+000
 -8.600000000000031E-004    0.000000000000000E+000
 -7.300000000000015E-004    0.000000000000000E+000
 -6.000000000000033E-004    0.000000000000000E+000
 -4.700000000000017E-004    0.000000000000000E+000
 -3.400000000000035E-004    0.000000000000000E+000
 -2.100000000000019E-004    0.000000000000000E+000
 -8.000000000000368E-005    0.000000000000000E+000
  4.999999999999796E-005    0.000000000000000E+000
  1.799999999999961E-004    0.000000000000000E+000
  3.099999999999978E-004    0.000000000000000E+000
  4.399999999999959E-004    0.000000000000000E+000
  5.699999999999976E-004    0.000000000000000E+000
  6.999999999999958E-004    0.000000000000000E+000
  8.299999999999974E-004    0.000000000000000E+000
  9.599999999999956E-004    0.000000000000000E+000
  1.089999999999997E-003    0.000000000000000E+000
  1.219999999999999E-003    0.000000000000000E+000
  1.349999999999997E-003    0.000000000000000E+000
  1.479999999999999E-003    0.000000000000000E+000
  1.609999999999997E-003    0.000000000000000E+000
  1.739999999999998E-003    0.000000000000000E+000
  1.869999999999997E-003    0.000000000000000E+000
  1.999999999999998E-003    0.000000000000000E+000
  2.129999999999996E-003    0.000000000000000E+000
  2.259999999999998E-003    0.000000000000000E+000
  2.389999999999996E-003    0.000000000000000E+000
  2.519999999999998E-003    0.000000000000000E+000
  2.649999999999996E-003    0.000000000000000E+000
  2.779999999999998E-003    0.000000000000000E+000
  2.909999999999996E-003    0.000000000000000E+000
  3.039999999999998E-003    0.000000000000000E+000
  3.169999999999996E-003    0.000000000000000E+000
  3.299999999999997E-003    0.000000000000000E+000
  3.429999999999996E-003    0.000000000000000E+000
  3.559999999999997E-003    0.000000000000000E+000
  3.689999999999995E-003    0.000000000000000E+000
  3.819999999999997E-003    0.000000000000000E+000
  3.949999999999999E-003    0.000000000000000E+000
  4.079999999999997E-003    0.000000000000000E+000
  4.209999999999998E-003    0.000000000000000E+000
  4.339999999999997E-003    0.000000000000000E+000
  4.469999999999998E-003    0.000000000000000E+000
  4.599999999999996E-003    0.000000000000000E+000
  4.729999999999998E-003    0.000000000000000E+000
  4.859999999999996E-003    0.000000000000000E+000
  4.989999999999998E-003    0.000000000000000E+000
  5.119999999999996E-003    0.000000000000000E+000
  5.249999999999998E-003    0.000000000000000E+000
  5.379999999999996E-003    0.000000000000000E+000
  5.509999999999998E-003    0.000000000000000E+000
  5.639999999999996E-003    0.000000000000000E+000
  5.769999999999997E-003    0.000000000000000E+000
  5.899999999999996E-003    0.000000000000000E+000
  6.029999999999997E-003    0.000000000000000E+000
  6.159999999999995E-003    0.000000000000000E+000
  6.289999999999997E-003    0.000000000000000E+000
  6.419999999999995E-003    0.000000000000000E+000
  6.549999999999997E-003    0.000000000000000E+000
  6.679999999999998E-003    0.000000000000000E+000
  6.809999999999997E-003    0.000000000000000E+000
  6.939999999999998E-003    0.000000000000000E+000
  7.069999999999996E-003    0.000000000000000E+000
  7.199999999999998E-003    0.000000000000000E+000
  7.329999999999996E-003    0.000000000000000E+000
  7.459999999999994E-003    0.000000000000000E+000
  7.590000000000000E-003    0.000000000000000E+000
  7.719999999999998E-003    0.000000000000000E+000
  7.849999999999996E-003    0.000000000000000E+000
  7.979999999999994E-003    0.000000000000000E+000
  8.109999999999999E-003    0.000000000000000E+000
  8.239999999999997E-003    0.000000000000000E+000
  8.369999999999995E-003    0.000000000000000E+000
  8.499999999999994E-003    0.000000000000000E+000
  8.629999999999999E-003    0.000000000000000E+000
  8.759999999999997E-003    0.000000000000000E+000
  8.889999999999995E-003    0.000000000000000E+000
  9.019999999999993E-003    0.000000000000000E+000
  9.149999999999998E-003    0.000000000000000E+000
  9.279999999999997E-003    0.000000000000000E+000
  9.409999999999995E-003    0.000000000000000E+000
  9.540000000000000E-003    0.000000000000000E+000
  9.669999999999998E-003    0.000000000000000E+000
  9.799999999999996E-003    0.000000000000000E+000
  9.929999999999994E-003    0.000000000000000E+000
  1.006000000000000E-002    0.000000000000000E+000
  1.019000000000000E-002    0.000000000000000E+000
  1.032000000000000E-002    0.000000000000000E+000
  1.044999999999999E-002    0.000000000000000E+000
  1.058000000000000E-002    0.000000000000000E+000
  1.071000000000000E-002    0.000000000000000E+000
  1.084000000000000E-002    0.000000000000000E+000
  1.096999999999999E-002    0.000000000000000E+000
  1.110000000000000E-002    0.000000000000000E+000
  1.123000000000000E-002    0.000000000000000E+000
  1.136000000000000E-002    0.000000000000000E+000
  1.148999999999999E-002    0.000000000000000E+000
  1.162000000000000E-002    0.000000000000000E+000
  1.175000000000000E-002    0.000000000000000E+000
  1.187999999999999E-002    0.000000000000000E+000
  1.200999999999999E-002    0.000000000000000E+000
  1.214000000000000E-002    0.000000000000000E+000
  1.227000000000000E-002    0.000000000000000E+000
  1.239999999999999E-002    0.000000000000000E+000
  1.253000000000000E-002    0.000000000000000E+000
  1.266000000000000E-002    0.000000000000000E+000
  1.279000000000000E-002    0.000000000000000E+000
  1.291999999999999E-002    0.000000000000000E+000
  1.305000000000000E-002    0.000000000000000E+000
  1.318000000000000E-002    0.000000000000000E+000
  1.331000000000000E-002    0.000000000000000E+000
  1.343999999999999E-002    0.000000000000000E+000
  1.357000000000000E-002    0.000000000000000E+000
  1.370000000000000E-002    0.000000000000000E+000
  1.383000000000000E-002    0.000000000000000E+000
  1.395999999999999E-002    0.000000000000000E+000
  1.409000000000000E-002    0.000000000000000E+000
  1.422000000000000E-002    0.000000000000000E+000
  1.434999999999999E-002    0.000000000000000E+000
  1.447999999999999E-002    0.000000000000000E+000
  1.461000000000000E-002    0.000000000000000E+000
  1.474000000000000E-002    0.000000000000000E+000
  1.486999999999999E-002    0.000000000000000E+000
  1.500000000000000E-002    0.000000000000000E+000
  1.513000000000000E-002    0.000000000000000E+000
  1.526000000000000E-002    0.000000000000000E+000
  1.538999999999999E-002    0.000000000000000E+000
  1.552000000000000E-002    0.000000000000000E+000
  1.565000000000000E-002    0.000000000000000E+000
  1.578000000000000E-002    0.000000000000000E+000
  1.590999999999999E-002    0.000000000000000E+000
  1.604000000000000E-002    0.000000000000000E+000
  1.617000000000000E-002    0.000000000000000E+000
  1.630000000000000E-002    0.000000000000000E+000
  1.642999999999999E-002    0.000000000000000E+000
  1.656000000000000E-002    0.000000000000000E+000
  1.669000000000000E-002    0.000000000000000E+000
  1.681999999999999E-002    0.000000000000000E+000
  1.694999999999999E-002    0.000000000000000E+000
  1.708000000000000E-002    0.000000000000000E+000
  1.721000000000000E-002    0.000000000000000E+000
  1.733999999999999E-002    0.000000000000000E+000
  1.746999999999999E-002    0.000000000000000E+000
  1.760000000000000E-002    0.000000000000000E+000
  1.773000000000000E-002    0.000000000000000E+000
  1.785999999999999E-002    0.000000000000000E+000
  1.799000000000000E-002    0.000000000000000E+000
  1.812000000000000E-002    0.000000000000000E+000
  1.825000000000000E-002    0.000000000000000E+000
  1.837999999999999E-002    0.000000000000000E+000
  1.851000000000000E-002    0.000000000000000E+000
  1.864000000000000E-002    0.000000000000000E+000
  1.877000000000000E-002    0.000000000000000E+000
  1.889999999999999E-002    0.000000000000000E+000
  1.903000000000000E-002    0.000000000000000E+000
  1.916000000000000E-002    0.000000000000000E+000
  1.928999999999999E-002    0.000000000000000E+000
  1.941999999999999E-002    0.000000000000000E+000
  1.955000000000000E-002    0.000000000000000E+000
  1.968000000000000E-002    0.000000000000000E+000
  1.980999999999999E-002    0.000000000000000E+000
  1.993999999999999E-002    0.000000000000000E+000
  2.007000000000000E-002    0.000000000000000E+000
  2.020000000000000E-002    0.000000000000000E+000
  2.032999999999999E-002    0.000000000000000E+000
  2.046000000000000E-002    0.000000000000000E+000
  2.059000000000000E-002    0.000000000000000E+000
  2.072000000000000E-002    0.000000000000000E+000
  2.084999999999999E-002    0.000000000000000E+000
  2.098000000000000E-002    0.000000000000000E+000
  2.111000000000000E-002    0.000000000000000E+000
  2.123999999999999E-002    0.000000000000000E+000
  2.136999999999999E-002    0.000000000000000E+000
  2.150000000000000E-002    0.000000000000000E+000
  2.163000000000000E-002    0.000000000000000E+000
  2.175999999999999E-002    0.000000000000000E+000
  2.188999999999999E-002    0.000000000000000E+000
  2.202000000000000E-002    0.000000000000000E+000
  2.215000000000000E-002    0.000000000000000E+000
  2.227999999999999E-002    0.000000000000000E+000
  2.240999999999999E-002    0.000000000000000E+000
  2.254000000000000E-002    0.000000000000000E+000
  2.267000000000000E-002    0.000000000000000E+000
  2.279999999999999E-002    0.000000000000000E+000
  2.292999999999999E-002    0.000000000000000E+000
  2.306000000000000E-002    0.000000000000000E+000
  2.319000000000000E-002    0.000000000000000E+000
  2.331999999999999E-002    0.000000000000000E+000
  2.345000000000000E-002    0.000000000000000E+000
  2.358000000000000E-002    0.000000000000000E+000
  2.370999999999999E-002    0.000000000000000E+000
  2.383999999999999E-002    0.000000000000000E+000
  2.397000000000000E-002    0.000000000000000E+000
  2.410000000000000E-002    0.000000000000000E+000
  2.422999999999999E-002    0.000000000000000E+000
  2.435999999999999E-002    0.000000000000000E+000
  2.449000000000000E-002    0.000000000000000E+000
  2.462000000000000E-002    0.000000000000000E+000
  2.474999999999999E-002    0.000000000000000E+000
  2.487999999999999E-002    0.000000000000000E+000
  2.501000000000000E-002    0.000000000000000E+000
  2.514000000000000E-002    0.000000000000000E+000
  2.526999999999999E-002    0.000000000000000E+000
  2.539999999999999E-002    0.000000000000000E+000
  2.553000000000000E-002    0.000000000000000E+000
  2.566000000000000E-002    0.000000000000000E+000
  2.578999999999999E-002    0.000000000000000E+000
  2.591999999999999E-002    0.000000000000000E+000
  2.605000000000000E-002    0.000000000000000E+000
  2.617999999999999E-002    0.000000000000000E+000
  2.630999999999999E-002    0.000000000000000E+000
  2.644000000000000E-002    0.000000000000000E+000
  2.657000000000000E-002    0.000000000000000E+000
  2.669999999999999E-002    0.000000000000000E+000
  2.682999999999999E-002    0.000000000000000E+000
  2.696000000000000E-002    0.000000000000000E+000
  2.709000000000000E-002    0.000000000000000E+000
  2.721999999999999E-002    0.000000000000000E+000
  2.734999999999999E-002    0.000000000000000E+000
  2.748000000000000E-002    0.000000000000000E+000
  2.761000000000000E-002    0.000000000000000E+000
  2.773999999999999E-002    0.000000000000000E+000
  2.786999999999999E-002    0.000000000000000E+000
  2.800000000000000E-002    0.000000000000000E+000
  2.813000000000000E-002    0.000000000000000E+000
  2.825999999999999E-002    0.000000000000000E+000
  2.838999999999999E-002    0.000000000000000E+000
  2.852000000000000E-002    0.000000000000000E+000
  2.864999999999999E-002    0.000000000000000E+000
  2.877999999999999E-002    0.000000000000000E+000
  2.891000000000000E-002    0.000000000000000E+000
  2.904000000000000E-002    0.000000000000000E+000
  2.916999999999999E-002    0.000000000000000E+000
  2.929999999999999E-002    0.000000000000000E+000
  2.943000000000000E-002    0.000000000000000E+000
  2.956000000000000E-002    0.000000000000000E+000
  2.968999999999999E-002    0.000000000000000E+000
  2.981999999999999E-002    0.000000000000000E+000
  2.995000000000000E-002    0.000000000000000E+000
  3.008000000000000E-002    0.000000000000000E+000
  3.020999999999999E-002    0.000000000000000E+000
  3.033999999999999E-002    0.000000000000000E+000
  3.047000000000000E-002    0.000000000000000E+000
  3.060000000000000E-002    0.000000000000000E+000
  3.072999999999999E-002    0.000000000000000E+000
  3.085999999999999E-002    0.000000000000000E+000
  3.099000000000000E-002    0.000000000000000E+000
  3.111999999999999E-002    0.000000000000000E+000
  3.124999999999999E-002    0.000000000000000E+000
  3.137999999999999E-002    0.000000000000000E+000
  3.151000000000000E-002    0.000000000000000E+000
  3.163999999999999E-002    0.000000000000000E+000
  3.176999999999999E-002    0.000000000000000E+000
  3.190000000000000E-002    0.000000000000000E+000
  3.203000000000000E-002    0.000000000000000E+000
  3.215999999999999E-002    0.000000000000000E+000
  3.228999999999999E-002    0.000000000000000E+000
  3.242000000000000E-002    0.000000000000000E+000
  3.255000000000000E-002    0.000000000000000E+000
  3.267999999999999E-002    0.000000000000000E+000
  3.280999999999999E-002    0.000000000000000E+000
  3.294000000000000E-002    0.000000000000000E+000
  3.307000000000000E-002    0.000000000000000E+000
  3.319999999999999E-002    0.000000000000000E+000
  3.332999999999999E-002    0.000000000000000E+000
  3.346000000000000E-002    0.000000000000000E+000
  3.358999999999999E-002    0.000000000000000E+000
  3.371999999999999E-002    0.000000000000000E+000
  3.384999999999999E-002    0.000000000000000E+000
  3.398000000000000E-002    0.000000000000000E+000
  3.410999999999999E-002    0.000000000000000E+000
  3.423999999999999E-002    0.000000000000000E+000
  3.437000000000000E-002    0.000000000000000E+000
  3.450000000000000E-002    0.000000000000000E+000
  3.462999999999999E-002    0.000000000000000E+000
  3.475999999999999E-002    0.000000000000000E+000
  3.489000000000000E-002    0.000000000000000E+000
  3.502000000000000E-002    0.000000000000000E+000
  3.514999999999999E-002    0.000000000000000E+000
  3.527999999999999E-002    0.000000000000000E+000
  3.541000000000000E-002    0.000000000000000E+000
  3.554000000000000E-002    0.000000000000000E+000
  3.566999999999999E-002    0.000000000000000E+000
  3.579999999999999E-002    0.000000000000000E+000
  3.593000000000000E-002    0.000000000000000E+000
  3.605999999999999E-002    0.000000000000000E+000
  3.618999999999999E-002    0.000000000000000E+000
  3.631999999999999E-002    0.000000000000000E+000
  3.645000000000000E-002    0.000000000000000E+000
  3.657999999999999E-002    0.000000000000000E+000
  3.670999999999999E-002    0.000000000000000E+000
  3.683999999999999E-002    0.000000000000000E+000
  3.697000000000000E-002    0.000000000000000E+000
  3.709999999999999E-002    0.000000000000000E+000
  3.722999999999999E-002    0.000000000000000E+000
  3.736000000000000E-002    0.000000000000000E+000
  3.749000000000000E-002    0.000000000000000E+000
  3.761999999999999E-002    0.000000000000000E+000
  3.774999999999999E-002    0.000000000000000E+000
  3.788000000000000E-002    0.000000000000000E+000
  3.801000000000000E-002    0.000000000000000E+000
  3.813999999999999E-002    0.000000000000000E+000
  3.826999999999999E-002    0.000000000000000E+000
  3.840000000000000E-002    0.000000000000000E+000
  3.852999999999999E-002    0.000000000000000E+000
  3.865999999999999E-002    0.000000000000000E+000
  3.879000000000000E-002    0.000000000000000E+000
  3.891999999999999E-002    0.000000000000000E+000
  3.904999999999999E-002    0.000000000000000E+000
  3.918000000000000E-002    0.000000000000000E+000
  3.930999999999999E-002    0.000000000000000E+000
  3.944000000000000E-002    0.000000000000000E+000
  3.956999999999999E-002    0.000000000000000E+000
  3.969999999999999E-002    0.000000000000000E+000
  3.983000000000000E-002    0.000000000000000E+000
  3.995999999999999E-002    0.000000000000000E+000
  4.008999999999999E-002    0.000000000000000E+000
  4.022000000000000E-002    0.000000000000000E+000
  4.034999999999999E-002    0.000000000000000E+000
  4.048000000000000E-002    0.000000000000000E+000
  4.061000000000000E-002    0.000000000000000E+000
  4.073999999999999E-002    0.000000000000000E+000
  4.087000000000000E-002    0.000000000000000E+000
  4.099999999999999E-002    0.000000000000000E+000
  4.112999999999999E-002    0.000000000000000E+000
  4.126000000000000E-002    0.000000000000000E+000
  4.138999999999999E-002    0.000000000000000E+000
  4.151999999999999E-002    0.000000000000000E+000
  4.165000000000000E-002    0.000000000000000E+000
  4.177999999999999E-002    0.000000000000000E+000
  4.191000000000000E-002    0.000000000000000E+000
  4.203999999999999E-002    0.000000000000000E+000
  4.216999999999999E-002    0.000000000000000E+000
  4.230000000000000E-002    0.000000000000000E+000
  4.242999999999999E-002    0.000000000000000E+000
  4.255999999999999E-002    0.000000000000000E+000
  4.269000000000000E-002    0.000000000000000E+000
  4.281999999999999E-002    0.000000000000000E+000
  4.295000000000000E-002    0.000000000000000E+000
  4.308000000000000E-002    0.000000000000000E+000
  4.320999999999999E-002    0.000000000000000E+000
  4.334000000000000E-002    0.000000000000000E+000
  4.346999999999999E-002    0.000000000000000E+000
  4.359999999999999E-002    0.000000000000000E+000
  4.373000000000000E-002    0.000000000000000E+000
  4.385999999999999E-002    0.000000000000000E+000
  4.398999999999999E-002    0.000000000000000E+000
  4.412000000000000E-002    0.000000000000000E+000
  4.424999999999999E-002    0.000000000000000E+000
  4.438000000000000E-002    0.000000000000000E+000
  4.450999999999999E-002    0.000000000000000E+000
  4.463999999999999E-002    0.000000000000000E+000
  4.477000000000000E-002    0.000000000000000E+000
  4.489999999999999E-002    0.000000000000000E+000
  4.502999999999999E-002    0.000000000000000E+000
  4.516000000000000E-002    0.000000000000000E+000
  4.528999999999999E-002    0.000000000000000E+000
  4.542000000000000E-002    0.000000000000000E+000
  4.555000000000000E-002    0.000000000000000E+000
  4.567999999999999E-002    0.000000000000000E+000
  4.581000000000000E-002    0.000000000000000E+000
  4.593999999999999E-002    0.000000000000000E+000
  4.606999999999999E-002    0.000000000000000E+000
  4.620000000000000E-002    0.000000000000000E+000
  4.632999999999999E-002    0.000000000000000E+000
  4.645999999999999E-002    0.000000000000000E+000
  4.659000000000000E-002    0.000000000000000E+000
  4.671999999999999E-002    0.000000000000000E+000
  4.685000000000000E-002    0.000000000000000E+000
  4.697999999999999E-002    0.000000000000000E+000
  4.710999999999999E-002    0.000000000000000E+000
  4.724000000000000E-002    0.000000000000000E+000
  4.736999999999999E-002    0.000000000000000E+000
  4.749999999999999E-002    0.000000000000000E+000
  4.763000000000000E-002    0.000000000000000E+000
  4.775999999999999E-002    0.000000000000000E+000
  4.789000000000000E-002    0.000000000000000E+000
  4.801999999999999E-002    0.000000000000000E+000
  4.814999999999999E-002    0.000000000000000E+000
  4.828000000000000E-002    0.000000000000000E+000
  4.840999999999999E-002    0.000000000000000E+000
  4.853999999999999E-002    0.000000000000000E+000
  4.867000000000000E-002    0.000000000000000E+000
  4.879999999999999E-002    0.000000000000000E+000
  4.892999999999999E-002    0.000000000000000E+000
  4.906000000000000E-002    0.000000000000000E+000
  4.918999999999999E-002    0.000000000000000E+000
  4.932000000000000E-002    0.000000000000000E+000
  4.944999999999999E-002    0.000000000000000E+000
  4.957999999999999E-002    0.000000000000000E+000
  4.971000000000000E-002    0.000000000000000E+000
  4.983999999999999E-002    0.000000000000000E+000
  4.996999999999999E-002    0.000000000000000E+000
  5.010000000000000E-002    0.000000000000000E+000
  5.022999999999999E-002    0.000000000000000E+000
  5.036000000000000E-002    0.000000000000000E+000
  5.048999999999999E-002    0.000000000000000E+000
  5.061999999999999E-002    0.000000000000000E+000
  5.075000000000000E-002    0.000000000000000E+000
  5.087999999999999E-002    0.000000000000000E+000
  5.100999999999999E-002    0.000000000000000E+000
  5.114000000000000E-002    0.000000000000000E+000
  5.126999999999999E-002    0.000000000000000E+000
  5.139999999999999E-002    0.000000000000000E+000
  5.153000000000000E-002    0.000000000000000E+000
  5.165999999999999E-002    0.000000000000000E+000
  5.179000000000000E-002    0.000000000000000E+000
  5.191999999999999E-002    0.000000000000000E+000
  5.204999999999999E-002    0.000000000000000E+000
  5.218000000000000E-002    0.000000000000000E+000
  5.230999999999999E-002    0.000000000000000E+000