  -1.2000000000000000         -4.7504116746869306E-011
  -1.1960937500000000         -5.0356322068172230E-011
  -1.1921875000000000         -5.1892454174757779E-011
  -1.1882812500000000         -5.1940420955988629E-011
  -1.1843750000000000         -5.0314382289264932E-011
  -1.1804687500000000         -4.6847301560852868E-011
  -1.1765625000000000         -4.1409017420035766E-011
  -1.1726562500000000         -3.3958166811752808E-011
  -1.1687500000000000         -2.4561622501709918E-011
  -1.1648437500000000         -1.3430369166789164E-011
  -1.1609375000000000         -9.2577579323387273E-013
  -1.1570312500000000          1.2443149357163846E-011
  -1.1531250000000000          2.6030801237082071E-011
  -1.1492187500000000          3.9098160872608335E-011
  -1.1453125000000000          5.0841856803565286E-011
  -1.1414062500000000          6.0484026323044847E-011
  -1.1375000000000000          6.7320202096957969E-011
  -1.1335937500000000          7.0793968651322840E-011
  -1.1296875000000000          7.0555372381511587E-011
  -1.1257812500000000          6.6503827971208469E-011
  -1.1218750000000000          5.8827107019011721E-011
  -1.1179687500000000          4.7996105904164648E-011
  -1.1140625000000000          3.4747484204855897E-011
  -1.1101562500000000          2.0030323193963966E-011
  -1.1062500000000000          4.9250714893105099E-012
  -1.1023437500000000         -9.4279283723039426E-012
  -1.0984375000000000         -2.1955133986909841E-011
  -1.0945312500000000         -3.1734614937095149E-011
  -1.0906250000000000         -3.8092876949034218E-011
  -1.0867187500000000         -4.0677180094708460E-011
  -1.0828125000000000         -3.9499413157988346E-011
  -1.0789062500000000         -3.4934431646788891E-011
  -1.0750000000000000         -2.7686364703228879E-011
  -1.0710937500000000         -1.8725994249493768E-011
  -1.0671875000000000         -9.2060364026160631E-012
  -1.0632812500000000         -3.2750373742021757E-013
  -1.0593750000000000          6.7738407297331462E-012
  -1.0554687500000000          1.1150624466081813E-011
  -1.0515625000000000          1.2143631578035709E-011
  -1.0476562500000000          9.4668572150752850E-012
  -1.0437500000000000          3.2258457996459603E-012
  -1.0398437500000000         -6.0686662208510265E-012
  -1.0359375000000000         -1.7571667249821751E-011
  -1.0320312500000000         -3.0185695838172645E-011
  -1.0281250000000000         -4.2650012637281803E-011
  -1.0242187500000000         -5.3706112308756491E-011
  -1.0203125000000000         -6.2209129871674056E-011
  -1.0164062500000000         -6.7269348750534331E-011
  -1.0125000000000000         -6.8325604235194648E-011
  -1.0085937500000000         -6.5211344026958721E-011
  -1.0046875000000000         -5.8180659895508961E-011
  -1.0007812500000000         -4.7860179390078948E-011
 -0.99687499999999996         -3.5181729346724125E-011
 -0.99296874999999996         -2.1258965619133599E-011
 -0.98906249999999996         -7.2947868689090035E-012
 -0.98515624999999996          5.5778103123099009E-012
 -0.98124999999999996          1.6404855445039976E-011
 -0.97734374999999996          2.4511197652832389E-011
 -0.97343749999999996          2.9549856413730227E-011
 -0.96953124999999996          3.1540168369756876E-011
 -0.96562499999999996          3.0817257126022333E-011
 -0.96171874999999996          2.7999679644884112E-011
 -0.95781249999999996          2.3865543969105706E-011
 -0.95390624999999996          1.9239409985949243E-011
 -0.94999999999999996          1.4892030371760292E-011
 -0.94609374999999996          1.1407218514273132E-011
 -0.94218749999999996          9.1288334771234110E-012
 -0.93828124999999996          8.1159835444611226E-012
 -0.93437499999999996          8.1335256670448901E-012
 -0.93046874999999996          8.6969120625875231E-012
 -0.92656249999999996          9.1537646315848761E-012
 -0.92265624999999996          8.7892054413873030E-012
 -0.91874999999999996          6.9503124660866736E-012
 -0.91484374999999996          3.1498572729584331E-012
 -0.91093749999999996         -2.8320385353070732E-012
 -0.90703124999999996         -1.0896261508235324E-011
 -0.90312499999999996         -2.0596423035141313E-011
 -0.89921874999999996         -3.1181600899422698E-011
 -0.89531249999999996         -4.1657591303119263E-011
 -0.89140624999999996         -5.0904335343368432E-011
 -0.88749999999999996         -5.7799801662286647E-011
 -0.88359374999999996         -6.1366517941646373E-011
 -0.87968749999999996         -6.0900078381182040E-011
 -0.87578124999999996         -5.6071847866505877E-011
 -0.87187499999999996         -4.6976708007134777E-011
 -0.86796874999999996         -3.4168811687250806E-011
 -0.86406249999999996         -1.8601806594785859E-011
 -0.86015624999999996         -1.5323357699531918E-012
 -0.85624999999999996          1.5587935490061718E-011
 -0.85234374999999996          3.1285193908334889E-011
 -0.84843749999999996          4.4213391656865437E-011
 -0.84453124999999996          5.3297185402559391E-011
 -0.84062499999999996          5.7857004305236668E-011
 -0.83671874999999996          5.7691673292596588E-011
 -0.83281249999999996          5.3081292092547903E-011
 -0.82890624999999996          4.4758820580249176E-011
 -0.82499999999999996          3.3824471887782612E-011
 -0.82109374999999996          2.1613642079817054E-011
 -0.81718749999999996          9.5503868714523450E-012
 -0.81328124999999996         -1.0296828619554833E-012
 -0.80937499999999996         -9.0073409761957078E-012
 -0.80546874999999996         -1.3626730078584364E-011
 -0.80156249999999996         -1.4554370410505491E-011
 -0.79765624999999996         -1.1918607777803985E-011
 -0.79374999999999996         -6.2901616769112078E-012
 -0.78984374999999996          1.4203424907876776E-012
 -0.78593749999999996          1.0060052309533592E-011
 -0.78203124999999996          1.8380489471200192E-011
 -0.77812499999999996          2.5190182929837081E-011
 -0.77421874999999996          2.9505958136045080E-011
 -0.77031249999999996          3.0657314319619895E-011
 -0.76640624999999996          2.8358119781138195E-011
 -0.76249999999999996          2.2735815385771077E-011
 -0.75859374999999996          1.4306351853890837E-011
 -0.75468749999999996          3.8960464140821955E-012
 -0.75078124999999996         -7.4558872842381058E-012
 -0.74687499999999996         -1.8621328201415468E-011
 -0.74296874999999996         -2.8525887118438248E-011
 -0.73906249999999996         -3.6282575856608471E-011
 -0.73515624999999996         -4.1270660861796967E-011
 -0.73124999999999996         -4.3199763955534450E-011
 -0.72734374999999996         -4.2131468152421497E-011
 -0.72343749999999996         -3.8454040588173909E-011
 -0.71953124999999996         -3.2815298534185125E-011
 -0.71562499999999996         -2.6014880380967433E-011
 -0.71171874999999996         -1.8908952064815196E-011
 -0.70781249999999996         -1.2291628238301451E-011
 -0.70390624999999996         -6.7851603466027235E-012
 -0.69999999999999996         -2.7884732799026009E-012
 -0.69609374999999996         -4.1957942579299548E-013
 -0.69218749999999996          4.7218485044923651E-013
 -0.68828124999999996          2.7288090991513901E-013
 -0.68437499999999996         -4.6296014750143378E-013
 -0.68046874999999996         -1.1028810320871680E-012
 -0.67656249999999996         -1.0417746627836201E-012
 -0.67265624999999996          2.0951464457058158E-013
 -0.66874999999999996          2.9439951301355290E-012
 -0.66484374999999996          7.1973475838508451E-012
 -0.66093749999999996          1.2742427333521827E-011
 -0.65703124999999996          1.9099617766842707E-011
 -0.65312499999999996          2.5586696758022327E-011
 -0.64921874999999996          3.1398838838298919E-011
 -0.64531249999999996          3.5710105851416082E-011
 -0.64140624999999996          3.7772158033534698E-011
 -0.63749999999999996          3.7007482145184884E-011
 -0.63359374999999996          3.3099464111363101E-011
 -0.62968749999999996          2.6032725659022877E-011
 -0.62578124999999996          1.6103410156766648E-011
 -0.62187499999999996          3.9117615474387039E-012
 -0.61796874999999996         -9.6967433204454830E-012
 -0.61406249999999996         -2.3727338554467727E-011
 -0.61015624999999996         -3.7110061650083128E-011
 -0.60624999999999996         -4.8810386214789299E-011
 -0.60234374999999996         -5.7918955911446920E-011
 -0.59843749999999996         -6.3768770516690567E-011
 -0.59453124999999996         -6.5950730545001502E-011
 -0.59062499999999996         -6.4381600718248753E-011
 -0.58671874999999996         -5.9274000191546261E-011
 -0.58281249999999996         -5.1126965871218017E-011
 -0.57890624999999996         -4.0662488648718599E-011
 -0.57499999999999996         -2.8743703955253253E-011
 -0.57109374999999996         -1.6294123318922298E-011
 -0.56718749999999996         -4.2203373144162146E-012
 -0.56328124999999996          6.6824360717071229E-012
 -0.55937499999999996          1.5777576789329628E-011
 -0.55546874999999996          2.2642690611254330E-011
 -0.55156249999999996          2.7099885072741740E-011
 -0.54765624999999996          2.9195265194838684E-011
 -0.54374999999999996          2.9181027784463269E-011
 -0.53984374999999996          2.7478958822151200E-011
 -0.53593749999999996          2.4595806588978378E-011
 -0.53203124999999996          2.1091538003168002E-011
 -0.52812499999999996          1.7498630120735281E-011
 -0.52421874999999996          1.4286765539668518E-011
 -0.52031249999999996          1.1812676137072832E-011
 -0.51640624999999996          1.0291221921087065E-011
 -0.51249999999999996          9.7956244767724214E-012
 -0.50859374999999996          1.0272340850928655E-011
 -0.50468749999999996          1.1534421086371606E-011
 -0.50078124999999996          1.3322307389663018E-011
 -0.49687499999999996          1.5308842695246414E-011
 -0.49296874999999996          1.7174592049749768E-011
 -0.48906249999999996          1.8629450646469983E-011
 -0.48515624999999996          1.9449381121240107E-011
 -0.48124999999999996          1.9468851462104647E-011
 -0.47734374999999996          1.8625726745143042E-011
 -0.47343749999999996          1.6953048239493472E-011
 -0.46953124999999996          1.4570420145216275E-011
 -0.46562499999999996          1.1662717487127234E-011
 -0.46171874999999996          8.4626825514281256E-012
 -0.45781249999999996          5.2093383478647382E-012
 -0.45390624999999996          2.1444830156235918E-012
 -0.44999999999999996         -5.3518006882954746E-013
 -0.44609374999999996         -2.7037369983551003E-012
 -0.44218749999999996         -4.3049182089394713E-012
 -0.43828124999999996         -5.3575789718744291E-012
 -0.43437499999999996         -5.9551193108418367E-012
 -0.43046874999999996         -6.2597536647885955E-012
 -0.42656249999999996         -6.4662350449416000E-012
 -0.42265624999999996         -6.7701715606264179E-012
 -0.41874999999999996         -7.3277483275203131E-012
 -0.41484374999999996         -8.2514838261104044E-012
 -0.41093749999999996         -9.5635316970641570E-012
 -0.40703124999999996         -1.1187040908575412E-011
 -0.40312499999999996         -1.2952552521041415E-011
 -0.39921874999999996         -1.4578591648808316E-011
 -0.39531249999999996         -1.5708572061114384E-011
 -0.39140624999999996         -1.5967648616169621E-011
 -0.38749999999999996         -1.4988270842408463E-011
 -0.38359374999999996         -1.2450169828334611E-011
 -0.37968749999999996         -8.1385588829909765E-012
 -0.37578124999999996         -1.9888684791274419E-012
 -0.37187499999999996          5.8746373359706612E-012
 -0.36796874999999996          1.5125238198414493E-011
 -0.36406249999999996          2.5256107849936923E-011
 -0.36015624999999996          3.5574025207268931E-011
 -0.35624999999999996          4.5287685950313046E-011
 -0.35234374999999996          5.3556364149396433E-011
 -0.34843749999999996          5.9552229550232276E-011
 -0.34453124999999996          6.2560875948590547E-011
 -0.34062499999999996          6.2053002027373122E-011
 -0.33671874999999996          5.7755915050843849E-011
 -0.33281249999999996          4.9687491798820413E-011
 -0.32890624999999996          3.8196135851631877E-011
 -0.32499999999999996          2.3924873249046135E-011
 -0.32109374999999996          7.7829003998695431E-012
 -0.31718749999999996         -9.1525847867109166E-012
 -0.31328124999999996         -2.5692579096922571E-011
 -0.30937499999999996         -4.0655829826528059E-011
 -0.30546874999999996         -5.2993778018273278E-011
 -0.30156249999999996         -6.1873413610900064E-011
 -0.29765624999999996         -6.6764826122804931E-011
 -0.29374999999999996         -6.7470086434852065E-011
 -0.28984374999999996         -6.4161297968803091E-011
 -0.28593749999999996         -5.7354333619547255E-011
 -0.28203124999999996         -4.7818775336117449E-011
 -0.27812499999999996         -3.6529848925449441E-011
 -0.27421874999999996         -2.4540993262707410E-011
 -0.27031249999999996         -1.2896245205694781E-011
 -0.26640624999999996         -2.4972875385354431E-012
 -0.26249999999999996          5.9647819775213805E-012
 -0.25859374999999996          1.2089295769937188E-011
 -0.25468749999999996          1.5760992339793889E-011
 -0.25078124999999996          1.7160623992211054E-011
 -0.24687499999999996          1.6735785614711238E-011
 -0.24296874999999996          1.5091064626199702E-011
 -0.23906249999999996          1.2923222255761442E-011
 -0.23515624999999996          1.0908962679974490E-011
 -0.23124999999999996          9.6029192073342934E-012
 -0.22734374999999996          9.3670272566696223E-012
 -0.22343749999999996          1.0339794023120849E-011
 -0.21953124999999996          1.2413201895255808E-011
 -0.21562499999999996          1.5250922384903542E-011
 -0.21171874999999996          1.8344737799361914E-011
 -0.20781249999999996          2.1100177814619906E-011
 -0.20390624999999996          2.2910681239334607E-011
 -0.19999999999999996          2.3278017314944719E-011
 -0.19609374999999996          2.1875246748124165E-011
 -0.19218749999999996          1.8620717282968610E-011
 -0.18828124999999996          1.3692464739358893E-011
 -0.18437499999999996          7.5328504822812562E-012
 -0.18046874999999996          7.9502263346944936E-013
 -0.17656249999999996         -5.7342651494914366E-012
 -0.17265624999999996         -1.1224496121500090E-011
 -0.16874999999999996         -1.4918631477436995E-011
 -0.16484374999999996         -1.6240451825973538E-011
 -0.16093749999999996         -1.4878589649556825E-011
 -0.15703124999999996         -1.0842864568552974E-011
 -0.15312499999999996         -4.4902059978703644E-012
 -0.14921874999999996          3.5236173386263752E-012
 -0.14531249999999996          1.2284662833200275E-011
 -0.14140624999999996          2.0736329081423897E-011
 -0.13749999999999996          2.7799640099139253E-011
 -0.13359374999999996          3.2507350242939567E-011
 -0.12968749999999996          3.4122828129669936E-011
 -0.12578124999999996          3.2235293383339956E-011
 -0.12187499999999996          2.6821132262817299E-011
 -0.11796874999999996          1.8273135913173516E-011
 -0.11406249999999996          7.3612041472489311E-012
 -0.11015624999999996         -4.8440567384902257E-012
 -0.10624999999999996         -1.7062212538161323E-011
 -0.10234374999999996         -2.7960862107418395E-011
  -9.8437499999999956E-002    -3.6302641684314552E-011
  -9.4531249999999956E-002    -4.1068335722395675E-011
  -9.0624999999999956E-002    -4.1596863904451562E-011
  -8.6718749999999956E-002    -3.7640830444518214E-011
  -8.2812499999999956E-002    -2.9420839040418287E-011
  -7.8906249999999956E-002    -1.7578306838012036E-011
  -7.4999999999999956E-002    -3.1023069374358000E-012
  -7.1093749999999956E-002     1.2741152410927580E-011
  -6.7187499999999956E-002     2.8566566347995568E-011
  -6.3281249999999956E-002     4.3019689335925367E-011
  -5.9374999999999956E-002     5.4901258600756788E-011
  -5.5468749999999956E-002     6.3285282292094560E-011
  -5.1562499999999956E-002     6.7634583930622410E-011
  -4.7656249999999956E-002     6.7809127048803388E-011
  -4.3749999999999956E-002     6.4065406274472979E-011
  -3.9843749999999956E-002     5.7019949642815512E-011
  -3.5937499999999956E-002     4.7534595214105826E-011
  -3.2031249999999956E-002     3.6622754664173375E-011
  -2.8124999999999956E-002     2.5330940351282097E-011
  -2.4218749999999956E-002     1.4619649504645354E-011
  -2.0312499999999956E-002     5.2583389157014961E-012
  -1.6406249999999956E-002    -2.2534408154596617E-012
  -1.2499999999999956E-002    -7.7072538800332750E-012
  -8.5937499999999556E-003    -1.1178076429039175E-011
  -4.6874999999999556E-003    -1.2992702977771925E-011
  -7.8124999999995559E-004    -1.3651818991780658E-011
   3.1250000000000444E-003    -1.3734861883107739E-011
   7.0312500000000444E-003    -1.3803340244493009E-011
   1.0937500000000044E-002    -1.4322204123144479E-011
   1.4843750000000044E-002    -1.5569761642811795E-011
   1.8750000000000044E-002    -1.7612792248485754E-011
   2.2656250000000044E-002    -2.0289767724576318E-011
   2.6562500000000044E-002    -2.3235460028619633E-011
   3.0468750000000044E-002    -2.5916476478793778E-011
   3.4375000000000044E-002    -2.7728504556140639E-011
   3.8281250000000044E-002    -2.8083256946815076E-011
   4.2187500000000044E-002    -2.6498554089555088E-011
   4.6093750000000044E-002    -2.2684107665412618E-011
   5.0000000000000044E-002    -1.6592118729783807E-011
   5.3906250000000044E-002    -8.4390149078718421E-012
   5.7812500000000044E-002     1.2981851212268816E-012
   6.1718750000000044E-002     1.1917267105612202E-011
   6.5625000000000044E-002     2.2556971000098971E-011
   6.9531250000000044E-002     3.2295786965393760E-011
   7.3437500000000044E-002     4.0260071778864522E-011
   7.7343750000000044E-002     4.5674522642457710E-011
   8.1250000000000044E-002     4.8000081250613421E-011
   8.5156250000000044E-002     4.6970145983225450E-011
   8.9062500000000044E-002     4.2637157517806573E-011
   9.2968750000000044E-002     3.5362172540359239E-011
   9.6875000000000044E-002     2.5782626129967620E-011
  0.10078125000000004          1.4755483037650421E-011
  0.10468750000000004          3.2607661341542437E-012
  0.10859375000000004         -7.6996469926453850E-012
  0.11250000000000004         -1.7164286063644489E-011
  0.11640625000000004         -2.4347680796959970E-011
  0.12031250000000004         -2.8711988872264283E-011
  0.12421875000000004         -2.9996259747204001E-011
  0.12812500000000004         -2.8248869699661744E-011
  0.13203125000000004         -2.3803839683189397E-011
  0.13593750000000004         -1.7247997705833080E-011
  0.13984375000000004         -9.3550493071777392E-012
  0.14375000000000004         -9.8369053129400973E-013
  0.14765625000000004          6.9925624117149075E-012
  0.15156250000000004          1.3783018411235899E-011
  0.15546875000000004          1.8725244236142145E-011
  0.15937500000000004          2.1382218107163790E-011
  0.16328125000000004          2.1542757771309541E-011
  0.16718750000000004          1.9261603109846107E-011
  0.17109375000000004          1.4819523569672189E-011
  0.17500000000000004          8.7134864071126605E-012
  0.17890625000000004          1.5849540482237366E-012
  0.18281250000000004         -5.8491453917286476E-012
  0.18671875000000004         -1.2861257614370850E-011
  0.19062500000000004         -1.8768751376791703E-011
  0.19453125000000004         -2.3006566822492458E-011
  0.19843750000000004         -2.5162209503809483E-011
  0.20234375000000004         -2.5030941356985972E-011
  0.20625000000000004         -2.2597546438127831E-011
  0.21015625000000004         -1.8054081582046176E-011
  0.21406250000000004         -1.1764682484722362E-011
  0.21796875000000004         -4.2273807479592628E-012
  0.22187500000000004          3.9824303516082243E-012
  0.22578125000000004          1.2261344244517619E-011
  0.22968750000000004          2.0023465149687621E-011
  0.23359375000000004          2.6767340948963310E-011
  0.23750000000000004          3.2113945163757988E-011
  0.24140625000000004          3.5816411192413418E-011
  0.24531250000000004          3.7793051901227381E-011
  0.24921875000000004          3.8129490343085022E-011
  0.25312500000000004          3.7028372735311088E-011
  0.25703125000000004          3.4804357786377486E-011
  0.26093750000000004          3.1821032767318974E-011
  0.26484375000000004          2.8470104999625877E-011
  0.26875000000000004          2.5089694693372240E-011
  0.27265625000000004          2.1976005588763898E-011
  0.27656250000000004          1.9307771717121300E-011
  0.28046875000000004          1.7150638250548736E-011
  0.28437500000000004          1.5442741134167981E-011
  0.28828125000000004          1.4025084128069241E-011
  0.29218750000000004          1.2642784877556764E-011
  0.29609375000000004          1.1014357236144889E-011
  0.30000000000000004          8.8842222206299834E-012
  0.30390625000000004          6.0484454288914586E-012
  0.30781250000000004          2.4026500110736390E-012
  0.31171875000000004         -2.0301033056787644E-012
  0.31562500000000004         -7.0568693240796800E-012
  0.31953125000000004         -1.2362346888128919E-011
  0.32343750000000004         -1.7482517922947118E-011
  0.32734375000000004         -2.1888210629700326E-011
  0.33125000000000004         -2.5031212448610960E-011
  0.33515625000000004         -2.6414910865321632E-011
  0.33906250000000004         -2.5650340604437610E-011
  0.34296875000000004         -2.2526960221627130E-011
  0.34687500000000004         -1.7047770399261270E-011
  0.35078125000000004         -9.4677560460131310E-012
  0.35468750000000004         -2.5733780091437419E-013
  0.35859375000000004          9.8922457634049610E-012
  0.36250000000000004          2.0157220294842354E-011
  0.36640625000000004          2.9631398136435175E-011
  0.37031250000000004          3.7442947064878584E-011
  0.37421875000000004          4.2842916712594094E-011
  0.37812500000000004          4.5284674427004353E-011
  0.38203125000000004          4.4486562902927640E-011
  0.38593750000000004          4.0473682236108427E-011
  0.38984375000000004          3.3591618288345423E-011
  0.39375000000000004          2.4491254633224854E-011
  0.39765625000000004          1.4045445540271080E-011
  0.40156250000000004          3.2678226831363440E-012
  0.40546875000000004         -6.7757321260302525E-012
  0.40937500000000004         -1.5110535382404669E-011
  0.41328125000000004         -2.0957138708972926E-011
  0.41718750000000004         -2.3804428010956383E-011
  0.42109375000000004         -2.3495127333649666E-011
  0.42500000000000004         -2.0222295719388486E-011
  0.42890625000000004         -1.4514780497024553E-011
  0.43281250000000004         -7.2071301168321071E-012
  0.43671875000000004          6.7619423523956559E-013
  0.44062500000000004          8.0527815010226735E-012
  0.44453125000000004          1.3878367160343943E-011
  0.44843750000000004          1.7294503342769769E-011
  0.45234375000000004          1.7714695713536028E-011
  0.45625000000000004          1.4896089014225515E-011
  0.46015625000000004          8.9773162782960209E-012
  0.46406250000000004          4.6884875021846924E-013
  0.46796875000000004         -9.8040114531786693E-012
  0.47187500000000004         -2.0801310100283211E-011
  0.47578125000000004         -3.1383749279364327E-011
  0.47968750000000004         -4.0440309082629161E-011
  0.48359375000000004         -4.7004567063956021E-011
  0.48750000000000004         -5.0387020411001772E-011
  0.49140625000000004         -5.0224045537355549E-011
  0.49531250000000004         -4.6519121659012301E-011
  0.49921875000000004         -3.9637077846702945E-011
  0.50312500000000004         -3.0269657410150254E-011
  0.50703125000000004         -1.9337370769300076E-011
  0.51093750000000004         -7.8792851591344526E-012
  0.51484375000000004          3.0848675060387462E-012
  0.51875000000000004          1.2659496602341816E-011
  0.52265625000000004          2.0166888130106482E-011
  0.52656250000000004          2.5250817872457448E-011
  0.53046875000000004          2.7849832170583828E-011
  0.53437500000000004          2.8219873344192720E-011
  0.53828125000000004          2.6869872123813367E-011
  0.54218750000000004          2.4480358071587805E-011
  0.54609375000000004          2.1772356728382318E-011
  0.55000000000000004          1.9447482082612051E-011
  0.55390625000000004          1.8045125727408121E-011
  0.55781250000000004          1.7870380283994477E-011
  0.56171875000000004          1.8956336396052642E-011
  0.56562500000000004          2.1048111599761526E-011
  0.56953125000000004          2.3653630213661653E-011
  0.57343750000000004          2.6115325624134974E-011
  0.57734375000000004          2.7692273686844323E-011
  0.58125000000000004          2.7679903018929315E-011
  0.58515625000000004          2.5516062031871125E-011
  0.58906250000000004          2.0895618456887428E-011
  0.59296875000000004          1.3832208390473748E-011
  0.59687500000000004          4.6575757775000003E-012
  0.60078125000000004         -5.9542468217059715E-012
  0.60468750000000004         -1.7075358023485803E-011
  0.60859375000000004         -2.7620870614484601E-011
  0.61250000000000004         -3.6458904132491932E-011
  0.61640625000000004         -4.2558134641278273E-011
  0.62031250000000004         -4.5108409035903412E-011
  0.62421875000000004         -4.3623033885775276E-011
  0.62812500000000004         -3.8009337154363061E-011
  0.63203125000000004         -2.8584701321783442E-011
  0.63593750000000004         -1.6084808162528619E-011
  0.63984375000000004         -1.5634536477031883E-012
  0.64375000000000004          1.3687185622674858E-011
  0.64765625000000004          2.8298723504835929E-011
  0.65156250000000004          4.0930051553720400E-011
  0.65546875000000004          5.0454978676717495E-011
  0.65937500000000004          5.6038591184039617E-011
  0.66328125000000004          5.7267532975299363E-011
  0.66718750000000004          5.4164211468609383E-011
  0.67109375000000004          4.7181218856950259E-011
  0.67500000000000004          3.7145463165292471E-011
  0.67890625000000004          2.5151505698304311E-011
  0.68281250000000004          1.2451365147023813E-011
  0.68671875000000004          3.1849077221789012E-013
  0.69062500000000004         -1.0106558726932654E-011
  0.69453125000000004         -1.7903559893683869E-011
  0.69843750000000004         -2.2493328051954584E-011
  0.70234375000000004         -2.3668184316982887E-011
  0.70625000000000004         -2.1577414120127506E-011
  0.71015625000000004         -1.6738318279410115E-011
  0.71406250000000004         -9.9225776833952521E-012
  0.71796875000000004         -2.0590674182141808E-012
  0.72187500000000004          5.8833978814835686E-012
  0.72578125000000004          1.3017541205383160E-011
  0.72968750000000004          1.8618790485043272E-011
  0.73359375000000004          2.2235903720321533E-011
  0.73750000000000004          2.3655379510770358E-011
  0.74140625000000004          2.2964403813828767E-011
  0.74531250000000004          2.0486839827666978E-011
  0.74921875000000004          1.6723387454213083E-011
  0.75312500000000004          1.2278764716073854E-011
  0.75703125000000004          7.7516942910861286E-012
  0.76093750000000004          3.6803753467306937E-012
  0.76484375000000004          4.6908593698069178E-013
  0.76875000000000004         -1.6519380086616412E-012
  0.77265625000000004         -2.6771650859385807E-012
  0.77656250000000004         -2.7713719540147123E-012
  0.78046875000000004         -2.2720027047952778E-012
  0.78437500000000004         -1.5874011365153361E-012
  0.78828125000000004         -1.1110598987964016E-012
  0.79218750000000004         -1.1835772375061450E-012
  0.79609375000000004         -2.0455339427693525E-012
  0.80000000000000004         -3.7256703725641183E-012
  0.80390625000000004         -6.0587484424590517E-012
  0.80781250000000004         -8.7047961609355773E-012
  0.81171875000000004         -1.1170849428309206E-011
  0.81562500000000004         -1.2874106396923942E-011
  0.81953125000000004         -1.3197599206030031E-011
  0.82343750000000004         -1.1602533890959223E-011
  0.82734375000000004         -7.6671382534887330E-012
  0.83125000000000004         -1.1790421614400709E-012
  0.83515625000000004          7.8288800089126676E-012
  0.83906250000000004          1.9076048339466742E-011
  0.84296875000000004          3.2037684490205527E-011
  0.84687500000000004          4.5971573099440345E-011
  0.85078125000000004          6.0023798874405580E-011
  0.85468750000000004          7.3266955544450023E-011
  0.85859375000000004          8.4800140130916542E-011
  0.86250000000000004          9.3812808471283572E-011
  0.86640625000000004          9.9705085826576768E-011
  0.87031250000000004          1.0209682471840953E-010
  0.87421875000000004          1.0089343878549680E-010
  0.87812500000000004          9.6303921488672923E-011
  0.88203125000000004          8.8807297631416816E-011
  0.88593750000000004          7.9090122329771424E-011
  0.88984375000000004          6.8042211050025100E-011
  0.89375000000000004          5.6628225504466765E-011
  0.89765625000000004          4.5819384867100151E-011
  0.90156250000000004          3.6556963173781036E-011
  0.90546875000000004          2.9640536138813095E-011
  0.90937500000000004          2.5663025449800719E-011
  0.91328125000000004          2.5018101144612623E-011
  0.91718750000000004          2.7846821938475521E-011
  0.92109375000000004          3.4046980169378862E-011
  0.92500000000000004          4.3301735042926352E-011