  -1.2000000000000000         -3.1035845023010450E-006
  -1.1960937500000000         -3.1091719350965890E-006
  -1.1921875000000000         -3.1147771541790261E-006
  -1.1882812500000000         -3.1203984507929138E-006
  -1.1843750000000000         -3.1260324251775000E-006
  -1.1804687500000000         -3.1316747196359590E-006
  -1.1765625000000000         -3.1373209231084348E-006
  -1.1726562500000000         -3.1429661834789862E-006
  -1.1687500000000000         -3.1486066053694503E-006
  -1.1648437500000000         -3.1542392529285953E-006
  -1.1609375000000000         -3.1598621724032389E-006
  -1.1570312500000000         -3.1654755941560855E-006
  -1.1531250000000000         -3.1710809592016418E-006
  -1.1492187500000000         -3.1766811575073992E-006
  -1.1453125000000000         -3.1822800866554298E-006
  -1.1414062500000000         -3.1878823416841424E-006
  -1.1375000000000000         -3.1934927705221482E-006
  -1.1335937500000000         -3.1991155116697782E-006
  -1.1296875000000000         -3.2047539435173589E-006
  -1.1257812500000000         -3.2104100520287693E-006
  -1.1218750000000000         -3.2160845269629646E-006
  -1.1179687500000000         -3.2217762076313644E-006
  -1.1140625000000000         -3.2274824163507159E-006
  -1.1101562500000000         -3.2331995189180812E-006
  -1.1062500000000000         -3.2389229202950501E-006
  -1.1023437500000000         -3.2446477899105797E-006
  -1.0984375000000000         -3.2503697533391428E-006
  -1.0945312500000000         -3.2560849555214286E-006
  -1.0906250000000000         -3.2617909466918847E-006
  -1.0867187500000000         -3.2674867692403776E-006
  -1.0828125000000000         -3.2731729263072283E-006
  -1.0789062500000000         -3.2788513657984121E-006
  -1.0750000000000000         -3.2845257150482308E-006
  -1.0710937500000000         -3.2902005488563403E-006
  -1.0671875000000000         -3.2958804939508279E-006
  -1.0632812500000000         -3.3015701347733235E-006
  -1.0593750000000000         -3.3072735670166828E-006
  -1.0554687500000000         -3.3129936918836247E-006
  -1.0515625000000000         -3.3187321619543941E-006
  -1.0476562500000000         -3.3244889516712354E-006
  -1.0437500000000000         -3.3302625690555986E-006
  -1.0398437500000000         -3.3360500781666153E-006
  -1.0359375000000000         -3.3418475818353850E-006
  -1.0320312500000000         -3.3476504739651368E-006
  -1.0281250000000000         -3.3534539080618595E-006
  -1.0242187500000000         -3.3592537900235552E-006
  -1.0203125000000000         -3.3650467556333526E-006
  -1.0164062500000000         -3.3708306887940493E-006
  -1.0125000000000000         -3.3766051441750004E-006
  -1.0085937500000000         -3.3823711637823862E-006
  -1.0046875000000000         -3.3881312271268437E-006
  -1.0007812500000000         -3.3938887867929258E-006
 -0.99687499999999996         -3.3996482527984524E-006
 -0.99296874999999996         -3.4054142342958506E-006
 -0.98906249999999996         -3.4111910753779215E-006
 -0.98515624999999996         -3.4169819504841878E-006
 -0.98124999999999996         -3.4227894354340438E-006
 -0.97734374999999996         -3.4286144369814274E-006
 -0.97343749999999996         -3.4344561628262467E-006
 -0.96953124999999996         -3.4403128111964675E-006
 -0.96562499999999996         -3.4461809267365953E-006
 -0.96171874999999996         -3.4520565477000769E-006
 -0.95781249999999996         -3.4579354772002892E-006
 -0.95390624999999996         -3.4638130967275448E-006
 -0.94999999999999996         -3.4696860235273210E-006
 -0.94609374999999996         -3.4755516194731036E-006
 -0.94218749999999996         -3.4814087247026614E-006
 -0.93828124999999996         -3.4872576635088719E-006
 -0.93437499999999996         -3.4931002347643713E-006
 -0.93046874999999996         -3.4989394460744061E-006
 -0.92656249999999996         -3.5047790291971744E-006
 -0.92265624999999996         -3.5106234240312239E-006
 -0.91874999999999996         -3.5164770202961848E-006
 -0.91484374999999996         -3.5223434926312775E-006
 -0.91093749999999996         -3.5282257184904167E-006
 -0.90703124999999996         -3.5341255675566767E-006
 -0.90312499999999996         -3.5400429507850989E-006
 -0.89921874999999996         -3.5459763442409527E-006
 -0.89531249999999996         -3.5519234452752269E-006
 -0.89140624999999996         -3.5578805180502415E-006
 -0.88749999999999996         -3.5638431288588078E-006
 -0.88359374999999996         -3.5698073253710685E-006
 -0.87968749999999996         -3.5757689882047993E-006
 -0.87578124999999996         -3.5817249864052305E-006
 -0.87187499999999996         -3.5876736538475289E-006
 -0.86796874999999996         -3.5936141351851694E-006
 -0.86406249999999996         -3.5995475136893606E-006
 -0.86015624999999996         -3.6054760638778990E-006
 -0.85624999999999996         -3.6114032847496880E-006
 -0.85234374999999996         -3.6173328971814314E-006
 -0.84843749999999996         -3.6232693066412564E-006
 -0.84453124999999996         -3.6292164047427587E-006
 -0.84062499999999996         -3.6351775717360221E-006
 -0.83671874999999996         -3.6411551279537683E-006
 -0.83281249999999996         -3.6471497255768435E-006
 -0.82890624999999996         -3.6531609884941827E-006
 -0.82499999999999996         -3.6591868773256657E-006
 -0.82109374999999996         -3.6652243764355380E-006
 -0.81718749999999996         -3.6712699794534544E-006
 -0.81328124999999996         -3.6773195366826756E-006
 -0.80937499999999996         -3.6833689195787969E-006
 -0.80546874999999996         -3.6894147853619964E-006
 -0.80156249999999996         -3.6954550034951136E-006
 -0.79765624999999996         -3.7014882580140620E-006
 -0.79374999999999996         -3.7075146972636745E-006
 -0.78984374999999996         -3.7135361087140744E-006
 -0.78593749999999996         -3.7195550702186800E-006
 -0.78203124999999996         -3.7255750667107872E-006
 -0.77812499999999996         -3.7316002392071535E-006
 -0.77421874999999996         -3.7376344914931962E-006
 -0.77031249999999996         -3.7436813846316516E-006
 -0.76640624999999996         -3.7497435119993615E-006
 -0.76249999999999996         -3.7558221805957133E-006
 -0.75859374999999996         -3.7619172640157314E-006
 -0.75468749999999996         -3.7680276058590289E-006
 -0.75078124999999996         -3.7741508887519229E-006
 -0.74687499999999996         -3.7802836385347643E-006
 -0.74296874999999996         -3.7864221255612309E-006
 -0.73906249999999996         -3.7925622649485391E-006
 -0.73515624999999996         -3.7987006687492219E-006
 -0.73124999999999996         -3.8048345554023445E-006
 -0.72734374999999996         -3.8109623657138059E-006
 -0.72343749999999996         -3.8170837748282814E-006
 -0.71953124999999996         -3.8231999160080064E-006
 -0.71562499999999996         -3.8293131136055434E-006
 -0.71171874999999996         -3.8354266036332247E-006
 -0.70781249999999996         -3.8415436748375481E-006
 -0.70390624999999996         -3.8476686441651026E-006
 -0.69999999999999996         -3.8538053452199385E-006
 -0.69609374999999996         -3.8599561242668831E-006
 -0.69218749999999996         -3.8661232595036686E-006
 -0.68828124999999996         -3.8723070790775799E-006
 -0.68437499999999996         -3.8785064782319466E-006
 -0.68046874999999996         -3.8847198412573614E-006
 -0.67656249999999996         -3.8909436911129896E-006
 -0.67265624999999996         -3.8971745586322431E-006
 -0.66874999999999996         -3.9034089960855857E-006
 -0.66484374999999996         -3.9096427186086668E-006
 -0.66093749999999996         -3.9158733539173217E-006
 -0.65703124999999996         -3.9220986263206536E-006
 -0.65312499999999996         -3.9283177036769120E-006
 -0.64921874999999996         -3.9345312038029423E-006
 -0.64531249999999996         -3.9407407399219258E-006
 -0.64140624999999996         -3.9469492942606225E-006
 -0.63749999999999996         -3.9531603162496724E-006
 -0.63359374999999996         -3.9593781365983467E-006
 -0.62968749999999996         -3.9656061354694973E-006
 -0.62578124999999996         -3.9718471461574121E-006
 -0.62187499999999996         -3.9781034820595530E-006
 -0.61796874999999996         -3.9843764156964779E-006
 -0.61406249999999996         -3.9906649156769958E-006
 -0.61015624999999996         -3.9969678454469117E-006
 -0.60624999999999996         -4.0032826993382045E-006
 -0.60234374999999996         -4.0096060530442036E-006
 -0.59843749999999996         -4.0159336051669364E-006
 -0.59453124999999996         -4.0222624285897891E-006
 -0.59062499999999996         -4.0285887806086281E-006
 -0.58671874999999996         -4.0349108204337071E-006
 -0.58281249999999996         -4.0412276779526019E-006
 -0.57890624999999996         -4.0475390310809311E-006
 -0.57499999999999996         -4.0538468931794776E-006
 -0.57109374999999996         -4.0601537520558886E-006
 -0.56718749999999996         -4.0664630367251823E-006
 -0.56328124999999996         -4.0727781018154677E-006
 -0.55937499999999996         -4.0791028106576680E-006
 -0.55546874999999996         -4.0854399887820643E-006
 -0.55156249999999996         -4.0917919435026086E-006
 -0.54765624999999996         -4.0981599889974492E-006
 -0.54374999999999996         -4.1045444861273735E-006
 -0.53984374999999996         -4.1109434274200301E-006
 -0.53593749999999996         -4.1173543315256333E-006
 -0.53203124999999996         -4.1237742523973554E-006
 -0.52812499999999996         -4.1301993333984399E-006
 -0.52421874999999996         -4.1366261858811302E-006
 -0.52031249999999996         -4.1430515260759635E-006
 -0.51640624999999996         -4.1494730343226959E-006
 -0.51249999999999996         -4.1558893872627869E-006
 -0.50859374999999996         -4.1623006732202973E-006
 -0.50468749999999996         -4.1687084199913485E-006
 -0.50078124999999996         -4.1751146143963681E-006
 -0.49687499999999996         -4.1815227020046037E-006
 -0.49296874999999996         -4.1879365335643819E-006
 -0.48906249999999996         -4.1943599302280155E-006
 -0.48515624999999996         -4.2007957424546768E-006
 -0.48124999999999996         -4.2072467801363952E-006
 -0.47734374999999996         -4.2137144211566135E-006
 -0.47343749999999996         -4.2201985779763961E-006
 -0.46953124999999996         -4.2266981999896255E-006
 -0.46562499999999996         -4.2332108519761496E-006
 -0.46171874999999996         -4.2397335705497861E-006
 -0.45781249999999996         -4.2462625287594259E-006
 -0.45390624999999996         -4.2527943273121236E-006
 -0.44999999999999996         -4.2593251541257145E-006
 -0.44609374999999996         -4.2658531098084635E-006
 -0.44218749999999996         -4.2723763362312685E-006
 -0.43828124999999996         -4.2788948886145198E-006
 -0.43437499999999996         -4.2854097658722087E-006
 -0.43046874999999996         -4.2919234196684723E-006
 -0.42656249999999996         -4.2984387522806705E-006
 -0.42265624999999996         -4.3049591787866702E-006
 -0.41874999999999996         -4.3114885185116225E-006
 -0.41484374999999996         -4.3180301436592963E-006
 -0.41093749999999996         -4.3245864258183654E-006
 -0.40703124999999996         -4.3311587954961943E-006
 -0.40312499999999996         -4.3377476892586107E-006
 -0.39921874999999996         -4.3443525622434753E-006
 -0.39531249999999996         -4.3509710163059409E-006
 -0.39140624999999996         -4.3575996868317731E-006
 -0.38749999999999996         -4.3642352273518275E-006
 -0.38359374999999996         -4.3708742351709522E-006
 -0.37968749999999996         -4.3775133927363421E-006
 -0.37578124999999996         -4.3841498290471445E-006
 -0.37187499999999996         -4.3907820953612709E-006
 -0.36796874999999996         -4.3974097593002232E-006
 -0.36406249999999996         -4.4040337552669639E-006
 -0.36015624999999996         -4.4106564895653039E-006
 -0.35624999999999996         -4.4172803692841799E-006
 -0.35234374999999996         -4.4239096813149819E-006
 -0.34843749999999996         -4.4305477521546053E-006
 -0.34453124999999996         -4.4371979498194888E-006
 -0.34062499999999996         -4.4438631710451082E-006
 -0.33671874999999996         -4.4505452588711341E-006
 -0.33281249999999996         -4.4572442729257756E-006
 -0.32890624999999996         -4.4639596856656418E-006
 -0.32499999999999996         -4.4706891552083125E-006
 -0.32109374999999996         -4.4774297758378001E-006
 -0.31718749999999996         -4.4841777553181313E-006
 -0.31328124999999996         -4.4909297324372760E-006
 -0.30937499999999996         -4.4976818563366647E-006
 -0.30546874999999996         -4.5044317554276217E-006
 -0.30156249999999996         -4.5111770581214727E-006
 -0.29765624999999996         -4.5179177173932115E-006
 -0.29374999999999996         -4.5246542368423460E-006
 -0.28984374999999996         -4.5313885323410221E-006
 -0.28593749999999996         -4.5381234856613432E-006
 -0.28203124999999996         -4.5448628920053041E-006
 -0.27812499999999996         -4.5516101259732645E-006
 -0.27421874999999996         -4.5583690431805543E-006
 -0.27031249999999996         -4.5651424922956061E-006
 -0.26640624999999996         -4.5719324196455248E-006
 -0.26249999999999996         -4.5787397827556089E-006
 -0.25859374999999996         -4.5855641093028582E-006
 -0.25468749999999996         -4.5924034744710384E-006
 -0.25078124999999996         -4.5992554976909612E-006
 -0.24687499999999996         -4.6061167896193832E-006
 -0.24296874999999996         -4.6129830388515961E-006
 -0.23906249999999996         -4.6198508860027329E-006
 -0.23515624999999996         -4.6267173925052557E-006
 -0.23124999999999996         -4.6335801662288084E-006
 -0.22734374999999996         -4.6404386930547532E-006
 -0.22343749999999996         -4.6472929490756291E-006
 -0.21953124999999996         -4.6541444012150384E-006
 -0.21562499999999996         -4.6609958789907122E-006
 -0.21171874999999996         -4.6678503004649325E-006
 -0.20781249999999996         -4.6747115212894524E-006
 -0.20390624999999996         -4.6815833994761924E-006
 -0.19999999999999996         -4.6884688355117746E-006
 -0.19609374999999996         -4.6953702966827736E-006
 -0.19218749999999996         -4.7022892223510070E-006
 -0.18828124999999996         -4.7092252129895244E-006
 -0.18437499999999996         -4.7161768455544369E-006
 -0.18046874999999996         -4.7231417302755560E-006
 -0.17656249999999996         -4.7301169840262237E-006
 -0.17265624999999996         -4.7370987162190638E-006
 -0.16874999999999996         -4.7440835550864920E-006
 -0.16484374999999996         -4.7510685596643772E-006
 -0.16093749999999996         -4.7580512668534749E-006
 -0.15703124999999996         -4.7650301826410063E-006
 -0.15312499999999996         -4.7720057165400455E-006
 -0.14921874999999996         -4.7789787921823048E-006
 -0.14531249999999996         -4.7859518182681866E-006
 -0.14140624999999996         -4.7929276905275539E-006
 -0.13749999999999996         -4.7999097576104491E-006
 -0.13359374999999996         -4.8069019222300521E-006
 -0.12968749999999996         -4.8139071006214830E-006
 -0.12578124999999996         -4.8209277501216152E-006
 -0.12187499999999996         -4.8279653581593067E-006
 -0.11796874999999996         -4.8350204446519912E-006
 -0.11406249999999996         -4.8420920754124025E-006
 -0.11015624999999996         -4.8491779069466535E-006
 -0.10624999999999996         -4.8562750692595051E-006
 -0.10234374999999996         -4.8633801474887854E-006
  -9.8437499999999956E-002    -4.8704893117173641E-006
  -9.4531249999999956E-002    -4.8775996299252005E-006
  -9.0624999999999956E-002    -4.8847086100967097E-006
  -8.6718749999999956E-002    -4.8918147548169093E-006
  -8.2812499999999956E-002    -4.8989171370518812E-006
  -7.8906249999999956E-002    -4.9060166276095380E-006
  -7.4999999999999956E-002    -4.9131156310029528E-006
  -7.1093749999999956E-002    -4.9202165359602773E-006
  -6.7187499999999956E-002    -4.9273223081746508E-006
  -6.3281249999999956E-002    -4.9344367767780787E-006
  -5.9374999999999956E-002    -4.9415633574178585E-006
  -5.5468749999999956E-002    -4.9487049779267001E-006
  -5.1562499999999956E-002    -4.9558631265185872E-006
  -4.7656249999999956E-002    -4.9630387765037396E-006
  -4.3749999999999956E-002    -4.9702314765370211E-006
  -3.9843749999999956E-002    -4.9774397415497414E-006
  -3.5937499999999956E-002    -4.9846611580847395E-006
  -3.2031249999999956E-002    -4.9918923585617582E-006
  -2.8124999999999956E-002    -4.9991299157359093E-006
  -2.4218749999999956E-002    -5.0063708739001789E-006
  -2.0312499999999956E-002    -5.0136123267691489E-006
  -1.6406249999999956E-002    -5.0208522840995795E-006
  -1.2499999999999956E-002    -5.0280902083983776E-006
  -8.5937499999999556E-003    -5.0353256168234131E-006
  -4.6874999999999556E-003    -5.0425600026023380E-006
  -7.8124999999995559E-004    -5.0497957452987287E-006
   3.1250000000000444E-003    -5.0570353259364315E-006
   7.0312500000000444E-003    -5.0642821817464609E-006
   1.0937500000000044E-002    -5.0715392784219563E-006
   1.4843750000000044E-002    -5.0788095445807540E-006
   1.8750000000000044E-002    -5.0860949728626864E-006
   2.2656250000000044E-002    -5.0933965901868969E-006
   2.6562500000000044E-002    -5.1007148536608946E-006
   3.0468750000000044E-002    -5.1080487944187009E-006
   3.4375000000000044E-002    -5.1153964503118663E-006
   3.8281250000000044E-002    -5.1227549003120882E-006
   4.2187500000000044E-002    -5.1301216400210657E-006
   4.6093750000000044E-002    -5.1374932324646945E-006
   5.0000000000000044E-002    -5.1448672003338514E-006
   5.3906250000000044E-002    -5.1522415238995273E-006
   5.7812500000000044E-002    -5.1596147396403255E-006
   6.1718750000000044E-002    -5.1669868318077484E-006
   6.5625000000000044E-002    -5.1743582708976343E-006
   6.9531250000000044E-002    -5.1817305509227627E-006
   7.3437500000000044E-002    -5.1891060919242148E-006
   7.7343750000000044E-002    -5.1964883434792986E-006
   8.1250000000000044E-002    -5.2038798099863158E-006
   8.5156250000000044E-002    -5.2112829742962750E-006
   8.9062500000000044E-002    -5.2187003003299705E-006
   9.2968750000000044E-002    -5.2261332913011825E-006
   9.6875000000000044E-002    -5.2335824508094160E-006
  0.10078125000000004         -5.2410472605122807E-006
  0.10468750000000004         -5.2485258334539697E-006
  0.10859375000000004         -5.2560166062278574E-006
  0.11250000000000004         -5.2635166444173114E-006
  0.11640625000000004         -5.2710230046616115E-006
  0.12031250000000004         -5.2785327383706687E-006
  0.12421875000000004         -5.2860438182259412E-006
  0.12812500000000004         -5.2935547930523249E-006
  0.13203125000000004         -5.3010646648470140E-006
  0.13593750000000004         -5.3085739353823535E-006
  0.13984375000000004         -5.3160840458473229E-006
  0.14375000000000004         -5.3235969788956264E-006
  0.14765625000000004         -5.3311152092193096E-006
  0.15156250000000004         -5.3386416877686275E-006
  0.15546875000000004         -5.3461789065955888E-006
  0.15937500000000004         -5.3537297638266480E-006
  0.16328125000000004         -5.3612957758070024E-006
  0.16718750000000004         -5.3688774411637054E-006
  0.17109375000000004         -5.3764752098509126E-006
  0.17500000000000004         -5.3840880583516842E-006
  0.17890625000000004         -5.3917140345036960E-006
  0.18281250000000004         -5.3993506512686104E-006
  0.18671875000000004         -5.4069954447256329E-006
  0.19062500000000004         -5.4146454539383840E-006
  0.19453125000000004         -5.4222986854819058E-006
  0.19843750000000004         -5.4299531648614567E-006
  0.20234375000000004         -5.4376084026509847E-006
  0.20625000000000004         -5.4452639207651178E-006
  0.21015625000000004         -5.4529202780237550E-006
  0.21406250000000004         -5.4605794712540578E-006
  0.21796875000000004         -5.4682434962775725E-006
  0.22187500000000004         -5.4759148401326377E-006
  0.22578125000000004         -5.4835960138014763E-006
  0.22968750000000004         -5.4912890007229191E-006
  0.23359375000000004         -5.4989962500748760E-006
  0.23750000000000004         -5.5067187136202743E-006
  0.24140625000000004         -5.5144564210653694E-006
  0.24531250000000004         -5.5222088109731839E-006
  0.24921875000000004         -5.5299748655891489E-006
  0.25312500000000004         -5.5377525602118010E-006
  0.25703125000000004         -5.5455393704705878E-006
  0.26093750000000004         -5.5533328101122963E-006
  0.26484375000000004         -5.5611308709690865E-006
  0.26875000000000004         -5.5689315661999215E-006
  0.27265625000000004         -5.5767338854192791E-006
  0.27656250000000004         -5.5845373491872327E-006
  0.28046875000000004         -5.5923429463420119E-006
  0.28437500000000004         -5.6001512614381383E-006
  0.28828125000000004         -5.6079647502374434E-006
  0.29218750000000004         -5.6157854755587288E-006
  0.29609375000000004         -5.6236159270574124E-006
  0.30000000000000004         -5.6314585833971733E-006
  0.30390625000000004         -5.6393149675071298E-006
  0.30781250000000004         -5.6471865726149357E-006
  0.31171875000000004         -5.6550739062917328E-006
  0.31562500000000004         -5.6629764649380128E-006
  0.31953125000000004         -5.6708927592977565E-006
  0.32343750000000004         -5.6788212417128359E-006
  0.32734375000000004         -5.6867598930236716E-006
  0.33125000000000004         -5.6947062088319621E-006
  0.33515625000000004         -5.7026576887110404E-006
  0.33906250000000004         -5.7106128023579481E-006
  0.34296875000000004         -5.7185700780923256E-006
  0.34687500000000004         -5.7265285667635331E-006
  0.35078125000000004         -5.7344891912181578E-006
  0.35468750000000004         -5.7424525021171349E-006
  0.35859375000000004         -5.7504204781425370E-006
  0.36250000000000004         -5.7583951350517372E-006
  0.36640625000000004         -5.7663789656818702E-006
  0.37031250000000004         -5.7743744678473167E-006
  0.37421875000000004         -5.7823836283891119E-006
  0.37812500000000004         -5.7904074576927788E-006
  0.38203125000000004         -5.7984464804325114E-006
  0.38593750000000004         -5.8065011515761364E-006
  0.38984375000000004         -5.8145699818676349E-006
  0.39375000000000004         -5.8226514977994846E-006
  0.39765625000000004         -5.8307440855014271E-006
  0.40156250000000004         -5.8388448386880441E-006
  0.40546875000000004         -5.8469521857937476E-006
  0.40937500000000004         -5.8550636553082074E-006
  0.41328125000000004         -5.8631782286869380E-006
  0.41718750000000004         -5.8712949436478819E-006
  0.42109375000000004         -5.8794138009761640E-006
  0.42500000000000004         -5.8875357994961401E-006
  0.42890625000000004         -5.8956624531928383E-006
  0.43281250000000004         -5.9037962335765875E-006
  0.43671875000000004         -5.9119387287830235E-006
  0.44062500000000004         -5.9200924043079831E-006
  0.44453125000000004         -5.9282592577637522E-006
  0.44843750000000004         -5.9364412528738227E-006
  0.45234375000000004         -5.9446384167273728E-006
  0.45625000000000004         -5.9528512098341137E-006
  0.46015625000000004         -5.9610786252107277E-006
  0.46406250000000004         -5.9693196227702274E-006
  0.46796875000000004         -5.9775717028710703E-006
  0.47187500000000004         -5.9858328449991233E-006
  0.47578125000000004         -5.9941005413538786E-006
  0.47968750000000004         -6.0023732427021662E-006
  0.48359375000000004         -6.0106490250128766E-006
  0.48750000000000004         -6.0189273426339529E-006
  0.49140625000000004         -6.0272082278839390E-006
  0.49531250000000004         -6.0354917748856925E-006
  0.49921875000000004         -6.0437799358015356E-006
  0.50312500000000004         -6.0520747411317287E-006
  0.50703125000000004         -6.0603782387364948E-006
  0.51093750000000004         -6.0686924806633867E-006
  0.51484375000000004         -6.0770199531656172E-006
  0.51875000000000004         -6.0853621360825113E-006
  0.52265625000000004         -6.0937204911083022E-006
  0.52656250000000004         -6.1020950116590698E-006
  0.53046875000000004         -6.1104851397000403E-006
  0.53437500000000004         -6.1188893835786024E-006
  0.53828125000000004         -6.1273057169818261E-006
  0.54218750000000004         -6.1357325302267834E-006
  0.54609375000000004         -6.1441673241445369E-006
  0.55000000000000004         -6.1526076166692042E-006
  0.55390625000000004         -6.1610518956429173E-006
  0.55781250000000004         -6.1694991583061114E-006
  0.56171875000000004         -6.1779493741674054E-006
  0.56562500000000004         -6.1864026523130266E-006
  0.56953125000000004         -6.1948600063102154E-006
  0.57343750000000004         -6.2033234658741061E-006
  0.57734375000000004         -6.2117950573176286E-006
  0.58125000000000004         -6.2202772850390847E-006
  0.58515625000000004         -6.2287721869125731E-006
  0.58906250000000004         -6.2372817745081373E-006
  0.59296875000000004         -6.2458070282529250E-006
  0.59687500000000004         -6.2543488751808525E-006
  0.60078125000000004         -6.2629063724730819E-006
  0.60468750000000004         -6.2714789284217417E-006
  0.60859375000000004         -6.2800650061399524E-006
  0.61250000000000004         -6.2886625659264551E-006
  0.61640625000000004         -6.2972691357014917E-006
  0.62031250000000004         -6.3058826815625987E-006
  0.62421875000000004         -6.3145012308421954E-006
  0.62812500000000004         -6.3231233266028069E-006
  0.63203125000000004         -6.3317489317691284E-006
  0.63593750000000004         -6.3403776615935207E-006
  0.63984375000000004         -6.3490105196570979E-006
  0.64375000000000004         -6.3576494862533984E-006
  0.64765625000000004         -6.3662961576770223E-006
  0.65156250000000004         -6.3749529802731030E-006
  0.65546875000000004         -6.3836224313507656E-006
  0.65937500000000004         -6.3923064877649200E-006
  0.66328125000000004         -6.4010065659755348E-006
  0.66718750000000004         -6.4097236334940340E-006
  0.67109375000000004         -6.4184576227173093E-006
  0.67500000000000004         -6.4272075119191560E-006
  0.67890625000000004         -6.4359722165634462E-006
  0.68281250000000004         -6.4447492545842965E-006
  0.68671875000000004         -6.4535361843933309E-006
  0.69062500000000004         -6.4623309673313273E-006
  0.69453125000000004         -6.4711312094407661E-006
  0.69843750000000004         -6.4799349832883342E-006
  0.70234375000000004         -6.4887418247464193E-006
  0.70625000000000004         -6.4975513343244968E-006
  0.71015625000000004         -6.5063645742262769E-006
  0.71406250000000004         -6.5151826124542671E-006
  0.71796875000000004         -6.5240079466023585E-006
  0.72187500000000004         -6.5328430497923470E-006
  0.72578125000000004         -6.5416903948891153E-006
  0.72968750000000004         -6.5505523871908617E-006
  0.73359375000000004         -6.5594313636075511E-006
  0.73750000000000004         -6.5683282587626321E-006
  0.74140625000000004         -6.5772434887166768E-006
  0.74531250000000004         -6.5861764270466773E-006
  0.74921875000000004         -6.5951260338813417E-006
  0.75312500000000004         -6.6040898024257764E-006
  0.75703125000000004         -6.6130656987775188E-006
  0.76093750000000004         -6.6220507819360135E-006
  0.76484375000000004         -6.6310426713320733E-006
  0.76875000000000004         -6.6400389682514213E-006
  0.77265625000000004         -6.6490382957059832E-006
  0.77656250000000004         -6.6580402252888960E-006
  0.78046875000000004         -6.6670449244884955E-006
  0.78437500000000004         -6.6760534250171112E-006
  0.78828125000000004         -6.6850677747349662E-006
  0.79218750000000004         -6.6940899760475296E-006
  0.79609375000000004         -6.7031234199095132E-006
  0.80000000000000004         -6.7121705197780770E-006
  0.80390625000000004         -6.7212331957126973E-006
  0.80781250000000004         -6.7303137722770452E-006
  0.81171875000000004         -6.7394126812801891E-006
  0.81562500000000004         -6.7485302594027290E-006
  0.81953125000000004         -6.7576654749323347E-006
  0.82343750000000004         -6.7668163029106318E-006
  0.82734375000000004         -6.7759807285858584E-006
  0.83125000000000004         -6.7851558504293555E-006
  0.83515625000000004         -6.7943388008060506E-006
  0.83906250000000004         -6.8035276662403900E-006
  0.84296875000000004         -6.8127205631787699E-006
  0.84687500000000004         -6.8219166355925878E-006
  0.85078125000000004         -6.8311154648041933E-006
  0.85468750000000004         -6.8403181182466630E-006
  0.85859375000000004         -6.8495261180639911E-006
  0.86250000000000004         -6.8587418895266248E-006
  0.86640625000000004         -6.8679683415322700E-006
  0.87031250000000004         -6.8772083243608277E-006
  0.87421875000000004         -6.8864642022635590E-006
  0.87812500000000004         -6.8957378340650569E-006
  0.88203125000000004         -6.9050305439295936E-006
  0.88593750000000004         -6.9143422532623226E-006
  0.88984375000000004         -6.9236719766272189E-006
  0.89375000000000004         -6.9330186234736624E-006
  0.89765625000000004         -6.9423793146054133E-006
  0.90156250000000004         -6.9517521152201101E-006
  0.90546875000000004         -6.9611337111307278E-006
  0.90937500000000004         -6.9705212707718841E-006
  0.91328125000000004         -6.9799129658103685E-006
  0.91718750000000004         -6.9893074731239451E-006
  0.92109375000000004         -6.9987044145124690E-006
  0.92500000000000004         -7.0081043511924316E-006