  -1.2000000000000000         -3.5881352933065432E-011
  -1.1960937500000000         -3.7758223406178686E-011
  -1.1921875000000000         -3.8427122561167647E-011
  -1.1882812500000000         -3.7814389928292789E-011
  -1.1843750000000000         -3.5866389433710884E-011
  -1.1804687500000000         -3.2567114654354974E-011
  -1.1765625000000000         -2.7946493654849845E-011
  -1.1726562500000000         -2.2096131185396982E-011
  -1.1687500000000000         -1.5179671922269018E-011
  -1.1648437500000000         -7.4354148346967096E-012
  -1.1609375000000000          8.2749383595701729E-013
  -1.1570312500000000          9.2366900055582925E-012
  -1.1531250000000000          1.7375400263983073E-011
  -1.1492187500000000          2.4805609280976337E-011
  -1.1453125000000000          3.1100514788737575E-011
  -1.1414062500000000          3.5878062334813601E-011
  -1.1375000000000000          3.8829217163611223E-011
  -1.1335937500000000          3.9756254125429722E-011
  -1.1296875000000000          3.8588211703466065E-011
  -1.1257812500000000          3.5394310021002071E-011
  -1.1218750000000000          3.0388552520823353E-011
  -1.1179687500000000          2.3917495654564538E-011
  -1.1140625000000000          1.6436753813958722E-011
  -1.1101562500000000          8.4765708735218167E-012
  -1.1062500000000000          6.0184317978357640E-013
  -1.1023437500000000         -6.6377873463135046E-012
  -1.0984375000000000         -1.2751201053727419E-011
  -1.0945312500000000         -1.7351842752949599E-011
  -1.0906250000000000         -2.0192080206798871E-011
  -1.0867187500000000         -2.1179023845107309E-011
  -1.0828125000000000         -2.0390207977575234E-011
  -1.0789062500000000         -1.8057006054677469E-011
  -1.0750000000000000         -1.4548998263969298E-011
  -1.0710937500000000         -1.0333536409051085E-011
  -1.0671875000000000         -5.9279011254559414E-012
  -1.0632812500000000         -1.8526549832831038E-012
  -1.0593750000000000          1.4163804744382365E-012
  -1.0554687500000000          3.4980679121652147E-012
  -1.0515625000000000          4.1424950097321569E-012
  -1.0476562500000000          3.2554290919254295E-012
  -1.0437500000000000          8.9745006635970674E-013
  -1.0398437500000000         -2.7178903606608540E-012
  -1.0359375000000000         -7.2506103384492234E-012
  -1.0320312500000000         -1.2268199512677549E-011
  -1.0281250000000000         -1.7289766604292854E-011
  -1.0242187500000000         -2.1839023220411778E-011
  -1.0203125000000000         -2.5486775813919418E-011
  -1.0164062500000000         -2.7893790091021049E-011
  -1.0125000000000000         -2.8841509022778699E-011
  -1.0085937500000000         -2.8246090071641497E-011
  -1.0046875000000000         -2.6159642387605604E-011
  -1.0007812500000000         -2.2766627126341383E-011
 -0.99687499999999996         -1.8348569988372489E-011
 -0.99296874999999996         -1.3253683795732614E-011
 -0.98906249999999996         -7.8566833816809746E-012
 -0.98515624999999996         -2.5231354052044518E-012
 -0.98124999999999996          2.4323819583388321E-012
 -0.97734374999999996          6.7671209729250232E-012
 -0.97343749999999996          1.0327196367266633E-011
 -0.96953124999999996          1.3054699762953408E-011
 -0.96562499999999996          1.4978538969664185E-011
 -0.96171874999999996          1.6188919774710980E-011
 -0.95781249999999996          1.6814640570488343E-011
 -0.95390624999999996          1.6992558567503267E-011
 -0.94999999999999996          1.6842341329864640E-011
 -0.94609374999999996          1.6436563600206660E-011
 -0.94218749999999996          1.5793227940000219E-011
 -0.93828124999999996          1.4864487918458400E-011
 -0.93437499999999996          1.3552331112467631E-011
 -0.93046874999999996          1.1722823800301570E-011
 -0.92656249999999996          9.2386445494121279E-012
 -0.92265624999999996          5.9832395363928167E-012
 -0.91874999999999996          1.8947839896545725E-012
 -0.91484374999999996         -3.0088418901453763E-012
 -0.91093749999999996         -8.6081816014816149E-012
 -0.90703124999999996         -1.4678486930357590E-011
 -0.90312499999999996         -2.0900771969279297E-011
 -0.89921874999999996         -2.6875915841558765E-011
 -0.89531249999999996         -3.2159423211916401E-011
 -0.89140624999999996         -3.6310748174842950E-011
 -0.88749999999999996         -3.8932434504684280E-011
 -0.88359374999999996         -3.9716446143279447E-011
 -0.87968749999999996         -3.8486477538094782E-011
 -0.87578124999999996         -3.5220166288201036E-011
 -0.87187499999999996         -3.0063282085817473E-011
 -0.86796874999999996         -2.3327222932742466E-011
 -0.86406249999999996         -1.5463863373490960E-011
 -0.86015624999999996         -7.0223081415965873E-012
 -0.85624999999999996          1.3923164954215729E-012
 -0.85234374999999996          9.1770936555722942E-012
 -0.84843749999999996          1.5788029390491673E-011
 -0.84453124999999996          2.0791970259743911E-011
 -0.84062499999999996          2.3906809527344389E-011
 -0.83671874999999996          2.5022199480852996E-011
 -0.83281249999999996          2.4209272154027295E-011
 -0.82890624999999996          2.1713680443337249E-011
 -0.82499999999999996          1.7917167655003347E-011
 -0.82109374999999996          1.3305410392895241E-011
 -0.81718749999999996          8.3986627483606137E-012
 -0.81328124999999996          3.7085753214610161E-012
 -0.80937499999999996         -3.1466617265286181E-013
 -0.80546874999999996         -3.3296078590240134E-012
 -0.80156249999999996         -5.1320336141316266E-012
 -0.79765624999999996         -5.6719745591028859E-012
 -0.79374999999999996         -5.0440985998177354E-012
 -0.78984374999999996         -3.4779028862346629E-012
 -0.78593749999999996         -1.2978368949037902E-012
 -0.78203124999999996          1.1148465835224785E-012
 -0.77812499999999996          3.3772508295752338E-012
 -0.77421874999999996          5.1420338291967120E-012
 -0.77031249999999996          6.1443297918261334E-012
 -0.76640624999999996          6.2221433365062466E-012
 -0.76249999999999996          5.3392682597125725E-012
 -0.75859374999999996          3.5752233798919802E-012
 -0.75468749999999996          1.1175418986098628E-012
 -0.75078124999999996         -1.7705448424379676E-012
 -0.74687499999999996         -4.7871888286634138E-012
 -0.74296874999999996         -7.6300467964742121E-012
 -0.73906249999999996         -1.0033099557169259E-011
 -0.73515624999999996         -1.1796602270075065E-011
 -0.73124999999999996         -1.2812514894919592E-011
 -0.72734374999999996         -1.3070915705028229E-011
 -0.72343749999999996         -1.2663418371662580E-011
 -0.71953124999999996         -1.1754842497597054E-011
 -0.71562499999999996         -1.0564735609110228E-011
 -0.71171874999999996         -9.3257707396724026E-012
 -0.70781249999999996         -8.2536841730815699E-012
 -0.70390624999999996         -7.5166074360430897E-012
 -0.69999999999999996         -7.2108204529182419E-012
 -0.69609374999999996         -7.3386547159874281E-012
 -0.69218749999999996         -7.8128622327096096E-012
 -0.68828124999999996         -8.4696031644918178E-012
 -0.68437499999999996         -9.0873213025582491E-012
 -0.68046874999999996         -9.4158574083461211E-012
 -0.67656249999999996         -9.2087268455490993E-012
 -0.67265624999999996         -8.2659603963722737E-012
 -0.66874999999999996         -6.4557924331935758E-012
 -0.66484374999999996         -3.7540955003344400E-012
 -0.66093749999999996         -2.4122640587735303E-013
 -0.65703124999999996          3.8926813759137469E-012
 -0.65312499999999996          8.3612639530534501E-012
 -0.64921874999999996          1.2805875922860808E-011
 -0.64531249999999996          1.6829489997007549E-011
 -0.64140624999999996          2.0039710246038631E-011
 -0.63749999999999996          2.2087827256473137E-011
 -0.63359374999999996          2.2702484982953588E-011
 -0.62968749999999996          2.1721233231304054E-011
 -0.62578124999999996          1.9113820651157994E-011
 -0.62187499999999996          1.4983804507367981E-011
 -0.61796874999999996          9.5649422345630733E-012
 -0.61406249999999996          3.2016487301387702E-012
 -0.61015624999999996         -3.6829060214045676E-012
 -0.60624999999999996         -1.0628609211914320E-011
 -0.60234374999999996         -1.7173330188353617E-011
 -0.59843749999999996         -2.2895589364154406E-011
 -0.59453124999999996         -2.7452442376810251E-011
 -0.59062499999999996         -3.0596092110095939E-011
 -0.58671874999999996         -3.2204670852066862E-011
 -0.58281249999999996         -3.2279606547511283E-011
 -0.57890624999999996         -3.0937547144501097E-011
 -0.57499999999999996         -2.8390231647624581E-011
 -0.57109374999999996         -2.4923105198776463E-011
 -0.56718749999999996         -2.0865760467414083E-011
 -0.56328124999999996         -1.6549682361229345E-011
 -0.55937499999999996         -1.2286095496894107E-011
 -0.55546874999999996         -8.3397287389154960E-012
 -0.55156249999999996         -4.9070045316888581E-012
 -0.54765624999999996         -2.0990435637579781E-012
 -0.54374999999999996          5.0732513770223035E-014
 -0.53984374999999996          1.5809762288258249E-012
 -0.53593749999999996          2.5856416659101377E-012
 -0.53203124999999996          3.2005368592396557E-012
 -0.52812499999999996          3.5794897392335133E-012
 -0.52421874999999996          3.8695291291274106E-012
 -0.52031249999999996          4.1910449573273269E-012
 -0.51640624999999996          4.6217813802175791E-012
 -0.51249999999999996          5.1898469885573634E-012
 -0.50859374999999996          5.8655225182843873E-012
 -0.50468749999999996          6.5728155613815817E-012
 -0.50078124999999996          7.1993880922254463E-012
 -0.49687499999999996          7.6108806193373529E-012
 -0.49296874999999996          7.6744803360974115E-012
 -0.48906249999999996          7.2721382076330542E-012
 -0.48515624999999996          6.3318525466068427E-012
 -0.48124999999999996          4.8218584079511211E-012
 -0.47734374999999996          2.7682392322823041E-012
 -0.47343749999999996          2.5520670101527635E-013
 -0.46953124999999996         -2.5762038580115961E-012
 -0.46562499999999996         -5.5444846638303032E-012
 -0.46171874999999996         -8.4401651285659865E-012
 -0.45781249999999996         -1.1055713863705784E-011
 -0.45390624999999996         -1.3189725082312143E-011
 -0.44999999999999996         -1.4682618058269155E-011
 -0.44609374999999996         -1.5421114915721088E-011
 -0.44218749999999996         -1.5358685475057189E-011
 -0.43828124999999996         -1.4522313966453551E-011
 -0.43437499999999996         -1.3008333512957863E-011
 -0.43046874999999996         -1.0971221746608956E-011
 -0.42656249999999996         -8.6079050684919657E-012
 -0.42265624999999996         -6.1442943955156471E-012
 -0.41874999999999996         -3.8052429935057531E-012
 -0.41484374999999996         -1.7985011529416561E-012
 -0.41093749999999996         -2.8565499964908090E-013
 -0.40703124999999996          6.3147976334976553E-013
 -0.40312499999999996          9.1882207688133032E-013
 -0.39921874999999996          6.2563070585790936E-013
 -0.39531249999999996         -1.3084737020022724E-013
 -0.39140624999999996         -1.1820110641258291E-012
 -0.38749999999999996         -2.3211440962121553E-012
 -0.38359374999999996         -3.3264039433643562E-012
 -0.37968749999999996         -3.9822895524596641E-012
 -0.37578124999999996         -4.1178165146833072E-012
 -0.37187499999999996         -3.6172654127507114E-012
 -0.36796874999999996         -2.4455496856289332E-012
 -0.36406249999999996         -6.4565734579926502E-013
 -0.36015624999999996          1.6522224545079120E-012
 -0.35624999999999996          4.2512887151304031E-012
 -0.35234374999999996          6.9077596007399706E-012
 -0.34843749999999996          9.3458868456148677E-012
 -0.34453124999999996          1.1298194514888176E-011
 -0.34062499999999996          1.2529535214687213E-011
 -0.33671874999999996          1.2864905661981780E-011
 -0.33281249999999996          1.2213252038123655E-011
 -0.32890624999999996          1.0582484387802359E-011
 -0.32499999999999996          8.0788614042239669E-012
 -0.32109374999999996          4.8892773968370827E-012
 -0.31718749999999996          1.2831458398061471E-012
 -0.31328124999999996         -2.4361707569015739E-012
 -0.30937499999999996         -5.9448843562582414E-012
 -0.30546874999999996         -8.9424622980705414E-012
 -0.30156249999999996         -1.1178508917789782E-011
 -0.29765624999999996         -1.2489957650264863E-011
 -0.29374999999999996         -1.2816425266956754E-011
 -0.28984374999999996         -1.2194780099792874E-011
 -0.28593749999999996         -1.0766720727639015E-011
 -0.28203124999999996         -8.7558333539541408E-012
 -0.27812499999999996         -6.4492814109389932E-012
 -0.27421874999999996         -4.1617611512555460E-012
 -0.27031249999999996         -2.1941834730002774E-012
 -0.26640624999999996         -8.0502583369657091E-013
 -0.26249999999999996         -1.7528882218283678E-013
 -0.25859374999999996         -3.9499755981738061E-013
 -0.25468749999999996         -1.4400252982465972E-012
 -0.25078124999999996         -3.1848593063760986E-012
 -0.24687499999999996         -5.4092270698438402E-012
 -0.24296874999999996         -7.8326973482240901E-012
 -0.23906249999999996         -1.0130543307839787E-011
 -0.23515624999999996         -1.1988458915455714E-011
 -0.23124999999999996         -1.3128993113456908E-011
 -0.22734374999999996         -1.3348346546177416E-011
 -0.22343749999999996         -1.2541627802901589E-011
 -0.21953124999999996         -1.0718076004903114E-011
 -0.21562499999999996         -8.0027062567807531E-012
 -0.21171874999999996         -4.6134236120262881E-012
 -0.20781249999999996         -8.4996301108582475E-013
 -0.20390624999999996          2.9412839420370921E-012
 -0.19999999999999996          6.4069789697661476E-012
 -0.19609374999999996          9.2258831620586972E-012
 -0.19218749999999996          1.1136420480200920E-011
 -0.18828124999999996          1.1964504943141829E-011
 -0.18437499999999996          1.1654097942149108E-011
 -0.18046874999999996          1.0256334139075719E-011
 -0.17656249999999996          7.9186250353304072E-012
 -0.17265624999999996          4.8719215750660204E-012
 -0.16874999999999996          1.3947937298481226E-012
 -0.16484374999999996         -2.2100125346933140E-012
 -0.16093749999999996         -5.6562276608002806E-012
 -0.15703124999999996         -8.7127464539123643E-012
 -0.15312499999999996         -1.1211976857352296E-011
 -0.14921874999999996         -1.3076383000929096E-011
 -0.14531249999999996         -1.4309134066429015E-011
 -0.14140624999999996         -1.4988377799143511E-011
 -0.13749999999999996         -1.5262186961740037E-011
 -0.13359374999999996         -1.5303283812315944E-011
 -0.12968749999999996         -1.5282187752015486E-011
 -0.12578124999999996         -1.5352622524903832E-011
 -0.12187499999999996         -1.5604859601482176E-011
 -0.11796874999999996         -1.6056185295057188E-011
 -0.11406249999999996         -1.6653690591105424E-011
 -0.11015624999999996         -1.7267970488485333E-011
 -0.10624999999999996         -1.7711319325176417E-011
 -0.10234374999999996         -1.7754791939076985E-011
  -9.8437499999999956E-002    -1.7161053759537827E-011
  -9.4531249999999956E-002    -1.5725613981017182E-011
  -9.0624999999999956E-002    -1.3308071716843068E-011
  -8.6718749999999956E-002    -9.8562293419709891E-012
  -8.2812499999999956E-002    -5.4321647010574164E-012
  -7.8906249999999956E-002    -2.0078132879425549E-013
  -7.4999999999999956E-002     5.5600246761301535E-012
  -7.1093749999999956E-002     1.1488041379773065E-011
  -6.7187499999999956E-002     1.7158203915640346E-011
  -6.3281249999999956E-002     2.2127763621166040E-011
  -5.9374999999999956E-002     2.5988213065999263E-011
  -5.5468749999999956E-002     2.8393291447041327E-011
  -5.1562499999999956E-002     2.9101133081613132E-011
  -4.7656249999999956E-002     2.8008485394029326E-011
  -4.3749999999999956E-002     2.5153139247406094E-011
  -3.9843749999999956E-002     2.0722883629369230E-011
  -3.5937499999999956E-002     1.5034395444499741E-011
  -3.2031249999999956E-002     8.5165197212468812E-012
  -2.8124999999999956E-002     1.6622208515102842E-012
  -2.4218749999999956E-002    -5.0121668055230940E-012
  -2.0312499999999956E-002    -1.1020259359599598E-011
  -1.6406249999999956E-002    -1.5938676039965051E-011
  -1.2499999999999956E-002    -1.9451450994238676E-011
  -8.5937499999999556E-003    -2.1369188529048111E-011
  -4.6874999999999556E-003    -2.1644509356259498E-011
  -7.8124999999995559E-004    -2.0356059532764137E-011
   3.1250000000000444E-003    -1.7715666590791665E-011
   7.0312500000000444E-003    -1.4025601535035251E-011
   1.0937500000000044E-002    -9.6477841074486942E-012
   1.4843750000000044E-002    -4.9673613853628698E-012
   1.8750000000000044E-002    -3.5270273624488455E-013
   2.2656250000000044E-002     3.8803748609277033E-012
   2.6562500000000044E-002     7.4852610763609902E-012
   3.0468750000000044E-002     1.0312226628142585E-011
   3.4375000000000044E-002     1.2300179647531279E-011
   3.8281250000000044E-002     1.3480381924482356E-011
   4.2187500000000044E-002     1.3956996709212318E-011
   4.6093750000000044E-002     1.3888953112899232E-011
   5.0000000000000044E-002     1.3464632096457983E-011
   5.3906250000000044E-002     1.2864748549747588E-011
   5.7812500000000044E-002     1.2241963126019464E-011
   6.1718750000000044E-002     1.1721585610311905E-011
   6.5625000000000044E-002     1.1380240874897950E-011
   6.9531250000000044E-002     1.1225972718026018E-011
   7.3437500000000044E-002     1.1229102079627551E-011
   7.7343750000000044E-002     1.1333531404444736E-011
   8.1250000000000044E-002     1.1457688397424265E-011
   8.5156250000000044E-002     1.1520457142574550E-011
   8.9062500000000044E-002     1.1467776692670795E-011
   9.2968750000000044E-002     1.1280566524321114E-011
   9.6875000000000044E-002     1.0980510645481965E-011
  0.10078125000000004          1.0640679169720788E-011
  0.10468750000000004          1.0375418591571584E-011
  0.10859375000000004          1.0323473671972082E-011
  0.11250000000000004          1.0626533780342342E-011
  0.11640625000000004          1.1415801348052816E-011
  0.12031250000000004          1.2783385052307121E-011
  0.12421875000000004          1.4771860301497383E-011
  0.12812500000000004          1.7363626831692716E-011
  0.13203125000000004          2.0445745956735919E-011
  0.13593750000000004          2.3835858694770773E-011
  0.13984375000000004          2.7289145334891601E-011
  0.14375000000000004          3.0520946186453352E-011
  0.14765625000000004          3.3229945880756718E-011
  0.15156250000000004          3.5119220442603957E-011
  0.15546875000000004          3.5944162567708924E-011
  0.15937500000000004          3.5531364370461256E-011
  0.16328125000000004          3.3802825296126024E-011
  0.16718750000000004          3.0792645557997145E-011
  0.17109375000000004          2.6653937311558671E-011
  0.17500000000000004          2.1658807544732163E-011
  0.17890625000000004          1.6177587177444154E-011
  0.18281250000000004          1.0642900574988936E-011
  0.18671875000000004          5.5254663425931205E-012
  0.19062500000000004          1.2894470360856220E-012
  0.19453125000000004         -1.6424654674660303E-012
  0.19843750000000004         -2.9260268891308658E-012
  0.20234375000000004         -2.3323474497767610E-012
  0.20625000000000004          2.3352311771474104E-013
  0.21015625000000004          4.7202840409255549E-012
  0.21406250000000004          1.0944966539098051E-011
  0.21796875000000004          1.8596985922175934E-011
  0.22187500000000004          2.7261374873868117E-011
  0.22578125000000004          3.6459252891609074E-011
  0.22968750000000004          4.5678216747344399E-011
  0.23359375000000004          5.4409739583824620E-011
  0.23750000000000004          6.2187715909592720E-011
  0.24140625000000004          6.8627288156713514E-011
  0.24531250000000004          7.3443265998297176E-011
  0.24921875000000004          7.6470995765367701E-011
  0.25312500000000004          7.7670717592593091E-011
  0.25703125000000004          7.7113470148670108E-011
  0.26093750000000004          7.4971845072073991E-011
  0.26484375000000004          7.1501753460976610E-011
  0.26875000000000004          6.7006792793686873E-011
  0.27265625000000004          6.1818194420267868E-011
  0.27656250000000004          5.6256536705114712E-011
  0.28046875000000004          5.0621125162862136E-011
  0.28437500000000004          4.5167778751562179E-011
  0.28828125000000004          4.0095225148790520E-011
  0.29218750000000004          3.5547100328177823E-011
  0.29609375000000004          3.1615804541557251E-011
  0.30000000000000004          2.8357107616080685E-011
  0.30390625000000004          2.5798623889585820E-011
  0.30781250000000004          2.3953400632792606E-011
  0.31171875000000004          2.2833188624005595E-011
  0.31562500000000004          2.2454562871543644E-011
  0.31953125000000004          2.2843353300541040E-011
  0.32343750000000004          2.4030261994986264E-011
  0.32734375000000004          2.6054866314618386E-011
  0.33125000000000004          2.8933984159732899E-011
  0.33515625000000004          3.2651176400732519E-011
  0.33906250000000004          3.7152460227545322E-011
  0.34296875000000004          4.2320524263589963E-011
  0.34687500000000004          4.7966849492142182E-011
  0.35078125000000004          5.3843100696316275E-011
  0.35468750000000004          5.9618175888753866E-011
  0.35859375000000004          6.4922047970400466E-011
  0.36250000000000004          6.9364939281871896E-011
  0.36640625000000004          7.2564285602202224E-011
  0.37031250000000004          7.4177142529296861E-011
  0.37421875000000004          7.3944728205356319E-011
  0.37812500000000004          7.1719188854826238E-011
  0.38203125000000004          6.7502665014757102E-011
  0.38593750000000004          6.1435871335684560E-011
  0.38984375000000004          5.3799749671680016E-011
  0.39375000000000004          4.5011211919300444E-011
  0.39765625000000004          3.5592177905853424E-011
  0.40156250000000004          2.6123583069039463E-011
  0.40546875000000004          1.7201458502747643E-011
  0.40937500000000004          9.3889413826524835E-012
  0.41328125000000004          3.1564876162600301E-012
  0.41718750000000004         -1.1595068568395061E-012
  0.42109375000000004         -3.3903765444950952E-012
  0.42500000000000004         -3.5409485579085072E-012
  0.42890625000000004         -1.8016679465401858E-012
  0.43281250000000004          1.4615380657231524E-012
  0.43671875000000004          5.7607159882895114E-012
  0.44062500000000004          1.0514326283075968E-011
  0.44453125000000004          1.5099134080430515E-011
  0.44843750000000004          1.8907941693975573E-011
  0.45234375000000004          2.1411002514957119E-011
  0.45625000000000004          2.2188717319779746E-011
  0.46015625000000004          2.0967470020749758E-011
  0.46406250000000004          1.7653710776247249E-011
  0.46796875000000004          1.2313721120353296E-011
  0.47187500000000004          5.1842330741324073E-012
  0.47578125000000004         -3.3761811332332523E-012
  0.47968750000000004         -1.2922864051129751E-011
  0.48359375000000004         -2.2973779095985301E-011
  0.48750000000000004         -3.3043740326922254E-011
  0.49140625000000004         -4.2701268772491127E-011
  0.49531250000000004         -5.1591100577433494E-011
  0.49921875000000004         -5.9462237932734998E-011
  0.50312500000000004         -6.6186511225880008E-011
  0.50703125000000004         -7.1728386849145676E-011
  0.51093750000000004         -7.6153358881272528E-011
  0.51484375000000004         -7.9595677844119056E-011
  0.51875000000000004         -8.2247593445272061E-011
  0.52265625000000004         -8.4300104993265830E-011
  0.52656250000000004         -8.5934257069331205E-011
  0.53046875000000004         -8.7295478474859043E-011
  0.53437500000000004         -8.8477980255569455E-011
  0.53828125000000004         -8.9539021428818241E-011
  0.54218750000000004         -9.0495710900018082E-011
  0.54609375000000004         -9.1349418220576137E-011
  0.55000000000000004         -9.2110204764671847E-011
  0.55390625000000004         -9.2824097943382547E-011
  0.55781250000000004         -9.3572503676461012E-011
  0.56171875000000004         -9.4492514701398965E-011
  0.56562500000000004         -9.5793200126632781E-011
  0.56953125000000004         -9.7735007508017196E-011
  0.57343750000000004         -1.0061041751862890E-010
  0.57734375000000004         -1.0473046878389593E-010
  0.58125000000000004         -1.1037687081824254E-010
  0.58515625000000004         -1.1776641371999505E-010
  0.58906250000000004         -1.2702246328229053E-010
  0.59296875000000004         -1.3813451117822004E-010
  0.59687500000000004         -1.5095522770997804E-010
  0.60078125000000004         -1.6519150653681331E-010
  0.60468750000000004         -1.8041157080657546E-010
  0.60859375000000004         -1.9608363205693532E-010
  0.61250000000000004         -2.1160530695220144E-010
  0.61640625000000004         -2.2634706483044077E-010
  0.62031250000000004         -2.3972345853580355E-010
  0.62421875000000004         -2.5124876401447832E-010
  0.62812500000000004         -2.6055342718476830E-010
  0.63203125000000004         -2.6745154486825339E-010
  0.63593750000000004         -2.7194451530531913E-010
  0.63984375000000004         -2.7422091763204492E-010
  0.64375000000000004         -2.7465330128097654E-010
  0.64765625000000004         -2.7375672603159605E-010
  0.65156250000000004         -2.7213716254951966E-010
  0.65546875000000004         -2.7046025634053796E-010
  0.65937500000000004         -2.6936676652083570E-010
  0.66328125000000004         -2.6943277747792853E-010
  0.66718750000000004         -2.7111053361710065E-010
  0.67109375000000004         -2.7471019874466392E-010
  0.67500000000000004         -2.8037018653537712E-010
  0.67890625000000004         -2.8805531595045157E-010
  0.68281250000000004         -2.9758621832287091E-010
  0.68671875000000004         -3.0866846381705533E-010
  0.69062500000000004         -3.2091622815687727E-010
  0.69453125000000004         -3.3391015843550619E-010
  0.69843750000000004         -3.4723171725327348E-010
  0.70234375000000004         -3.6051675308729500E-010
  0.70625000000000004         -3.7349502993540044E-010
  0.71015625000000004         -3.8598417769230454E-010
  0.71406250000000004         -3.9790520597874602E-010
  0.71796875000000004         -4.0927541760135022E-010
  0.72187500000000004         -4.2019615968865957E-010
  0.72578125000000004         -4.3083018154700029E-010
  0.72968750000000004         -4.4136011784032348E-010
  0.73359375000000004         -4.5195795707881639E-010
  0.73750000000000004         -4.6277967539616371E-010
  0.74140625000000004         -4.7391338436290214E-010
  0.74531250000000004         -4.8539340549374668E-010
  0.74921875000000004         -4.9719504281154309E-010
  0.75312500000000004         -5.0922499735667359E-010
  0.75703125000000004         -5.2136350497640534E-010
  0.76093750000000004         -5.3347028229469541E-010
  0.76484375000000004         -5.4542167417134027E-010
  0.76875000000000004         -5.5712727818388722E-010
  0.77265625000000004         -5.6854406860161014E-010
  0.77656250000000004         -5.7969451015131503E-010
  0.78046875000000004         -5.9067408106450904E-010
  0.78437500000000004         -6.0162985330701926E-010
  0.78828125000000004         -6.1274129864838015E-010
  0.79218750000000004         -6.2420985151848524E-010
  0.79609375000000004         -6.3623324154131515E-010
  0.80000000000000004         -6.4896629188336090E-010
  0.80390625000000004         -6.6251388875797144E-010
  0.80781250000000004         -6.7689241744189800E-010
  0.81171875000000004         -6.9205559194740556E-010
  0.81562500000000004         -7.0786734864334908E-010
  0.81953125000000004         -7.2411112419053195E-010
  0.82343750000000004         -7.4052785984265733E-010
  0.82734375000000004         -7.5685148072565660E-010
  0.83125000000000004         -7.7282544542396127E-010
  0.83515625000000004         -7.8822445856829337E-010
  0.83906250000000004         -8.0289373287754212E-010
  0.84296875000000004         -8.1677727855540736E-010
  0.84687500000000004         -8.2992134689143456E-010
  0.85078125000000004         -8.4247289612464919E-010
  0.85468750000000004         -8.5468001750120098E-010
  0.85859375000000004         -8.6686657876096274E-010
  0.86250000000000004         -8.7938674045162661E-010
  0.86640625000000004         -8.9261818590031087E-010
  0.87031250000000004         -9.0691797750414618E-010
  0.87421875000000004         -9.2257448632387545E-010
  0.87812500000000004         -9.3977150631902338E-010
  0.88203125000000004         -9.5860162318908686E-010
  0.88593750000000004         -9.7903078945022442E-010
  0.88984375000000004         -1.0009094580141181E-009
  0.89375000000000004         -1.0239684701718575E-009
  0.89765625000000004         -1.0478541019283763E-009
  0.90156250000000004         -1.0721551230557412E-009
  0.90546875000000004         -1.0964373084244130E-009
  0.90937500000000004         -1.1202814489427586E-009
  0.91328125000000004         -1.1433191384496930E-009
  0.91718750000000004         -1.1652688124914084E-009
  0.92109375000000004         -1.1859445485614348E-009
  0.92500000000000004         -1.2052734070325435E-009