  -1.2000000000000000          1.7390478556082347E-011
  -1.1960937500000000          1.9450027667946817E-011
  -1.1921875000000000          2.1919572077442922E-011
  -1.1882812500000000          2.4434080598201005E-011
  -1.1843750000000000          2.6463397935252245E-011
  -1.1804687500000000          2.7384919106804226E-011
  -1.1765625000000000          2.6558294685684778E-011
  -1.1726562500000000          2.3465909475496320E-011
  -1.1687500000000000          1.7757432353825592E-011
  -1.1648437500000000          9.3487096612516955E-012
  -1.1609375000000000         -1.5471666222716973E-012
  -1.1570312500000000         -1.4417360315331108E-011
  -1.1531250000000000         -2.8459348983075726E-011
  -1.1492187500000000         -4.2628481651513902E-011
  -1.1453125000000000         -5.5755856459848226E-011
  -1.1414062500000000         -6.6663284819744713E-011
  -1.1375000000000000         -7.4291782465713623E-011
  -1.1335937500000000         -7.7781362308999754E-011
  -1.1296875000000000         -7.6620797182315600E-011
  -1.1257812500000000         -7.0686973370076439E-011
  -1.1218750000000000         -6.0312180863175016E-011
  -1.1179687500000000         -4.6234824602064253E-011
  -1.1140625000000000         -2.9568423490527366E-011
  -1.1101562500000000         -1.1693551772209332E-011
  -1.1062500000000000          5.8586227654421513E-012
  -1.1023437500000000          2.1580284737629232E-011
  -1.0984375000000000          3.4121862676038749E-011
  -1.0945312500000000          4.2448342151542886E-011
  -1.0906250000000000          4.5939385794702037E-011
  -1.0867187500000000          4.4451561896575885E-011
  -1.0828125000000000          3.8375600674364779E-011
  -1.0789062500000000          2.8571001729538876E-011
  -1.0750000000000000          1.6305412620765391E-011
  -1.0710937500000000          3.1063064749226092E-012
  -1.0671875000000000         -9.3954366536827473E-012
  -1.0632812500000000         -1.9625492739897299E-011
  -1.0593750000000000         -2.6250320045692856E-011
  -1.0554687500000000         -2.8317596507443812E-011
  -1.0515625000000000         -2.5352400177584243E-011
  -1.0476562500000000         -1.7404588847948011E-011
  -1.0437500000000000         -5.0642745669904550E-012
  -1.0398437500000000          1.0587632271841325E-011
  -1.0359375000000000          2.8123759062957376E-011
  -1.0320312500000000          4.5872931347986778E-011
  -1.0281250000000000          6.2115283617351683E-011
  -1.0242187500000000          7.5277381853429824E-011
  -1.0203125000000000          8.4079655499173136E-011
  -1.0164062500000000          8.7670037093562355E-011
  -1.0125000000000000          8.5718340836239856E-011
  -1.0085937500000000          7.8440765270084511E-011
  -1.0046875000000000          6.6569541349995145E-011
  -1.0007812500000000          5.1255089726580543E-011
 -0.99687499999999996          3.3937126839380689E-011
 -0.99296874999999996          1.6194367777135043E-011
 -0.98906249999999996         -4.3704429826218278E-013
 -0.98515624999999996         -1.4629816148941526E-011
 -0.98124999999999996         -2.5372512983896960E-011
 -0.97734374999999996         -3.2086834636249850E-011
 -0.97343749999999996         -3.4659600109947104E-011
 -0.96953124999999996         -3.3408940349318831E-011
 -0.96562499999999996         -2.9043123560526234E-011
 -0.96171874999999996         -2.2538012637877586E-011
 -0.95781249999999996         -1.5011888404513007E-011
 -0.95390624999999996         -7.5383104166231390E-012
 -0.94999999999999996         -1.0295955573336228E-012
 -0.94609374999999996          3.8741783729952367E-012
 -0.94218749999999996          6.8739457100824166E-012
 -0.93828124999999996          8.0598366272622560E-012
 -0.93437499999999996          7.8629478870896151E-012
 -0.93046874999999996          6.9731107179848908E-012
 -0.92656249999999996          6.2573880836961077E-012
 -0.92265624999999996          6.5778676266587128E-012
 -0.91874999999999996          8.6672141446915104E-012
 -0.91484374999999996          1.3007744708556898E-011
 -0.91093749999999996          1.9733952639908434E-011
 -0.90703124999999996          2.8585097504170146E-011
 -0.90312499999999996          3.8906009161305791E-011
 -0.89921874999999996          4.9695704751901556E-011
 -0.89531249999999996          5.9716983190936897E-011
 -0.89140624999999996          6.7654655722483715E-011
 -0.88749999999999996          7.2264082605868939E-011
 -0.88359374999999996          7.2537172566179046E-011
 -0.87968749999999996          6.7835159059754880E-011
 -0.87578124999999996          5.7994616052572253E-011
 -0.87187499999999996          4.3390386323306316E-011
 -0.86796874999999996          2.4929665399977355E-011
 -0.86406249999999996          3.9613459695153612E-012
 -0.86015624999999996         -1.7839650280546181E-011
 -0.85624999999999996         -3.8631508508574407E-011
 -0.85234374999999996         -5.6620921084146055E-011
 -0.84843749999999996         -7.0249253349994249E-011
 -0.84453124999999996         -7.8334501208432747E-011
 -0.84062499999999996         -8.0233706470580890E-011
 -0.83671874999999996         -7.5916131179906216E-011
 -0.83281249999999996         -6.5974667466355168E-011
 -0.82890624999999996         -5.1569786837693059E-011
 -0.82499999999999996         -3.4308342144009270E-011
 -0.82109374999999996         -1.6059496400140502E-011
 -0.81718749999999996          1.2485907965841180E-012
 -0.81328124999999996          1.5816465033480069E-011
 -0.80937499999999996          2.6198766074362980E-011
 -0.80546874999999996          3.1440779401045906E-011
 -0.80156249999999996          3.1170399335891233E-011
 -0.79765624999999996          2.5608815901683068E-011
 -0.79374999999999996          1.5570965041376323E-011
 -0.78984374999999996          2.3802797763212864E-012
 -0.78593749999999996         -1.2328552751512378E-011
 -0.78203124999999996         -2.6766386809220556E-011
 -0.77812499999999996         -3.9197987657519606E-011
 -0.77421874999999996         -4.8135798122807537E-011
 -0.77031249999999996         -5.2508247782270306E-011
 -0.76640624999999996         -5.1757438921690804E-011
 -0.76249999999999996         -4.5915950488859926E-011
 -0.75859374999999996         -3.5523427780889580E-011
 -0.75468749999999996         -2.1617824368817595E-011
 -0.75078124999999996         -5.5746411513045337E-012
 -0.74687499999999996          1.1044605923322759E-011
 -0.74296874999999996          2.6687161400457098E-011
 -0.73906249999999996          3.9973642033562925E-011
 -0.73515624999999996          4.9841428982437292E-011
 -0.73124999999999996          5.5643710934444073E-011
 -0.72734374999999996          5.7210527263499602E-011
 -0.72343749999999996          5.4820112511993119E-011
 -0.71953124999999996          4.9186517499755280E-011
 -0.71562499999999996          4.1297612417331761E-011
 -0.71171874999999996          3.2292058786020827E-011
 -0.70781249999999996          2.3316341437444574E-011
 -0.70390624999999996          1.5369896378074540E-011
 -0.69999999999999996          9.1859511795822437E-012
 -0.69609374999999996          5.1409566197890376E-012
 -0.69218749999999996          3.2420879384653662E-012
 -0.68828124999999996          3.1192971790982456E-012
 -0.68437499999999996          4.1221474179461639E-012
 -0.68046874999999996          5.3961407254241010E-012
 -0.67656249999999996          6.0379472213717428E-012
 -0.67265624999999996          5.2256933474015830E-012
 -0.66874999999999996          2.3628312460475419E-012
 -0.66484374999999996         -2.8193910104556731E-012
 -0.66093749999999996         -1.0233946713140194E-011
 -0.65703124999999996         -1.9395085010221314E-011
 -0.65312499999999996         -2.9454438148480266E-011
 -0.64921874999999996         -3.9297649855870328E-011
 -0.64531249999999996         -4.7651560587753120E-011
 -0.64140624999999996         -5.3268155621202089E-011
 -0.63749999999999996         -5.5035572775334981E-011
 -0.63359374999999996         -5.2132790640605967E-011
 -0.62968749999999996         -4.4153014680314325E-011
 -0.62578124999999996         -3.1192354813155778E-011
 -0.62187499999999996         -1.3850740956865918E-011
 -0.61796874999999996          6.8126331623737617E-012
 -0.61406249999999996          2.9362954340702707E-011
 -0.61015624999999996          5.2129670048413804E-011
 -0.60624999999999996          7.3355178367640204E-011
 -0.60234374999999996          9.1360891138730919E-011
 -0.59843749999999996          1.0471656356572624E-010
 -0.59453124999999996          1.1237858392489390E-010
 -0.59062499999999996          1.1378319794336661E-010
 -0.58671874999999996          1.0891808631225091E-010
 -0.58281249999999996          9.8290393388928619E-011
 -0.57890624999999996          8.2868928309101080E-011
 -0.57499999999999996          6.4010559448062335E-011
 -0.57109374999999996          4.3276784583843240E-011
 -0.56718749999999996          2.2345196873616075E-011
 -0.56328124999999996          2.7787705882489262E-012
 -0.55937499999999996         -1.4054293382054776E-011
 -0.55546874999999996         -2.7143645994243657E-011
 -0.55156249999999996         -3.5894385940543534E-011
 -0.54765624999999996         -4.0163168650775293E-011
 -0.54374999999999996         -4.0238571469601074E-011
 -0.53984374999999996         -3.6772950573981509E-011
 -0.53593749999999996         -3.0717311188421446E-011
 -0.53203124999999996         -2.3174594222214848E-011
 -0.52812499999999996         -1.5266152122722029E-011
 -0.52421874999999996         -8.0416526807260840E-012
 -0.52031249999999996         -2.3396605917422011E-012
 -0.51640624999999996          1.2826082806619868E-012
 -0.51249999999999996          2.5708614125170362E-012
 -0.50859374999999996          1.6023916976208502E-012
 -0.50468749999999996         -1.2565604293502134E-012
 -0.50078124999999996         -5.4177434392467840E-012
 -0.49687499999999996         -1.0161107308952545E-011
 -0.49296874999999996         -1.4709653934292686E-011
 -0.48906249999999996         -1.8328611219612762E-011
 -0.48515624999999996         -2.0433291548901261E-011
 -0.48124999999999996         -2.0672273101846967E-011
 -0.47734374999999996         -1.8926154843227832E-011
 -0.47343749999999996         -1.5352950063479848E-011
 -0.46953124999999996         -1.0324680794520357E-011
 -0.46562499999999996         -4.3975924789412122E-012
 -0.46171874999999996          1.7588678173925145E-012
 -0.45781249999999996          7.4583517225277254E-012
 -0.45390624999999996          1.2065554928624291E-011
 -0.44999999999999996          1.5094251745525925E-011
 -0.44609374999999996          1.6266953113442688E-011
 -0.44218749999999996          1.5509718310746497E-011
 -0.43828124999999996          1.3012717448012717E-011
 -0.43437499999999996          9.1856328599865551E-012
 -0.43046874999999996          4.6102210705543864E-012
 -0.42656249999999996         -1.0573312673026876E-014
 -0.42265624999999996         -3.9785921949873028E-012
 -0.41874999999999996         -6.6550034162610143E-012
 -0.41484374999999996         -7.5491400119177649E-012
 -0.41093749999999996         -6.4020367924526068E-012
 -0.40703124999999996         -3.2138883534643964E-012
 -0.40312499999999996          1.7432720104020842E-012
 -0.39921874999999996          7.9089540768223739E-012
 -0.39531249999999996          1.4544560988662470E-011
 -0.39140624999999996          2.0751767487942113E-011
 -0.38749999999999996          2.5597810225695290E-011
 -0.38359374999999996          2.8218409185702151E-011
 -0.37968749999999996          2.7909868838472389E-011
 -0.37578124999999996          2.4248222528353840E-011
 -0.37187499999999996          1.7118728671079786E-011
 -0.36796874999999996          6.7861499199297557E-012
 -0.36406249999999996         -6.1486064036117262E-012
 -0.36015624999999996         -2.0752895461648447E-011
 -0.35624999999999996         -3.5852036122574147E-011
 -0.35234374999999996         -5.0125511537023392E-011
 -0.34843749999999996         -6.2252426862734538E-011
 -0.34453124999999996         -7.1025700124859099E-011
 -0.34062499999999996         -7.5482089415195209E-011
 -0.33671874999999996         -7.4980919384437130E-011
 -0.33281249999999996         -6.9318382091693096E-011
 -0.32890624999999996         -5.8712688617334763E-011
 -0.32499999999999996         -4.3807602108083310E-011
 -0.32109374999999996         -2.5652307782125113E-011
 -0.31718749999999996         -5.5705546176712518E-012
 -0.31328124999999996          1.4927237875102292E-011
 -0.30937499999999996          3.4304264394284589E-011
 -0.30546874999999996          5.1166201917378520E-011
 -0.30156249999999996          6.4366120826401747E-011
 -0.29765624999999996          7.3102240715260283E-011
 -0.29374999999999996          7.6992720472319720E-011
 -0.28984374999999996          7.6116517065551004E-011
 -0.28593749999999996          7.0980385997974571E-011
 -0.28203124999999996          6.2453109456003507E-011
 -0.27812499999999996          5.1662249294282963E-011
 -0.27421874999999996          3.9860509281856322E-011
 -0.27031249999999996          2.8310234101112955E-011
 -0.26640624999999996          1.8121433587034197E-011
 -0.26249999999999996          1.0148542765103916E-011
 -0.25859374999999996          4.8905014855288143E-012
 -0.25468749999999996          2.4845384791136687E-012
 -0.25078124999999996          2.6796203159741796E-012
 -0.24687499999999996          4.8989376519340343E-012
 -0.24296874999999996          8.3222935356088209E-012
 -0.23906249999999996          1.1981787077468340E-011
 -0.23515624999999996          1.4935931428302246E-011
 -0.23124999999999996          1.6371426769186763E-011
 -0.22734374999999996          1.5732018032974888E-011
 -0.22343749999999996          1.2765353684948812E-011
 -0.21953124999999996          7.5733526719542178E-012
 -0.21562499999999996          5.9578338660634530E-013
 -0.21171874999999996         -7.4152635256000360E-012
 -0.20781249999999996         -1.5518927750773541E-011
 -0.20390624999999996         -2.2701797656296636E-011
 -0.19999999999999996         -2.7969542617002428E-011
 -0.19609374999999996         -3.0544474964142932E-011
 -0.19218749999999996         -2.9923305179140218E-011
 -0.18828124999999996         -2.5953393174971284E-011
 -0.18437499999999996         -1.8883285664909115E-011
 -0.18046874999999996         -9.3198483128330573E-012
 -0.17656249999999996          1.8124064015811730E-012
 -0.17265624999999996          1.3389643719090923E-011
 -0.16874999999999996          2.4216221228090134E-011
 -0.16484374999999996          3.3152671766424688E-011
 -0.16093749999999996          3.9271529496714831E-011
 -0.15703124999999996          4.1957918696207758E-011
 -0.15312499999999996          4.1000065530849219E-011
 -0.14921874999999996          3.6625423527056863E-011
 -0.14531249999999996          2.9463275981108983E-011
 -0.14140624999999996          2.0467436153084524E-011
 -0.13749999999999996          1.0808722024201781E-011
 -0.13359374999999996          1.7403614814555741E-012
 -0.12968749999999996         -5.5504406322508676E-012
 -0.12578124999999996         -1.0111611022380034E-011
 -0.12187499999999996         -1.1355106021709732E-011
 -0.11796874999999996         -9.1232833810066522E-012
 -0.11406249999999996         -3.7082021052322262E-012
 -0.11015624999999996          4.1391851789927502E-012
 -0.10624999999999996          1.3333735687524345E-011
 -0.10234374999999996          2.2567099303469614E-011
  -9.8437499999999956E-002     3.0451275330964858E-011
  -9.4531249999999956E-002     3.5682128402986459E-011
  -9.0624999999999956E-002     3.7211224722251462E-011
  -8.6718749999999956E-002     3.4359183123784016E-011
  -8.2812499999999956E-002     2.6972739042269013E-011
  -7.8906249999999956E-002     1.5381615315990624E-011
  -7.4999999999999956E-002     3.9993164129431749E-013
  -7.1093749999999956E-002    -1.6724133532881848E-011
  -6.7187499999999956E-002    -3.4455853918869667E-011
  -6.3281249999999956E-002    -5.1161019921171977E-011
  -5.9374999999999956E-002    -6.5241371224829793E-011
  -5.5468749999999956E-002    -7.5381807795691441E-011
  -5.1562499999999956E-002    -8.0619343265859278E-011
  -4.7656249999999956E-002    -8.0466737342163691E-011
  -4.3749999999999956E-002    -7.4967250456998783E-011
  -3.9843749999999956E-002    -6.4684176348218206E-011
  -3.5937499999999956E-002    -5.0646921257983636E-011
  -3.2031249999999956E-002    -3.4238639658975903E-011
  -2.8124999999999956E-002    -1.7005743705547338E-011
  -2.4218749999999956E-002    -5.2775296371418819E-013
  -2.0312499999999956E-002     1.3773660119466144E-011
  -1.6406249999999956E-002     2.4787940333392389E-011
  -1.2499999999999956E-002     3.1808411510455888E-011
  -8.5937499999999556E-003     3.4613759072362499E-011
  -4.6874999999999556E-003     3.3426936127200083E-011
  -7.8124999999995559E-004     2.8905971949015716E-011
   3.1250000000000444E-003     2.2037855809895237E-011
   7.0312500000000444E-003     1.3992003416769505E-011
   1.0937500000000044E-002     5.9660493020387292E-012
   1.4843750000000044E-002    -9.3740901886553546E-013
   1.8750000000000044E-002    -5.8663800670034923E-012
   2.2656250000000044E-002    -8.2877266941365278E-012
   2.6562500000000044E-002    -8.0347737053200329E-012
   3.0468750000000044E-002    -5.3759721268720864E-012
   3.4375000000000044E-002    -8.9003866103278127E-013
   3.8281250000000044E-002     4.6051108067541115E-012
   4.2187500000000044E-002     1.0168847415080481E-011
   4.6093750000000044E-002     1.4848955381500768E-011
   5.0000000000000044E-002     1.7812519186944577E-011
   5.3906250000000044E-002     1.8477992486705636E-011
   5.7812500000000044E-002     1.6568286752054037E-011
   6.1718750000000044E-002     1.2178983999926032E-011
   6.5625000000000044E-002     5.7473061758693195E-012
   6.9531250000000044E-002    -1.9961438416962422E-012
   7.3437500000000044E-002    -1.0119009292465370E-011
   7.7343750000000044E-002    -1.7622413575126430E-011
   8.1250000000000044E-002    -2.3551635210681974E-011
   8.5156250000000044E-002    -2.7124582677984467E-011
   8.9062500000000044E-002    -2.7844229318416833E-011
   9.2968750000000044E-002    -2.5527220889057725E-011
   9.6875000000000044E-002    -2.0368027621609300E-011
  0.10078125000000004         -1.2901599076184528E-011
  0.10468750000000004         -3.9232627275840750E-012
  0.10859375000000004          5.5934513077589773E-012
  0.11250000000000004          1.4584439850497037E-011
  0.11640625000000004          2.2058878056588154E-011
  0.12031250000000004          2.7214574259115884E-011
  0.12421875000000004          2.9513091158419819E-011
  0.12812500000000004          2.8766408150151397E-011
  0.13203125000000004          2.5175578518185253E-011
  0.13593750000000004          1.9270809613235591E-011
  0.13984375000000004          1.1904454255934124E-011
  0.14375000000000004          4.0992315743617645E-012
  0.14765625000000004         -3.0377545048668515E-012
  0.15156250000000004         -8.4470290429973568E-012
  0.15546875000000004         -1.1245560422859449E-011
  0.15937500000000004         -1.0827354559011344E-011
  0.16328125000000004         -6.9461165455062249E-012
  0.16718750000000004          2.4444298506008480E-013
  0.17109375000000004          1.0232145265773978E-011
  0.17500000000000004          2.2155390404199375E-011
  0.17890625000000004          3.4908172542122474E-011
  0.18281250000000004          4.7243771116690332E-011
  0.18671875000000004          5.7891606351473853E-011
  0.19062500000000004          6.5691736023134835E-011
  0.19453125000000004          6.9716363406611584E-011
  0.19843750000000004          6.9365595686817975E-011
  0.20234375000000004          6.4417187380096129E-011
  0.20625000000000004          5.5045844014228836E-011
  0.21015625000000004          4.1832199417671417E-011
  0.21406250000000004          2.5663665267472012E-011
  0.21796875000000004          7.7029951871080027E-012
  0.22187500000000004         -1.0748131878219179E-011
  0.22578125000000004         -2.8378090654395054E-011
  0.22968750000000004         -4.3967336326093840E-011
  0.23359375000000004         -5.6509802949422923E-011
  0.23750000000000004         -6.5270522602125798E-011
  0.24140625000000004         -6.9862834454536780E-011
  0.24531250000000004         -7.0253998694178679E-011
  0.24921875000000004         -6.6753684546412761E-011
  0.25312500000000004         -5.9964348108908016E-011
  0.25703125000000004         -5.0680142832908584E-011
  0.26093750000000004         -3.9833167630253303E-011
  0.26484375000000004         -2.8380986570157027E-011
  0.26875000000000004         -1.7242312915881665E-011
  0.27265625000000004         -7.1795069505474096E-012
  0.27656250000000004          1.2534320621937257E-012
  0.28046875000000004          7.7395308949776416E-012
  0.28437500000000004          1.2168968848489626E-011
  0.28828125000000004          1.4668854815047053E-011
  0.29218750000000004          1.5532066386451345E-011
  0.29609375000000004          1.5175321415677231E-011
  0.30000000000000004          1.4068173820226439E-011
  0.30390625000000004          1.2662777832285602E-011
  0.30781250000000004          1.1304803335218591E-011
  0.31171875000000004          1.0207967293510396E-011
  0.31562500000000004          9.4196666804143063E-012
  0.31953125000000004          8.8284184435742865E-012
  0.32343750000000004          8.1629431201199374E-012
  0.32734375000000004          7.0581732801947111E-012
  0.33125000000000004          5.1131924865790949E-012
  0.33515625000000004          1.9601554533984124E-012
  0.33906250000000004         -2.6657336053735929E-012
  0.34296875000000004         -8.8594439194792499E-012
  0.34687500000000004         -1.6492121046221433E-011
  0.35078125000000004         -2.5223419898295350E-011
  0.35468750000000004         -3.4514631944358963E-011
  0.35859375000000004         -4.3641828899662914E-011
  0.36250000000000004         -5.1814559971124219E-011
  0.36640625000000004         -5.8203719462695300E-011
  0.37031250000000004         -6.2051258618300264E-011
  0.37421875000000004         -6.2764377354375133E-011
  0.37812500000000004         -6.0008345726170967E-011
  0.38203125000000004         -5.3737829667150988E-011
  0.38593750000000004         -4.4291683025248459E-011
  0.38984375000000004         -3.2297754200946001E-011
  0.39375000000000004         -1.8676119336751702E-011
  0.39765625000000004         -4.5656056942910190E-012
  0.40156250000000004          8.7787123572626837E-012
  0.40546875000000004          2.0121400285555835E-011
  0.40937500000000004          2.8361256470088132E-011
  0.41328125000000004          3.2690941963516075E-011
  0.41718750000000004          3.2636028363229396E-011
  0.42109375000000004          2.8209560132003721E-011
  0.42500000000000004          1.9843778700264245E-011
  0.42890625000000004          8.4089842461095660E-012
  0.43281250000000004         -4.9048564840335419E-012
  0.43671875000000004         -1.8685219530659571E-011
  0.44062500000000004         -3.1403503407385937E-011
  0.44453125000000004         -4.1582828425984138E-011
  0.44843750000000004         -4.8000288412721431E-011
  0.45234375000000004         -4.9790237402566526E-011
  0.45625000000000004         -4.6529131732326205E-011
  0.46015625000000004         -3.8268664119177021E-011
  0.46406250000000004         -2.5588915151201281E-011
  0.46796875000000004         -9.5038148444426933E-012
  0.47187500000000004          8.6613214226562646E-012
  0.47578125000000004          2.7328976132632564E-011
  0.47968750000000004          4.4896688293043449E-011
  0.48359375000000004          5.9862134577377539E-011
  0.48750000000000004          7.0995198924470941E-011
  0.49140625000000004          7.7444343414503086E-011
  0.49531250000000004          7.8801867848371313E-011
  0.49921875000000004          7.5146454969439718E-011
  0.50312500000000004          6.7026285493570937E-011
  0.50703125000000004          5.5374781533923397E-011
  0.51093750000000004          4.1408792036187378E-011
  0.51484375000000004          2.6452521954556402E-011
  0.51875000000000004          1.1807401507602816E-011
  0.52265625000000004         -1.3787359975101653E-012
  0.52656250000000004         -1.2249160767722390E-011
  0.53046875000000004         -2.0347151482491779E-011
  0.53437500000000004         -2.5565757936853580E-011
  0.53828125000000004         -2.8164054491673765E-011
  0.54218750000000004         -2.8702171775471938E-011
  0.54609375000000004         -2.7947102704015906E-011
  0.55000000000000004         -2.6717711662199442E-011
  0.55390625000000004         -2.5759635480705172E-011
  0.55781250000000004         -2.5651198222490417E-011
  0.56171875000000004         -2.6662288562338723E-011
  0.56562500000000004         -2.8732453370903335E-011
  0.56953125000000004         -3.1475335972467313E-011
  0.57343750000000004         -3.4250609695496465E-011
  0.57734375000000004         -3.6189827799847790E-011
  0.58125000000000004         -3.6383268196400247E-011
  0.58515625000000004         -3.3995372225350775E-011
  0.58906250000000004         -2.8425600127820070E-011
  0.59296875000000004         -1.9439347125553019E-011
  0.59687500000000004         -7.2015476353669423E-012
  0.60078125000000004          7.6610169499213854E-012
  0.60468750000000004          2.4072899543646732E-011
  0.60859375000000004          4.0639796654837978E-011
  0.61250000000000004          5.5765788716254500E-011
  0.61640625000000004          6.7820238830246493E-011
  0.62031250000000004          7.5339156633031913E-011
  0.62421875000000004          7.7168621649700406E-011
  0.62812500000000004          7.2654180104368168E-011
  0.63203125000000004          6.1712579254880256E-011
  0.63593750000000004          4.4901291480123645E-011
  0.63984375000000004          2.3345009187407445E-011
  0.64375000000000004         -1.3303848716067971E-012
  0.64765625000000004         -2.7167982581405348E-011
  0.65156250000000004         -5.2069486868540084E-011
  0.65546875000000004         -7.3984223634663735E-011
  0.65937500000000004         -9.1146939745320868E-011
  0.66328125000000004         -1.0225198523080562E-010
  0.66718750000000004         -1.0657810284511164E-010
  0.67109375000000004         -1.0407552675058892E-010
  0.67500000000000004         -9.5301203883703699E-011
  0.67890625000000004         -8.1406494651161320E-011
  0.68281250000000004         -6.3986002429374821E-011
  0.68671875000000004         -4.4880086579612159E-011
  0.69062500000000004         -2.6002466751136434E-011
  0.69453125000000004         -9.1494932905091885E-012
  0.69843750000000004          4.2414240428455301E-012
  0.70234375000000004          1.3158021220700689E-011
  0.70625000000000004          1.7142664390915048E-011
  0.71015625000000004          1.6315958842329577E-011
  0.71406250000000004          1.1288177827947971E-011
  0.71796875000000004          3.0980087906289425E-012
  0.72187500000000004         -6.9564954864762456E-012
  0.72578125000000004         -1.7458119393640684E-011
  0.72968750000000004         -2.7071124549625961E-011
  0.73359375000000004         -3.4669156621341136E-011
  0.73750000000000004         -3.9471584742733618E-011
  0.74140625000000004         -4.1101004073059290E-011
  0.74531250000000004         -3.9621643600211551E-011
  0.74921875000000004         -3.5492653920705903E-011
  0.75312500000000004         -2.9459934416255161E-011
  0.75703125000000004         -2.2436333019151873E-011
  0.76093750000000004         -1.5362150854501880E-011
  0.76484375000000004         -9.1013093205666853E-012
  0.76875000000000004         -4.3141462472851286E-012
  0.77265625000000004         -1.3263256208595939E-012
  0.77656250000000004         -1.6317347885539875E-013
  0.78046875000000004         -4.9468964102819792E-013
  0.78437500000000004         -1.7160350037316682E-012
  0.78828125000000004         -3.0743806336760398E-012
  0.79218750000000004         -3.7476890219016799E-012
  0.79609375000000004         -3.0111226144325129E-012
  0.80000000000000004         -3.5908834794516834E-013
  0.80390625000000004          4.4599932048306953E-012
  0.80781250000000004          1.1332670787429102E-011
  0.81171875000000004          1.9750446694772172E-011
  0.81562500000000004          2.8916564069452988E-011
  0.81953125000000004          3.7801871897461059E-011
  0.82343750000000004          4.5246481759278503E-011
  0.82734375000000004          5.0149974048620895E-011
  0.83125000000000004          5.1546357743111477E-011
  0.83515625000000004          4.8769266156295944E-011
  0.83906250000000004          4.1553993244856627E-011
  0.84296875000000004          3.0118187118318527E-011
  0.84687500000000004          1.5096857844171264E-011
  0.85078125000000004         -2.4619618374321526E-012
  0.85468750000000004         -2.1160186491032443E-011
  0.85859375000000004         -3.9415721032999178E-011
  0.86250000000000004         -5.5665041798708875E-011
  0.86640625000000004         -6.8440690323837135E-011
  0.87031250000000004         -7.6513069597203552E-011
  0.87421875000000004         -7.9077715676168432E-011
  0.87812500000000004         -7.5826507714500329E-011
  0.88203125000000004         -6.6939107477883926E-011
  0.88593750000000004         -5.3130745231342189E-011
  0.88984375000000004         -3.5483219649419951E-011
  0.89375000000000004         -1.5444667933282171E-011
  0.89765625000000004          5.3687430895988538E-012
  0.90156250000000004          2.5324723451816386E-011
  0.90546875000000004          4.2929679977490248E-011
  0.90937500000000004          5.6946683858229767E-011
  0.91328125000000004          6.6484262290797597E-011
  0.91718750000000004          7.1072483330948797E-011
  0.92109375000000004          7.0659379053628344E-011
  0.92500000000000004          6.5662465292473103E-011