  -1.2000000000000000         -4.4788269669141586E-006
  -1.1960937500000000         -4.4852667755281381E-006
  -1.1921875000000000         -4.4917256682887680E-006
  -1.1882812500000000         -4.4982014127073767E-006
  -1.1843750000000000         -4.5046913098856373E-006
  -1.1804687500000000         -4.5111915693483198E-006
  -1.1765625000000000         -4.5176972936781272E-006
  -1.1726562500000000         -4.5242048150184687E-006
  -1.1687500000000000         -4.5307098340389250E-006
  -1.1648437500000000         -4.5372096698365032E-006
  -1.1609375000000000         -4.5437029985559190E-006
  -1.1570312500000000         -4.5501897792276557E-006
  -1.1531250000000000         -4.5566719074386993E-006
  -1.1492187500000000         -4.5631517548156757E-006
  -1.1453125000000000         -4.5696331680844596E-006
  -1.1414062500000000         -4.5761202787017009E-006
  -1.1375000000000000         -4.5826177062697017E-006
  -1.1335937500000000         -4.5891292073780261E-006
  -1.1296875000000000         -4.5956576058923214E-006
  -1.1257812500000000         -4.6022050165396296E-006
  -1.1218750000000000         -4.6087718394720970E-006
  -1.1179687500000000         -4.6153565770280438E-006
  -1.1140625000000000         -4.6219567965572244E-006
  -1.1101562500000000         -4.6285694831750406E-006
  -1.1062500000000000         -4.6351900104852525E-006
  -1.1023437500000000         -4.6418142267712276E-006
  -1.0984375000000000         -4.6484378714452260E-006
  -1.0945312500000000         -4.6550577976555127E-006
  -1.0906250000000000         -4.6616713956514211E-006
  -1.0867187500000000         -4.6682784281757178E-006
  -1.0828125000000000         -4.6748790502566916E-006
  -1.0789062500000000         -4.6814758053904350E-006
  -1.0750000000000000         -4.6880717243140726E-006
  -1.0710937500000000         -4.6946705947886300E-006
  -1.0671875000000000         -4.7012770182992352E-006
  -1.0632812500000000         -4.7078948236604627E-006
  -1.0593750000000000         -4.7145279395372206E-006
  -1.0554687500000000         -4.7211784919419792E-006
  -1.0515625000000000         -4.7278484994543092E-006
  -1.0476562500000000         -4.7345372713426913E-006
  -1.0437500000000000         -4.7412436046016202E-006
  -1.0398437500000000         -4.7479652891338548E-006
  -1.0359375000000000         -4.7546985552955437E-006
  -1.0320312500000000         -4.7614396471525568E-006
  -1.0281250000000000         -4.7681842859999800E-006
  -1.0242187500000000         -4.7749290929135740E-006
  -1.0203125000000000         -4.7816710921282959E-006
  -1.0164062500000000         -4.7884082899756893E-006
  -1.0125000000000000         -4.7951405045823559E-006
  -1.0085937500000000         -4.8018681502248487E-006
  -1.0046875000000000         -4.8085933551454082E-006
  -1.0007812500000000         -4.8153191183761067E-006
 -0.99687499999999996         -4.8220486939957034E-006
 -0.99296874999999996         -4.8287861971209572E-006
 -0.98906249999999996         -4.8355346407835724E-006
 -0.98515624999999996         -4.8422965350057260E-006
 -0.98124999999999996         -4.8490746372737154E-006
 -0.97734374999999996         -4.8558690365263898E-006
 -0.97343749999999996         -4.8626798050614416E-006
 -0.96953124999999996         -4.8695059554265542E-006
 -0.96562499999999996         -4.8763446681521788E-006
 -0.96171874999999996         -4.8831931507008461E-006
 -0.95781249999999996         -4.8900482035890007E-006
 -0.95390624999999996         -4.8969064276324255E-006
 -0.94999999999999996         -4.9037654916782250E-006
 -0.94609374999999996         -4.9106231039829662E-006
 -0.94218749999999996         -4.9174783937946285E-006
 -0.93828124999999996         -4.9243313726914816E-006
 -0.93437499999999996         -4.9311830482639810E-006
 -0.93046874999999996         -4.9380350305969120E-006
 -0.92656249999999996         -4.9448904032650966E-006
 -0.92265624999999996         -4.9517515361754622E-006
 -0.91874999999999996         -4.9586222284584947E-006
 -0.91484374999999996         -4.9655051293961688E-006
 -0.91093749999999996         -4.9724019560801335E-006
 -0.90703124999999996         -4.9793143951671236E-006
 -0.90312499999999996         -4.9862431558684228E-006
 -0.89921874999999996         -4.9931875833477895E-006
 -0.89531249999999996         -5.0001461466612313E-006
 -0.89140624999999996         -5.0071163290653089E-006
 -0.88749999999999996         -5.0140954584983868E-006
 -0.88359374999999996         -5.0210810312713144E-006
 -0.87968749999999996         -5.0280695462067383E-006
 -0.87578124999999996         -5.0350590132550253E-006
 -0.87187499999999996         -5.0420477797291403E-006
 -0.86796874999999996         -5.0490347433495034E-006
 -0.86406249999999996         -5.0560202179709364E-006
 -0.86015624999999996         -5.0630055475141807E-006
 -0.85624999999999996         -5.0699922581502537E-006
 -0.85234374999999996         -5.0769826850391037E-006
 -0.84843749999999996         -5.0839797227953723E-006
 -0.84453124999999996         -5.0909864407014059E-006
 -0.84062499999999996         -5.0980053646319100E-006
 -0.83671874999999996         -5.1050379156623288E-006
 -0.83281249999999996         -5.1120856417610037E-006
 -0.82890624999999996         -5.1191489858911362E-006
 -0.82499999999999996         -5.1262270519635535E-006
 -0.82109374999999996         -5.1333187026739578E-006
 -0.81718749999999996         -5.1404215300659880E-006
 -0.81328124999999996         -5.1475335261673577E-006
 -0.80937499999999996         -5.1546516717238249E-006
 -0.80546874999999996         -5.1617734956239562E-006
 -0.80156249999999996         -5.1688969904895741E-006
 -0.79765624999999996         -5.1760208448209408E-006
 -0.79374999999999996         -5.1831440521204266E-006
 -0.78984374999999996         -5.1902667086308939E-006
 -0.78593749999999996         -5.1973900854766719E-006
 -0.78203124999999996         -5.2045161538621063E-006
 -0.77812499999999996         -5.2116468357407125E-006
 -0.77421874999999996         -5.2187847386476730E-006
 -0.77031249999999996         -5.2259323793150717E-006
 -0.76640624999999996         -5.2330919673414306E-006
 -0.76249999999999996         -5.2402654095878085E-006
 -0.75859374999999996         -5.2474536238188616E-006
 -0.75468749999999996         -5.2546568186606414E-006
 -0.75078124999999996         -5.2618747433293645E-006
 -0.74687499999999996         -5.2691053877939751E-006
 -0.74296874999999996         -5.2763467532248105E-006
 -0.73906249999999996         -5.2835967409418745E-006
 -0.73515624999999996         -5.2908533888107642E-006
 -0.73124999999999996         -5.2981140214900925E-006
 -0.72734374999999996         -5.3053763551089081E-006
 -0.72343749999999996         -5.3126396737460234E-006
 -0.71953124999999996         -5.3199036620092712E-006
 -0.71562499999999996         -5.3271688022940277E-006
 -0.71171874999999996         -5.3344360821479982E-006
 -0.70781249999999996         -5.3417075365133531E-006
 -0.70390624999999996         -5.3489851800722807E-006
 -0.69999999999999996         -5.3562713541118837E-006
 -0.69609374999999996         -5.3635683000575792E-006
 -0.69218749999999996         -5.3708780659671507E-006
 -0.68828124999999996         -5.3782017766826096E-006
 -0.68437499999999996         -5.3855396838582947E-006
 -0.68046874999999996         -5.3928916939655505E-006
 -0.67656249999999996         -5.4002562947489582E-006
 -0.67265624999999996         -5.4076323878149664E-006
 -0.66874999999999996         -5.4150174566260120E-006
 -0.66484374999999996         -5.4224096617503655E-006
 -0.66093749999999996         -5.4298064936616350E-006
 -0.65703124999999996         -5.4372064137286242E-006
 -0.65312499999999996         -5.4446079082426036E-006
 -0.64921874999999996         -5.4520105024134756E-006
 -0.64531249999999996         -5.4594146674352213E-006
 -0.64140624999999996         -5.4668212855654520E-006
 -0.63749999999999996         -5.4742323187440496E-006
 -0.63359374999999996         -5.4816494358147712E-006
 -0.62968749999999996         -5.4890748600131802E-006
 -0.62578124999999996         -5.4965111640320933E-006
 -0.62187499999999996         -5.5039597574556518E-006
 -0.61796874999999996         -5.5114220514280489E-006
 -0.61406249999999996         -5.5188984639173407E-006
 -0.61015624999999996         -5.5263888467156316E-006
 -0.60624999999999996         -5.5338922428319711E-006
 -0.60234374999999996         -5.5414075650742003E-006
 -0.59843749999999996         -5.5489326110381344E-006
 -0.59453124999999996         -5.5564652233688420E-006
 -0.59062499999999996         -5.5640032362355572E-006
 -0.58671874999999996         -5.5715448721028333E-006
 -0.58281249999999996         -5.5790891426628967E-006
 -0.57890624999999996         -5.5866357866200671E-006
 -0.57499999999999996         -5.5941850339153936E-006
 -0.57109374999999996         -5.6017372807196085E-006
 -0.56718749999999996         -5.6092943247176503E-006
 -0.56328124999999996         -5.6168582234141188E-006
 -0.55937499999999996         -5.6244308700586725E-006
 -0.55546874999999996         -5.6320142237815997E-006
 -0.55156249999999996         -5.6396097051625576E-006
 -0.54765624999999996         -5.6472185846477341E-006
 -0.54374999999999996         -5.6548412025517630E-006
 -0.53984374999999996         -5.6624776268867244E-006
 -0.53593749999999996         -5.6701263690381728E-006
 -0.53203124999999996         -5.6777858213918461E-006
 -0.52812499999999996         -5.6854546021834431E-006
 -0.52421874999999996         -5.6931305632006534E-006
 -0.52031249999999996         -5.7008117273178572E-006
 -0.51640624999999996         -5.7084971285809039E-006
 -0.51249999999999996         -5.7161856193681214E-006
 -0.50859374999999996         -5.7238770111802411E-006
 -0.50468749999999996         -5.7315721134671059E-006
 -0.50078124999999996         -5.7392719469574927E-006
 -0.49687499999999996         -5.7469778414506696E-006
 -0.49296874999999996         -5.7546920062665995E-006
 -0.48906249999999996         -5.7624161689239803E-006
 -0.48515624999999996         -5.7701522226724696E-006
 -0.48124999999999996         -5.7779010606698059E-006
 -0.47734374999999996         -5.7856636877808861E-006
 -0.47343749999999996         -5.7934403286174837E-006
 -0.46953124999999996         -5.8012304488305454E-006
 -0.46562499999999996         -5.8090324301871696E-006
 -0.46171874999999996         -5.8168449519466771E-006
 -0.45781249999999996         -5.8246658276414438E-006
 -0.45390624999999996         -5.8324932707879253E-006
 -0.44999999999999996         -5.8403258538793289E-006
 -0.44609374999999996         -5.8481619836779008E-006
 -0.44218749999999996         -5.8560014828744112E-006
 -0.43828124999999996         -5.8638443743212007E-006
 -0.43437499999999996         -5.8716913261873562E-006
 -0.43046874999999996         -5.8795439725583057E-006
 -0.42656249999999996         -5.8874036730014415E-006
 -0.42265624999999996         -5.8952727117759439E-006
 -0.41874999999999996         -5.9031529183936469E-006
 -0.41484374999999996         -5.9110460883966826E-006
 -0.41093749999999996         -5.9189533763338587E-006
 -0.40703124999999996         -5.9268752485307948E-006
 -0.40312499999999996         -5.9348116093387348E-006
 -0.39921874999999996         -5.9427612521711588E-006
 -0.39531249999999996         -5.9507229698587934E-006
 -0.39140624999999996         -5.9586950783721392E-006
 -0.38749999999999996         -5.9666753843656011E-006
 -0.38359374999999996         -5.9746616354909263E-006
 -0.37968749999999996         -5.9826524770377343E-006
 -0.37578124999999996         -5.9906462477448363E-006
 -0.37187499999999996         -5.9986430517368188E-006
 -0.36796874999999996         -6.0066430324258929E-006
 -0.36406249999999996         -6.0146474214315353E-006
 -0.36015624999999996         -6.0226576394174383E-006
 -0.35624999999999996         -6.0306753704130979E-006
 -0.35234374999999996         -6.0387029166730290E-006
 -0.34843749999999996         -6.0467425354024947E-006
 -0.34453124999999996         -6.0547957401270552E-006
 -0.34062499999999996         -6.0628635265803396E-006
 -0.33671874999999996         -6.0709467652358105E-006
 -0.33281249999999996         -6.0790448378798060E-006
 -0.32890624999999996         -6.0871572447997611E-006
 -0.32499999999999996         -6.0952821154416442E-006
 -0.32109374999999996         -6.1034173020918643E-006
 -0.31718749999999996         -6.1115603956457606E-006
 -0.31328124999999996         -6.1197100254185837E-006
 -0.30937499999999996         -6.1278638211323847E-006
 -0.30546874999999996         -6.1360207460840171E-006
 -0.30156249999999996         -6.1441808502902318E-006
 -0.29765624999999996         -6.1523440062640262E-006
 -0.29374999999999996         -6.1605111163784389E-006
 -0.28984374999999996         -6.1686841212697074E-006
 -0.28593749999999996         -6.1768652845601572E-006
 -0.28203124999999996         -6.1850565384101918E-006
 -0.27812499999999996         -6.1932601443106857E-006
 -0.27421874999999996         -6.2014776567567139E-006
 -0.27031249999999996         -6.2097104036106156E-006
 -0.26640624999999996         -6.2179591894652249E-006
 -0.26249999999999996         -6.2262237031185998E-006
 -0.25859374999999996         -6.2345029402045621E-006
 -0.25468749999999996         -6.2427957461016247E-006
 -0.25078124999999996         -6.2510994232714921E-006
 -0.24687499999999996         -6.2594119464973706E-006
 -0.24296874999999996         -6.2677310314360421E-006
 -0.23906249999999996         -6.2760544845360351E-006
 -0.23515624999999996         -6.2843813009210999E-006
 -0.23124999999999996         -6.2927107597903314E-006
 -0.22734374999999996         -6.3010428202468917E-006
 -0.22343749999999996         -6.3093786544466904E-006
 -0.21953124999999996         -6.3177198509271854E-006
 -0.21562499999999996         -6.3260682734484674E-006
 -0.21171874999999996         -6.3344264109114258E-006
 -0.20781249999999996         -6.3427965227481617E-006
 -0.20390624999999996         -6.3511805115568314E-006
 -0.19999999999999996         -6.3595801779424551E-006
 -0.19609374999999996         -6.3679961768253069E-006
 -0.19218749999999996         -6.3764284291977900E-006
 -0.18828124999999996         -6.3848766487690751E-006
 -0.18437499999999996         -6.3933391380927863E-006
 -0.18046874999999996         -6.4018143563949226E-006
 -0.17656249999999996         -6.4102998216903754E-006
 -0.17265624999999996         -6.4187931358700007E-006
 -0.16874999999999996         -6.4272924573592634E-006
 -0.16484374999999996         -6.4357964381576865E-006
 -0.16093749999999996         -6.4443036116418561E-006
 -0.15703124999999996         -6.4528140749365443E-006
 -0.15312499999999996         -6.4613277822879044E-006
 -0.14921874999999996         -6.4698465580465631E-006
 -0.14531249999999996         -6.4783718819629008E-006
 -0.14140624999999996         -6.4869064405796977E-006
 -0.13749999999999996         -6.4954521274365231E-006
 -0.13359374999999996         -6.5040117565631581E-006
 -0.12968749999999996         -6.5125866379106441E-006
 -0.12578124999999996         -6.5211782810088411E-006
 -0.12187499999999996         -6.5297868937237341E-006
 -0.11796874999999996         -6.5384120740616372E-006
 -0.11406249999999996         -6.5470531862631119E-006
 -0.11015624999999996         -6.5557078509189419E-006
 -0.10624999999999996         -6.5643742360959328E-006
 -0.10234374999999996         -6.5730503186360593E-006
  -9.8437499999999956E-002    -6.5817332733081471E-006
  -9.4531249999999956E-002    -6.5904213334768777E-006
  -9.0624999999999956E-002    -6.5991131074580545E-006
  -8.6718749999999956E-002    -6.6078074877268561E-006
  -8.2812499999999956E-002    -6.6165053303310770E-006
  -7.8906249999999956E-002    -6.6252067670319774E-006
  -7.4999999999999956E-002    -6.6339139653044099E-006
  -7.1093749999999956E-002    -6.6426291459482872E-006
  -6.7187499999999956E-002    -6.6513544159975955E-006
  -6.3281249999999956E-002    -6.6600925008331792E-006
  -5.9374999999999956E-002    -6.6688452988516181E-006
  -5.5468749999999956E-002    -6.6776145586928974E-006
  -5.1562499999999956E-002    -6.6864014606782496E-006
  -4.7656249999999956E-002    -6.6952059485683861E-006
  -4.3749999999999956E-002    -6.7040278386370121E-006
  -3.9843749999999956E-002    -6.7128658402157692E-006
  -3.5937499999999956E-002    -6.7217176444272049E-006
  -3.2031249999999956E-002    -6.7305808281670263E-006
  -2.8124999999999956E-002    -6.7394529592723547E-006
  -2.4218749999999956E-002    -6.7483322322811585E-006
  -2.0312499999999956E-002    -6.7572164167521836E-006
  -1.6406249999999956E-002    -6.7661043802494975E-006
  -1.2499999999999956E-002    -6.7749957312648547E-006
  -8.5937499999999556E-003    -6.7838907533748800E-006
  -4.6874999999999556E-003    -6.7927907463065197E-006
  -7.8124999999995559E-004    -6.8016971100979631E-006
   3.1250000000000444E-003    -6.8106123906780167E-006
   7.0312500000000444E-003    -6.8195393590481765E-006
   1.0937500000000044E-002    -6.8284799226636085E-006
   1.4843750000000044E-002    -6.8374362099724323E-006
   1.8750000000000044E-002    -6.8464102192215560E-006
   2.2656250000000044E-002    -6.8554018310052660E-006
   2.6562500000000044E-002    -6.8644111845833582E-006
   3.0468750000000044E-002    -6.8734378709509771E-006
   3.4375000000000044E-002    -6.8824794946405010E-006
   3.8281250000000044E-002    -6.8915344372131528E-006
   4.2187500000000044E-002    -6.9005997959061777E-006
   4.6093750000000044E-002    -6.9096738220795874E-006
   5.0000000000000044E-002    -6.9187543644329217E-006
   5.3906250000000044E-002    -6.9278394178034888E-006
   5.7812500000000044E-002    -6.9369283675472872E-006
   6.1718750000000044E-002    -6.9460210834631089E-006
   6.5625000000000044E-002    -6.9551184742683744E-006
   6.9531250000000044E-002    -6.9642221376431634E-006
   7.3437500000000044E-002    -6.9733337557640800E-006
   7.7343750000000044E-002    -6.9824560656629166E-006
   8.1250000000000044E-002    -6.9915914544533030E-006
   8.5156250000000044E-002    -7.0007416256041330E-006
   8.9062500000000044E-002    -7.0099089524352808E-006
   9.2968750000000044E-002    -7.0190940863586865E-006
   9.6875000000000044E-002    -7.0282970078189673E-006
  0.10078125000000004         -7.0375172489304537E-006
  0.10468750000000004         -7.0467532100761359E-006
  0.10859375000000004         -7.0560030773181514E-006
  0.11250000000000004         -7.0652649613185083E-006
  0.11640625000000004         -7.0745360389888375E-006
  0.12031250000000004         -7.0838145228624394E-006
  0.12421875000000004         -7.0930986706437098E-006
  0.12812500000000004         -7.1023873497748739E-006
  0.13203125000000004         -7.1116804820197538E-006
  0.13593750000000004         -7.1209783168634313E-006
  0.13984375000000004         -7.1302819293370430E-006
  0.14375000000000004         -7.1395936829972796E-006
  0.14765625000000004         -7.1489159509203300E-006
  0.15156250000000004         -7.1582507133577740E-006
  0.15546875000000004         -7.1676001416641723E-006
  0.15937500000000004         -7.1769666091594001E-006
  0.16328125000000004         -7.1863511899699766E-006
  0.16718750000000004         -7.1957543887986741E-006
  0.17109375000000004         -7.2051754209067397E-006
  0.17500000000000004         -7.2146135585888393E-006
  0.17890625000000004         -7.2240673976052078E-006
  0.18281250000000004         -7.2335344532565347E-006
  0.18671875000000004         -7.2430127751812051E-006
  0.19062500000000004         -7.2525000740571515E-006
  0.19453125000000004         -7.2619941327873167E-006
  0.19843750000000004         -7.2714942458519211E-006
  0.20234375000000004         -7.2809990450018635E-006
  0.20625000000000004         -7.2905088019191349E-006
  0.21015625000000004         -7.3000247573658296E-006
  0.21406250000000004         -7.3095479342862113E-006
  0.21796875000000004         -7.3190808735462011E-006
  0.22187500000000004         -7.3286249965981205E-006
  0.22578125000000004         -7.3381830473895457E-006
  0.22968750000000004         -7.3477568723898313E-006
  0.23359375000000004         -7.3573475540908411E-006
  0.23750000000000004         -7.3669559956920552E-006
  0.24140625000000004         -7.3765823905611039E-006
  0.24531250000000004         -7.3862258869244524E-006
  0.24921875000000004         -7.3958855754819250E-006
  0.25312500000000004         -7.4055598192280119E-006
  0.25703125000000004         -7.4152465360398410E-006
  0.26093750000000004         -7.4249435565838131E-006
  0.26484375000000004         -7.4346495189438516E-006
  0.26875000000000004         -7.4443631991150045E-006
  0.27265625000000004         -7.4540835304201263E-006
  0.27656250000000004         -7.4638106167892822E-006
  0.28046875000000004         -7.4735454376775350E-006
  0.28437500000000004         -7.4832888863266571E-006
  0.28828125000000004         -7.4930423289269788E-006
  0.29218750000000004         -7.5028076076244375E-006
  0.29609375000000004         -7.5125869320289053E-006
  0.30000000000000004         -7.5223818193633022E-006
  0.30390625000000004         -7.5321931547212858E-006
  0.30781250000000004         -7.5420217031588843E-006
  0.31171875000000004         -7.5518680352595002E-006
  0.31562500000000004         -7.5617312353899315E-006
  0.31953125000000004         -7.5716106215873334E-006
  0.32343750000000004         -7.5815045803917827E-006
  0.32734375000000004         -7.5914115945803609E-006
  0.33125000000000004         -7.6013298614052436E-006
  0.33515625000000004         -7.6112575004651836E-006
  0.33906250000000004         -7.6211936946059244E-006
  0.34296875000000004         -7.6311371475975003E-006
  0.34687500000000004         -7.6410882427450255E-006
  0.35078125000000004         -7.6510470819575988E-006
  0.35468750000000004         -7.6610148240204783E-006
  0.35859375000000004         -7.6709922242756708E-006
  0.36250000000000004         -7.6809817898252732E-006
  0.36640625000000004         -7.6909853032789731E-006
  0.37031250000000004         -7.7010038994213874E-006
  0.37421875000000004         -7.7110393450096734E-006
  0.37812500000000004         -7.7210920025234207E-006
  0.38203125000000004         -7.7311632021622957E-006
  0.38593750000000004         -7.7412519146490082E-006
  0.38984375000000004         -7.7513573880603528E-006
  0.39375000000000004         -7.7614782084047351E-006
  0.39765625000000004         -7.7716124411730717E-006
  0.40156250000000004         -7.7817588859059903E-006
  0.40546875000000004         -7.7919158077950693E-006
  0.40937500000000004         -7.8020821899853906E-006
  0.41328125000000004         -7.8122568861254230E-006
  0.41718750000000004         -7.8224395794402635E-006
  0.42109375000000004         -7.8326302316746027E-006
  0.42500000000000004         -7.8428295788991162E-006
  0.42890625000000004         -7.8530381534418969E-006
  0.43281250000000004         -7.8632581691870773E-006
  0.43671875000000004         -7.8734913767956072E-006
  0.44062500000000004         -7.8837388909139645E-006
  0.44453125000000004         -7.8940016665961715E-006
  0.44843750000000004         -7.9042819496751000E-006
  0.45234375000000004         -7.9145791231752716E-006
  0.45625000000000004         -7.9248941228680290E-006
  0.46015625000000004         -7.9352260809214325E-006
  0.46406250000000004         -7.9455745967686514E-006
  0.46796875000000004         -7.9559383880112836E-006
  0.47187500000000004         -7.9663153725264586E-006
  0.47578125000000004         -7.9767047671296175E-006
  0.47968750000000004         -7.9871054850054791E-006
  0.48359375000000004         -7.9975162396380989E-006
  0.48750000000000004         -8.0079374664194645E-006
  0.49140625000000004         -8.0183684695551708E-006
  0.49531250000000004         -8.0288090952929258E-006
  0.49921875000000004         -8.0392607936149889E-006
  0.50312500000000004         -8.0497246472190973E-006
  0.50703125000000004         -8.0602010111354667E-006
  0.51093750000000004         -8.0706916819734165E-006
  0.51484375000000004         -8.0811985602723309E-006
  0.51875000000000004         -8.0917218468983790E-006
  0.52265625000000004         -8.1022621380015128E-006
  0.52656250000000004         -8.1128191700592080E-006
  0.53046875000000004         -8.1233929747765193E-006
  0.53437500000000004         -8.1339831015963205E-006
  0.53828125000000004         -8.1445882140123715E-006
  0.54218750000000004         -8.1552073970788561E-006
  0.54609375000000004         -8.1658394820414585E-006
  0.55000000000000004         -8.1764826681733188E-006
  0.55390625000000004         -8.1871367046179691E-006
  0.55781250000000004         -8.1978005269629131E-006
  0.56171875000000004         -8.2084741990300099E-006
  0.56562500000000004         -8.2191586248855474E-006
  0.56953125000000004         -8.2298535051844092E-006
  0.57343750000000004         -8.2405609401666433E-006
  0.57734375000000004         -8.2512812807449180E-006
  0.58125000000000004         -8.2620163914679557E-006
  0.58515625000000004         -8.2727671096281501E-006
  0.58906250000000004         -8.2835355130627625E-006
  0.59296875000000004         -8.2943221202683207E-006
  0.59687500000000004         -8.3051273635167085E-006
  0.60078125000000004         -8.3159502792053913E-006
  0.60468750000000004         -8.3267912443329048E-006
  0.60859375000000004         -8.3376488309080243E-006
  0.61250000000000004         -8.3485218160685963E-006
  0.61640625000000004         -8.3594093029859786E-006
  0.62031250000000004         -8.3703101187883130E-006
  0.62421875000000004         -8.3812224532784031E-006
  0.62812500000000004         -8.3921448564739875E-006
  0.63203125000000004         -8.4030776557194478E-006
  0.63593750000000004         -8.4140208734175687E-006
  0.63984375000000004         -8.4249743918067216E-006
  0.64375000000000004         -8.4359394434630814E-006
  0.64765625000000004         -8.4469165108925139E-006
  0.65156250000000004         -8.4579082902413275E-006
  0.65546875000000004         -8.4689150643147260E-006
  0.65937500000000004         -8.4799388514137226E-006
  0.66328125000000004         -8.4909808975343026E-006
  0.66718750000000004         -8.5020418346490119E-006
  0.67109375000000004         -8.5131225761264082E-006
  0.67500000000000004         -8.5242214485699155E-006
  0.67890625000000004         -8.5353390105615618E-006
  0.68281250000000004         -8.5464730842078784E-006
  0.68671875000000004         -8.5576224690494965E-006
  0.69062500000000004         -8.5687851370713818E-006
  0.69453125000000004         -8.5799601556222969E-006
  0.69843750000000004         -8.5911460790055961E-006
  0.70234375000000004         -8.6023422933659045E-006
  0.70625000000000004         -8.6135490305206915E-006
  0.71015625000000004         -8.6247669268961817E-006
  0.71406250000000004         -8.6359972107829395E-006
  0.71796875000000004         -8.6472403605692882E-006
  0.72187500000000004         -8.6584983585655736E-006
  0.72578125000000004         -8.6697729789783320E-006
  0.72968750000000004         -8.6810655219113867E-006
  0.73359375000000004         -8.6923772653094609E-006
  0.73750000000000004         -8.7037079094156856E-006
  0.74140625000000004         -8.7150581998466927E-006
  0.74531250000000004         -8.7264282999007292E-006
  0.74921875000000004         -8.7378169133478259E-006
  0.75312500000000004         -8.7492227439580189E-006
  0.75703125000000004         -8.7606437775478375E-006
  0.76093750000000004         -8.7720780402100856E-006
  0.76484375000000004         -8.7835244675322668E-006
  0.76875000000000004         -8.7949817274618167E-006
  0.77265625000000004         -8.8064485241805242E-006
  0.77656250000000004         -8.8179258074593621E-006
  0.78046875000000004         -8.8294135498788878E-006
  0.78437500000000004         -8.8409132473697288E-006
  0.78828125000000004         -8.8524260421658740E-006
  0.79218750000000004         -8.8639540483389347E-006
  0.79609375000000004         -8.8754992939039416E-006
  0.80000000000000004         -8.8870637249368973E-006
  0.80390625000000004         -8.8986484835037225E-006
  0.80781250000000004         -8.9102540157078644E-006
  0.81171875000000004         -8.9218811753816325E-006
  0.81562500000000004         -8.9335298860144007E-006
  0.81953125000000004         -8.9451986697927175E-006
  0.82343750000000004         -8.9568853171180609E-006
  0.82734375000000004         -8.9685877277503848E-006
  0.83125000000000004         -8.9803048137316067E-006
  0.83515625000000004         -8.9920335433359518E-006
  0.83906250000000004         -9.0037728564365293E-006
  0.84296875000000004         -9.0155213073366937E-006
  0.84687500000000004         -9.0272791638445764E-006
  0.85078125000000004         -9.0390463718523396E-006
  0.85468750000000004         -9.0508255806361047E-006
  0.85859375000000004         -9.0626171228232977E-006
  0.86250000000000004         -9.0744233536052662E-006
  0.86640625000000004         -9.0862471686609156E-006
  0.87031250000000004         -9.0980906098368435E-006
  0.87421875000000004         -9.1099549231290354E-006
  0.87812500000000004         -9.1218413683650405E-006
  0.88203125000000004         -9.1337508453255376E-006
  0.88593750000000004         -9.1456831319070768E-006
  0.88984375000000004         -9.1576367185911534E-006
  0.89375000000000004         -9.1696100958592609E-006
  0.89765625000000004         -9.1816011636394213E-006
  0.90156250000000004         -9.1936068847774495E-006
  0.90546875000000004         -9.2056259994457930E-006
  0.90937500000000004         -9.2176572435312937E-006
  0.91328125000000004         -9.2296981579125407E-006
  0.91718750000000004         -9.2417490602198928E-006
  0.92109375000000004         -9.2538110179859513E-006
  0.92500000000000004         -9.2658844731966230E-006