  -1.2000000000000000          7.5284518424312617E-011
  -1.1960937500000000          7.7494495292036993E-011
  -1.1921875000000000          7.5489739876989358E-011
  -1.1882812500000000          6.9498664338384270E-011
  -1.1843750000000000          6.0004687070436003E-011
  -1.1804687500000000          4.7708730210375132E-011
  -1.1765625000000000          3.3467704731234920E-011
  -1.1726562500000000          1.8219061709465664E-011
  -1.1687500000000000          2.9028399431056691E-012
  -1.1648437500000000         -1.1605391542876794E-011
  -1.1609375000000000         -2.4555359402537784E-011
  -1.1570312500000000         -3.5361771282031200E-011
  -1.1531250000000000         -4.3638837330150244E-011
  -1.1492187500000000         -4.9202954814814212E-011
  -1.1453125000000000         -5.2057240169195150E-011
  -1.1414062500000000         -5.2365928391193710E-011
  -1.1375000000000000         -5.0422590767335253E-011
  -1.1335937500000000         -4.6601479586068773E-011
  -1.1296875000000000         -4.1319834241328089E-011
  -1.1257812500000000         -3.4996168841304586E-011
  -1.1218750000000000         -2.8022816343841611E-011
  -1.1179687500000000         -2.0751770465647222E-011
  -1.1140625000000000         -1.3478300326303109E-011
  -1.1101562500000000         -6.4388223458905534E-012
  -1.1062500000000000          1.7124345759814179E-013
  -1.1023437500000000          6.1819693658633582E-012
  -1.0984375000000000          1.1442964582066650E-011
  -1.0945312500000000          1.5808222581351274E-011
  -1.0906250000000000          1.9122826428683041E-011
  -1.0867187500000000          2.1239641770087255E-011
  -1.0828125000000000          2.2021292654489310E-011
  -1.0789062500000000          2.1357241594853869E-011
  -1.0750000000000000          1.9186001413789527E-011
  -1.0710937500000000          1.5512086640763544E-011
  -1.0671875000000000          1.0431038945890565E-011
  -1.0632812500000000          4.1375500101186491E-012
  -1.0593750000000000         -3.0689603763126033E-012
  -1.0554687500000000         -1.0795357358665330E-011
  -1.0515625000000000         -1.8571813094495540E-011
  -1.0476562500000000         -2.5885833600695513E-011
  -1.0437500000000000         -3.2213496662322495E-011
  -1.0398437500000000         -3.7066570874599780E-011
  -1.0359375000000000         -4.0032001169767649E-011
  -1.0320312500000000         -4.0824188789588396E-011
  -1.0281250000000000         -3.9299145336957134E-011
  -1.0242187500000000         -3.5489884936119759E-011
  -1.0203125000000000         -2.9600411734789196E-011
  -1.0164062500000000         -2.2002521095275949E-011
  -1.0125000000000000         -1.3205922720391059E-011
  -1.0085937500000000         -3.8164733563621524E-012
  -1.0046875000000000          5.4931575474513747E-012
  -1.0007812500000000          1.4059647127926268E-011
 -0.99687499999999996          2.1262614813772050E-011
 -0.99296874999999996          2.6580609251975280E-011
 -0.98906249999999996          2.9626054615924968E-011
 -0.98515624999999996          3.0174649709461295E-011
 -0.98124999999999996          2.8189353588090822E-011
 -0.97734374999999996          2.3800283491937558E-011
 -0.97343749999999996          1.7304003593733928E-011
 -0.96953124999999996          9.1234632250648770E-012
 -0.96562499999999996         -2.0858595201631667E-013
 -0.96171874999999996         -1.0107820332053018E-011
 -0.95781249999999996         -1.9975834864488449E-011
 -0.95390624999999996         -2.9240222704377036E-011
 -0.94999999999999996         -3.7398107586457277E-011
 -0.94609374999999996         -4.4037777046969861E-011
 -0.94218749999999996         -4.8867496639583071E-011
 -0.93828124999999996         -5.1713340403577748E-011
 -0.93437499999999996         -5.2534258573342413E-011
 -0.93046874999999996         -5.1407982239288615E-011
 -0.92656249999999996         -4.8513636161293487E-011
 -0.92265624999999996         -4.4119802689182602E-011
 -0.91874999999999996         -3.8550263769730129E-011
 -0.91484374999999996         -3.2165527375342586E-011
 -0.91093749999999996         -2.5335345576297005E-011
 -0.90703124999999996         -1.8411587035998415E-011
 -0.90312499999999996         -1.1711050447859995E-011
 -0.89921874999999996         -5.5092554644492157E-012
 -0.89531249999999996         -1.7295137171598954E-014
 -0.89140624999999996          4.6155750451258657E-012
 -0.88749999999999996          8.3056363421020905E-012
 -0.88359374999999996          1.1029759897308322E-011
 -0.87968749999999996          1.2817832612858161E-011
 -0.87578124999999996          1.3740400582649849E-011
 -0.87187499999999996          1.3893065110627208E-011
 -0.86796874999999996          1.3389205888971630E-011
 -0.86406249999999996          1.2350250952814901E-011
 -0.86015624999999996          1.0891482100804916E-011
 -0.85624999999999996          9.1243370660890452E-012
 -0.85234374999999996          7.1519540163499368E-012
 -0.84843749999999996          5.0617192713637685E-012
 -0.84453124999999996          2.9305999075458138E-012
 -0.84062499999999996          8.3177098530427003E-013
 -0.83671874999999996         -1.1613476666888333E-012
 -0.83281249999999996         -2.9679079528406809E-012
 -0.82890624999999996         -4.5126605528065481E-012
 -0.82499999999999996         -5.7087906089188006E-012
 -0.82109374999999996         -6.4682202892161286E-012
 -0.81718749999999996         -6.7040423212017408E-012
 -0.81328124999999996         -6.3458178917433922E-012
 -0.80937499999999996         -5.3471619128214977E-012
 -0.80546874999999996         -3.6979044703831249E-012
 -0.80156249999999996         -1.4332910909645732E-012
 -0.79765624999999996          1.3563758148719145E-012
 -0.79374999999999996          4.5168761894397291E-012
 -0.78984374999999996          7.8427496489546066E-012
 -0.78593749999999996          1.1069957920272444E-011
 -0.78203124999999996          1.3902844379767294E-011
 -0.77812499999999996          1.6032698565983812E-011
 -0.77421874999999996          1.7165923102286941E-011
 -0.77031249999999996          1.7062640772148974E-011
 -0.76640624999999996          1.5555812052262433E-011
 -0.76249999999999996          1.2574900123758601E-011
 -0.75859374999999996          8.1664037787727079E-012
 -0.75468749999999996          2.5059146589549184E-012
 -0.75078124999999996         -4.1082114285293567E-012
 -0.74687499999999996         -1.1273874845073068E-011
 -0.74296874999999996         -1.8506140447559186E-011
 -0.73906249999999996         -2.5282270754369051E-011
 -0.73515624999999996         -3.1081711039411637E-011
 -0.73124999999999996         -3.5430919387761406E-011
 -0.72734374999999996         -3.7959404501588542E-011
 -0.72343749999999996         -3.8421352835408998E-011
 -0.71953124999999996         -3.6732335488732772E-011
 -0.71562499999999996         -3.2974023107016898E-011
 -0.71171874999999996         -2.7387883580556129E-011
 -0.70781249999999996         -2.0355379118532348E-011
 -0.70390624999999996         -1.2365445305679203E-011
 -0.69999999999999996         -3.9710489104739595E-012
 -0.69609374999999996          4.2683349280904739E-012
 -0.69218749999999996          1.1836842498865899E-011
 -0.68828124999999996          1.8292536024604144E-011
 -0.68437499999999996          2.3312318937025133E-011
 -0.68046874999999996          2.6707573772916755E-011
 -0.67656249999999996          2.8441678514201202E-011
 -0.67265624999999996          2.8611932569518362E-011
 -0.66874999999999996          2.7427277718951204E-011
 -0.66484374999999996          2.5173804588616290E-011
 -0.66093749999999996          2.2163781643551605E-011
 -0.65703124999999996          1.8701014720614034E-011
 -0.65312499999999996          1.5040838782551178E-011
 -0.64921874999999996          1.1362613275268503E-011
 -0.64531249999999996          7.7517733131912448E-012
 -0.64140624999999996          4.2030869979815637E-012
 -0.63749999999999996          6.2804897155916872E-013
 -0.63359374999999996         -3.1074694627612772E-012
 -0.62968749999999996         -7.1549777079732732E-012
 -0.62578124999999996         -1.1637392042935319E-011
 -0.62187499999999996         -1.6614668394850534E-011
 -0.61796874999999996         -2.2056509953153535E-011
 -0.61406249999999996         -2.7822308758575140E-011
 -0.61015624999999996         -3.3659545436537620E-011
 -0.60624999999999996         -3.9227200450015110E-011
 -0.60234374999999996         -4.4112146513615062E-011
 -0.59843749999999996         -4.7876237151550306E-011
 -0.59453124999999996         -5.0114064641150545E-011
 -0.59062499999999996         -5.0493854853163790E-011
 -0.58671874999999996         -4.8805875921579253E-011
 -0.58281249999999996         -4.4995748245262658E-011
 -0.57890624999999996         -3.9183156292595445E-011
 -0.57499999999999996         -3.1666404684778450E-011
 -0.57109374999999996         -2.2907488055317567E-011
 -0.56718749999999996         -1.3480672850383501E-011
 -0.56328124999999996         -4.0331704116641830E-012
 -0.55937499999999996          4.7861759309497193E-012
 -0.55546874999999996          1.2392198190807490E-011
 -0.55156249999999996          1.8306813134753753E-011
 -0.54765624999999996          2.2216800669652695E-011
 -0.54374999999999996          2.3992552961372109E-011
 -0.53984374999999996          2.3704602372898313E-011
 -0.53593749999999996          2.1602591818072302E-011
 -0.53203124999999996          1.8089263568176404E-011
 -0.52812499999999996          1.3671027444585305E-011
 -0.52421874999999996          8.8962231177721294E-012
 -0.52031249999999996          4.3003340186459810E-012
 -0.51640624999999996          3.3907695893025367E-013
 -0.51249999999999996         -2.6530542120320108E-012
 -0.50859374999999996         -4.4947928713962040E-012
 -0.50468749999999996         -5.1609219612008887E-012
 -0.50078124999999996         -4.7814681731737496E-012
 -0.49687499999999996         -3.6097537124747174E-012
 -0.49296874999999996         -1.9747304862146250E-012
 -0.48906249999999996         -2.4083637258607264E-013
 -0.48515624999999996          1.2469019088109467E-012
 -0.48124999999999996          2.2184821849834230E-012
 -0.47734374999999996          2.4929883681233666E-012
 -0.47343749999999996          2.0268074328172636E-012
 -0.46953124999999996          9.0695502822237513E-013
 -0.46562499999999996         -6.6509453200252306E-013
 -0.46171874999999996         -2.4045038305857660E-012
 -0.45781249999999996         -3.9807750484720127E-012
 -0.45390624999999996         -5.0730533632161264E-012
 -0.44999999999999996         -5.4147383147622560E-012
 -0.44609374999999996         -4.8340388528937779E-012
 -0.44218749999999996         -3.2787860205518000E-012
 -0.43828124999999996         -8.3681256960648738E-013
 -0.43437499999999996          2.2696329539905983E-012
 -0.43046874999999996          5.7180484007565554E-012
 -0.42656249999999996          9.1232176229688114E-012
 -0.42265624999999996          1.2065449165311019E-011
 -0.41874999999999996          1.4161940373031668E-011
 -0.41484374999999996          1.5107272963831595E-011
 -0.41093749999999996          1.4719683011468607E-011
 -0.40703124999999996          1.2963037089156880E-011
 -0.40312499999999996          9.9624073522184409E-012
 -0.39921874999999996          5.9863928018104046E-012
 -0.39531249999999996          1.4330540291301842E-012
 -0.39140624999999996         -3.2177688632636465E-012
 -0.38749999999999996         -7.4573089224290266E-012
 -0.38359374999999996         -1.0806699524534050E-011
 -0.37968749999999996         -1.2853906399876675E-011
 -0.37578124999999996         -1.3322262944048553E-011
 -0.37187499999999996         -1.2075551047125152E-011
 -0.36796874999999996         -9.1554522031900662E-012
 -0.36406249999999996         -4.7648222339033932E-012
 -0.36015624999999996          7.5039008282067022E-013
 -0.35624999999999996          6.9202888365784751E-012
 -0.35234374999999996          1.3221795932426021E-011
 -0.34843749999999996          1.9115354965682019E-011
 -0.34453124999999996          2.4109213750155188E-011
 -0.34062499999999996          2.7790729852077579E-011
 -0.33671874999999996          2.9873284880439236E-011
 -0.33281249999999996          3.0211497078088270E-011
 -0.32890624999999996          2.8810435139239262E-011
 -0.32499999999999996          2.5804673642124842E-011
 -0.32109374999999996          2.1447982899806061E-011
 -0.31718749999999996          1.6074184379656111E-011
 -0.31328124999999996          1.0058330320316693E-011
 -0.30937499999999996          3.7823613157076428E-012
 -0.30546874999999996         -2.4026910633471670E-012
 -0.30156249999999996         -8.2120997994695321E-012
 -0.29765624999999996         -1.3426826798082583E-011
 -0.29374999999999996         -1.7917384144847604E-011
 -0.28984374999999996         -2.1633648273112397E-011
 -0.28593749999999996         -2.4590605821204707E-011
 -0.28203124999999996         -2.6842155960930601E-011
 -0.27812499999999996         -2.8457919688127434E-011
 -0.27421874999999996         -2.9514177133359103E-011
 -0.27031249999999996         -3.0058216251096880E-011
 -0.26640624999999996         -3.0096787769279654E-011
 -0.26249999999999996         -2.9608145513780759E-011
 -0.25859374999999996         -2.8533201188523739E-011
 -0.25468749999999996         -2.6794411311147909E-011
 -0.25078124999999996         -2.4305710078357065E-011
 -0.24687499999999996         -2.1008871162284546E-011
 -0.24296874999999996         -1.6886916466128049E-011
 -0.23906249999999996         -1.1982640121804007E-011
 -0.23515624999999996         -6.4099108581670504E-012
 -0.23124999999999996         -3.6261606292124584E-013
 -0.22734374999999996          5.8949516811796707E-012
 -0.22343749999999996          1.2037170948306739E-011
 -0.21953124999999996          1.7704970003334288E-011
 -0.21562499999999996          2.2528425747767265E-011
 -0.21171874999999996          2.6162453985632230E-011
 -0.20781249999999996          2.8310160864531774E-011
 -0.20390624999999996          2.8764981240017575E-011
 -0.19999999999999996          2.7420905774149882E-011
 -0.19609374999999996          2.4298207134940024E-011
 -0.19218749999999996          1.9528705381369435E-011
 -0.18828124999999996          1.3375018043735517E-011
 -0.18437499999999996          6.2003949016429766E-012
 -0.18046874999999996         -1.5532037565145118E-012
 -0.17656249999999996         -9.3912252480357827E-012
 -0.17265624999999996         -1.6801455407490198E-011
 -0.16874999999999996         -2.3293640971245938E-011
 -0.16484374999999996         -2.8445072740556887E-011
 -0.16093749999999996         -3.1912098422574921E-011
 -0.15703124999999996         -3.3476680644394305E-011
 -0.15312499999999996         -3.3032611409399024E-011
 -0.14921874999999996         -3.0613890685333802E-011
 -0.14531249999999996         -2.6385286530255735E-011
 -0.14140624999999996         -2.0614750582622463E-011
 -0.13749999999999996         -1.3666601209689409E-011
 -0.13359374999999996         -5.9722280819308744E-012
 -0.12968749999999996          2.0056191587025265E-012
 -0.12578124999999996          9.8014028083790228E-012
 -0.12187499999999996          1.6986769323433197E-011
 -0.11796874999999996          2.3196695847152746E-011
 -0.11406249999999996          2.8146593386713973E-011
 -0.11015624999999996          3.1652789340452899E-011
 -0.10624999999999996          3.3623942995146056E-011
 -0.10234374999999996          3.4068012965171911E-011
  -9.8437499999999956E-002     3.3091969407626998E-011
  -9.4531249999999956E-002     3.0886937824683398E-011
  -9.0624999999999956E-002     2.7696123723570589E-011
  -8.6718749999999956E-002     2.3778955154728320E-011
  -8.2812499999999956E-002     1.9420075504697482E-011
  -7.8906249999999956E-002     1.4898913666290844E-011
  -7.4999999999999956E-002     1.0486360858107524E-011
  -7.1093749999999956E-002     6.3923265238325360E-012
  -6.7187499999999956E-002     2.7834580784821299E-012
  -6.3281249999999956E-002    -2.1846788414934536E-013
  -5.9374999999999956E-002    -2.5460502248094873E-012
  -5.5468749999999956E-002    -4.1654413624037886E-012
  -5.1562499999999956E-002    -5.0824921304360566E-012
  -4.7656249999999956E-002    -5.3149369649123715E-012
  -4.3749999999999956E-002    -4.8991465167820153E-012
  -3.9843749999999956E-002    -3.8687929455696956E-012
  -3.5937499999999956E-002    -2.2648251822453459E-012
  -3.2031249999999956E-002    -1.2251552397888250E-013
  -2.8124999999999956E-002     2.5134836183300186E-012
  -2.4218749999999956E-002     5.5859284247512946E-012
  -2.0312499999999956E-002     9.0220640012815474E-012
  -1.6406249999999956E-002     1.2716657497625528E-011
  -1.2499999999999956E-002     1.6523075527764236E-011
  -8.5937499999999556E-003     2.0258913050555255E-011
  -4.6874999999999556E-003     2.3700321933169385E-011
  -7.8124999999995559E-004     2.6602461647473340E-011
   3.1250000000000444E-003     2.8695782084907579E-011
   7.0312500000000444E-003     2.9727411634748419E-011
   1.0937500000000044E-002     2.9470661066669675E-011
   1.4843750000000044E-002     2.7762599586821188E-011
   1.8750000000000044E-002     2.4533569601782375E-011
   2.2656250000000044E-002     1.9814738675041498E-011
   2.6562500000000044E-002     1.3751418380818083E-011
   3.0468750000000044E-002     6.6244032517812222E-012
   3.4375000000000044E-002    -1.1835347028252715E-012
   3.8281250000000044E-002    -9.1898076637567485E-012
   4.2187500000000044E-002    -1.6862632358197453E-011
   4.6093750000000044E-002    -2.3653373856110407E-011
   5.0000000000000044E-002    -2.9044753542093507E-011
   5.3906250000000044E-002    -3.2597870187203989E-011
   5.7812500000000044E-002    -3.4003040852464244E-011
   6.1718750000000044E-002    -3.3091796849224512E-011
   6.5625000000000044E-002    -2.9882303436139608E-011
   6.9531250000000044E-002    -2.4564227930107540E-011
   7.3437500000000044E-002    -1.7490002248048437E-011
   7.7343750000000044E-002    -9.1583862339347772E-012
   8.1250000000000044E-002    -1.6889426050510748E-013
   8.5156250000000044E-002     8.8222502749947147E-012
   8.9062500000000044E-002     1.7171709109826933E-011
   9.2968750000000044E-002     2.4285649313752401E-011
   9.6875000000000044E-002     2.9680430356767791E-011
  0.10078125000000004          3.3020483375470509E-011
  0.10468750000000004          3.4128277522529919E-011
  0.10859375000000004          3.3007086978840787E-011
  0.11250000000000004          2.9827755634827514E-011
  0.11640625000000004          2.4891214629052332E-011
  0.12031250000000004          1.8605775096876345E-011
  0.12421875000000004          1.1453939409166388E-011
  0.12812500000000004          3.9153051619033894E-012
  0.13203125000000004         -3.5387632259196027E-012
  0.13593750000000004         -1.0508284345856999E-011
  0.13984375000000004         -1.6666910310794868E-011
  0.14375000000000004         -2.1795298929429906E-011
  0.14765625000000004         -2.5766754766736182E-011
  0.15156250000000004         -2.8560105469168267E-011
  0.15546875000000004         -3.0202628512385329E-011
  0.15937500000000004         -3.0774463618936981E-011
  0.16328125000000004         -3.0366833815839955E-011
  0.16718750000000004         -2.9068392701317995E-011
  0.17109375000000004         -2.6943889571636541E-011
  0.17500000000000004         -2.4037930740054815E-011
  0.17890625000000004         -2.0371501468433386E-011
  0.18281250000000004         -1.5941828467163231E-011
  0.18671875000000004         -1.0767509186878123E-011
  0.19062500000000004         -4.8943395382233493E-012
  0.19453125000000004          1.5897970444466045E-012
  0.19843750000000004          8.5249003219533782E-012
  0.20234375000000004          1.5672978860840181E-011
  0.20625000000000004          2.2722226824734894E-011
  0.21015625000000004          2.9294513441347790E-011
  0.21406250000000004          3.4993601013499547E-011
  0.21796875000000004          3.9411011421888038E-011
  0.22187500000000004          4.2180961756786039E-011
  0.22578125000000004          4.3026540343127409E-011
  0.22968750000000004          4.1782760948153115E-011
  0.23359375000000004          3.8429944117374031E-011
  0.23750000000000004          3.3119008126275725E-011
  0.24140625000000004          2.6156120024970514E-011
  0.24531250000000004          1.7983081172993364E-011
  0.24921875000000004          9.1815694143513967E-012
  0.25312500000000004          3.8676275683579739E-013
  0.25703125000000004         -7.7338828589532214E-012
  0.26093750000000004         -1.4581739180684727E-011
  0.26484375000000004         -1.9642465722995066E-011
  0.26875000000000004         -2.2554850290671917E-011
  0.27265625000000004         -2.3119966922182619E-011
  0.27656250000000004         -2.1336198895726740E-011
  0.28046875000000004         -1.7379386848505930E-011
  0.28437500000000004         -1.1606987955777910E-011
  0.28828125000000004         -4.5008907990763950E-012
  0.29218750000000004          3.3567693923937767E-012
  0.29609375000000004          1.1368570066602814E-011
  0.30000000000000004          1.8956103742786500E-011
  0.30390625000000004          2.5605852047027825E-011
  0.30781250000000004          3.0924678329046632E-011
  0.31171875000000004          3.4652893802664001E-011
  0.31562500000000004          3.6684480503040219E-011
  0.31953125000000004          3.7040152011965891E-011
  0.32343750000000004          3.5877649647196822E-011
  0.32734375000000004          3.3453777904875310E-011
  0.33125000000000004          3.0095710311641701E-011
  0.33515625000000004          2.6140634838217387E-011
  0.33906250000000004          2.1913402118781932E-011
  0.34296875000000004          1.7704374678295821E-011
  0.34687500000000004          1.3752744597900642E-011
  0.35078125000000004          1.0223434358774186E-011
  0.35468750000000004          7.2180121818845765E-012
  0.35859375000000004          4.7627851443697267E-012
  0.36250000000000004          2.8462041132852901E-012
  0.36640625000000004          1.4376922196663178E-012
  0.37031250000000004          5.0535336968700438E-013
  0.37421875000000004          2.7387668128127407E-014
  0.37812500000000004          1.1975956572448577E-014
  0.38203125000000004          4.9622343255029505E-013
  0.38593750000000004          1.5226044612000596E-012
  0.38984375000000004          3.1499167984648341E-012
  0.39375000000000004          5.4144241292289506E-012
  0.39765625000000004          8.3378027648052181E-012
  0.40156250000000004          1.1891057621860088E-011
  0.40546875000000004          1.5989870954227584E-011
  0.40937500000000004          2.0479306942779329E-011
  0.41328125000000004          2.5147736785193536E-011
  0.41718750000000004          2.9729114862754668E-011
  0.42109375000000004          3.3922075136146374E-011
  0.42500000000000004          3.7436069737464126E-011
  0.42890625000000004          3.9991827990759201E-011
  0.43281250000000004          4.1382216939534303E-011
  0.43671875000000004          4.1463493319573176E-011
  0.44062500000000004          4.0181116150335115E-011
  0.44453125000000004          3.7597076684376045E-011
  0.44843750000000004          3.3874386557655533E-011
  0.45234375000000004          2.9279478299525735E-011
  0.45625000000000004          2.4156456779393015E-011
  0.46015625000000004          1.8906572074074280E-011
  0.46406250000000004          1.3942507179785181E-011
  0.46796875000000004          9.6716969280664929E-012
  0.47187500000000004          6.4501428189766827E-012
  0.47578125000000004          4.5740380915412824E-012
  0.47968750000000004          4.2430657330667021E-012
  0.48359375000000004          5.5481360776146763E-012
  0.48750000000000004          8.4815732579262737E-012
  0.49140625000000004          1.2924469829888896E-011
  0.49531250000000004          1.8674146694740167E-011
  0.49921875000000004          2.5445221912384772E-011
  0.50312500000000004          3.2925401065269214E-011
  0.50703125000000004          4.0778757080789981E-011
  0.51093750000000004          4.8667848776899156E-011
  0.51484375000000004          5.6267294940164978E-011
  0.51875000000000004          6.3313902660757485E-011
  0.52265625000000004          6.9586080701133333E-011
  0.52656250000000004          7.4919658580092362E-011
  0.53046875000000004          7.9204310981492760E-011
  0.53437500000000004          8.2388203710745651E-011
  0.53828125000000004          8.4469313603614519E-011
  0.54218750000000004          8.5507411197079150E-011
  0.54609375000000004          8.5601025114248193E-011
  0.55000000000000004          8.4878835837350321E-011
  0.55390625000000004          8.3510842089252154E-011
  0.55781250000000004          8.1690924900571652E-011
  0.56171875000000004          7.9603627520182372E-011
  0.56562500000000004          7.7456593522191768E-011
  0.56953125000000004          7.5443374257023366E-011
  0.57343750000000004          7.3742128429901490E-011
  0.57734375000000004          7.2513650051691877E-011
  0.58125000000000004          7.1890401901892705E-011
  0.58515625000000004          7.1965480458952787E-011
  0.58906250000000004          7.2801471952194253E-011
  0.59296875000000004          7.4403872064214285E-011
  0.59687500000000004          7.6738493555346562E-011
  0.60078125000000004          7.9757169680318887E-011
  0.60468750000000004          8.3358945435393600E-011
  0.60859375000000004          8.7437988007125772E-011
  0.61250000000000004          9.1863564309978318E-011
  0.61640625000000004          9.6523505705482926E-011
  0.62031250000000004          1.0131386135161361E-010
  0.62421875000000004          1.0614352680827923E-010
  0.62812500000000004          1.1092658749660253E-010
  0.63203125000000004          1.1558371610015563E-010
  0.63593750000000004          1.2005643523044982E-010
  0.63984375000000004          1.2428811297186224E-010
  0.64375000000000004          1.2823387326842154E-010
  0.64765625000000004          1.3182840428325806E-010
  0.65156250000000004          1.3501408611055241E-010
  0.65546875000000004          1.3772286724192114E-010
  0.65937500000000004          1.3988455255726194E-010
  0.66328125000000004          1.4144172410927929E-010
  0.66718750000000004          1.4234906966441114E-010
  0.67109375000000004          1.4259907608140260E-010
  0.67500000000000004          1.4221476673882986E-010
  0.67890625000000004          1.4126640638852304E-010
  0.68281250000000004          1.3986269922949005E-010
  0.68671875000000004          1.3815890281460430E-010
  0.69062500000000004          1.3633659033705017E-010
  0.69453125000000004          1.3461326864289251E-010
  0.69843750000000004          1.3319461262893216E-010
  0.70234375000000004          1.3227834175618065E-010
  0.70625000000000004          1.3202242740737786E-010
  0.71015625000000004          1.3254397650216691E-010
  0.71406250000000004          1.3388494304031068E-010
  0.71796875000000004          1.3601263793407721E-010
  0.72187500000000004          1.3882677495254768E-010
  0.72578125000000004          1.4215284751980145E-010
  0.72968750000000004          1.4577216019037284E-010
  0.73359375000000004          1.4944610878921317E-010
  0.73750000000000004          1.5291191836144497E-010
  0.74140625000000004          1.5594683251826476E-010
  0.74531250000000004          1.5836769844135780E-010
  0.74921875000000004          1.6006402768919778E-010
  0.75312500000000004          1.6097634977820739E-010
  0.75703125000000004          1.6113590079824763E-010
  0.76093750000000004          1.6063837291116562E-010
  0.76484375000000004          1.5963901964638515E-010
  0.76875000000000004          1.5832654097059432E-010
  0.77265625000000004          1.5689965822137762E-010
  0.77656250000000004          1.5555565108025933E-010
  0.78046875000000004          1.5443674162261630E-010
  0.78437500000000004          1.5363494466539729E-010
  0.78828125000000004          1.5317397070999066E-010
  0.79218750000000004          1.5301436046106027E-010
  0.79609375000000004          1.5305267828163994E-010
  0.80000000000000004          1.5313634372824603E-010
  0.80390625000000004          1.5310777540363528E-010
  0.80781250000000004          1.5280303438406124E-010
  0.81171875000000004          1.5210707612081177E-010
  0.81562500000000004          1.5095603520680682E-010
  0.81953125000000004          1.4935685119960717E-010
  0.82343750000000004          1.4739332719305347E-010
  0.82734375000000004          1.4521701803608520E-010
  0.83125000000000004          1.4305786204429479E-010
  0.83515625000000004          1.4115892023848463E-010
  0.83906250000000004          1.3977635102935693E-010
  0.84296875000000004          1.3912453078915235E-010
  0.84687500000000004          1.3935915312375014E-010
  0.85078125000000004          1.4053633741937071E-010
  0.85468750000000004          1.4260908706116130E-010
  0.85859375000000004          1.4541663883354674E-010
  0.86250000000000004          1.4870794249135377E-010
  0.86640625000000004          1.5214823965692390E-010
  0.87031250000000004          1.5535700554753299E-010
  0.87421875000000004          1.5796222365799554E-010
  0.87812500000000004          1.5961975896663630E-010
  0.88203125000000004          1.6006091693332970E-010
  0.88593750000000004          1.5913420027936848E-010
  0.88984375000000004          1.5680170067262739E-010
  0.89375000000000004          1.5316339484588740E-010
  0.89765625000000004          1.4845469449131966E-010
  0.90156250000000004          1.4300484420380291E-010
  0.90546875000000004          1.3721464962991342E-010
  0.90937500000000004          1.3150062777768475E-010
  0.91328125000000004          1.2626041958178797E-010
  0.91718750000000004          1.2182687992009455E-010
  0.92109375000000004          1.1844525317559649E-010
  0.92500000000000004          1.1623893125745610E-010