  -1.2000000000000000         -7.8875441115327737E-007
  -1.1960937500000000         -7.9367528976352361E-007
  -1.1921875000000000         -7.9858871154097420E-007
  -1.1882812500000000         -8.0349581384476181E-007
  -1.1843750000000000         -8.0839861444475722E-007
  -1.1804687500000000         -8.1329959906398597E-007
  -1.1765625000000000         -8.1820164530272385E-007
  -1.1726562500000000         -8.2310747800093970E-007
  -1.1687500000000000         -8.2801958179077147E-007
  -1.1648437500000000         -8.3293975081559287E-007
  -1.1609375000000000         -8.3786900656592385E-007
  -1.1570312500000000         -8.4280734638890594E-007
  -1.1531250000000000         -8.4775391432821835E-007
  -1.1492187500000000         -8.5270691811384314E-007
  -1.1453125000000000         -8.5766406384992232E-007
  -1.1414062500000000         -8.6262266945343915E-007
  -1.1375000000000000         -8.6757994408813997E-007
  -1.1335937500000000         -8.7253335836761918E-007
  -1.1296875000000000         -8.7748096210549037E-007
  -1.1257812500000000         -8.8242164514542991E-007
  -1.1218750000000000         -8.8735506580097745E-007
  -1.1179687500000000         -8.9228198651797420E-007
  -1.1140625000000000         -8.9720392312859782E-007
  -1.1101562500000000         -9.0212305887027575E-007
  -1.1062500000000000         -9.0704209222336605E-007
  -1.1023437500000000         -9.1196375633626524E-007
  -1.0984375000000000         -9.1689073470087203E-007
  -1.0945312500000000         -9.2182510973768950E-007
  -1.0906250000000000         -9.2676837695334873E-007
  -1.0867187500000000         -9.3172100724001968E-007
  -1.0828125000000000         -9.3668263908814943E-007
  -1.0789062500000000         -9.4165207364330577E-007
  -1.0750000000000000         -9.4662719734782884E-007
  -1.0710937500000000         -9.5160564394186375E-007
  -1.0671875000000000         -9.5658459779446249E-007
  -1.0632812500000000         -9.6156151317943236E-007
  -1.0593750000000000         -9.6653403270486649E-007
  -1.0554687500000000         -9.7150067526415945E-007
  -1.0515625000000000         -9.7646050528418218E-007
  -1.0476562500000000         -9.8141373564302950E-007
  -1.0437500000000000         -9.8636119630586386E-007
  -1.0398437500000000         -9.9130479244660570E-007
  -1.0359375000000000         -9.9624664817975956E-007
  -1.0320312500000000         -1.0011894988991939E-006
  -1.0281250000000000         -1.0061358333938549E-006
  -1.0242187500000000         -1.0110879811340672E-006
  -1.0203125000000000         -1.0160477639114016E-006
  -1.0164062500000000         -1.0210161390652747E-006
  -1.0125000000000000         -1.0259933312275794E-006
  -1.0085937500000000         -1.0309786083110831E-006
  -1.0046875000000000         -1.0359704706685319E-006
  -1.0007812500000000         -1.0409669557504673E-006
 -0.99687499999999996         -1.0459656858974583E-006
 -0.99296874999999996         -1.0509640839979776E-006
 -0.98906249999999996         -1.0559600152532828E-006
 -0.98515624999999996         -1.0609515387204844E-006
 -0.98124999999999996         -1.0659376409342797E-006
 -0.97734374999999996         -1.0709179720232728E-006
 -0.97343749999999996         -1.0758930957597792E-006
 -0.96953124999999996         -1.0808641807251339E-006
 -0.96562499999999996         -1.0858331226643459E-006
 -0.96171874999999996         -1.0908022385205831E-006
 -0.95781249999999996         -1.0957739979017868E-006
 -0.95390624999999996         -1.1007506111897051E-006
 -0.94999999999999996         -1.1057338737521350E-006
 -0.94609374999999996         -1.1107251789654349E-006
 -0.94218749999999996         -1.1157249203006846E-006
 -0.93828124999999996         -1.1207327264744211E-006
 -0.93437499999999996         -1.1257476371873721E-006
 -0.93046874999999996         -1.1307678425268939E-006
 -0.92656249999999996         -1.1357912240954851E-006
 -0.92265624999999996         -1.1408153869941078E-006
 -0.91874999999999996         -1.1458380048450070E-006
 -0.91484374999999996         -1.1508571677831421E-006
 -0.91093749999999996         -1.1558714045399808E-006
 -0.90703124999999996         -1.1608800193114670E-006
 -0.90312499999999996         -1.1658830526649766E-006
 -0.89921874999999996         -1.1708813814123231E-006
 -0.89531249999999996         -1.1758764448622877E-006
 -0.89140624999999996         -1.1808703567906236E-006
 -0.88749999999999996         -1.1858653710479571E-006
 -0.88359374999999996         -1.1908637364339643E-006
 -0.87968749999999996         -1.1958675831256390E-006
 -0.87578124999999996         -1.2008784119985588E-006
 -0.87187499999999996         -1.2058972629418007E-006
 -0.86796874999999996         -1.2109242948077573E-006
 -0.86406249999999996         -1.2159589813713497E-006
 -0.86015624999999996         -1.2210000521629840E-006
 -0.85624999999999996         -1.2260457556771129E-006
 -0.85234374999999996         -1.2310940964465697E-006
 -0.84843749999999996         -1.2361427659289522E-006
 -0.84453124999999996         -1.2411898714708674E-006
 -0.84062499999999996         -1.2462336271067801E-006
 -0.83671874999999996         -1.2512730458231194E-006
 -0.83281249999999996         -1.2563077365530416E-006
 -0.82890624999999996         -1.2613380154232933E-006
 -0.82499999999999996         -1.2663648519732321E-006
 -0.82109374999999996         -1.2713897643773495E-006
 -0.81718749999999996         -1.2764145663238936E-006
 -0.81328124999999996         -1.2814413288316656E-006
 -0.80937499999999996         -1.2864720172365163E-006
 -0.80546874999999996         -1.2915082802345873E-006
 -0.80156249999999996         -1.2965513017878735E-006
 -0.79765624999999996         -1.3016016333736822E-006
 -0.79374999999999996         -1.3066592143795506E-006
 -0.78984374999999996         -1.3117231911984311E-006
 -0.78593749999999996         -1.3167923317506980E-006
 -0.78203124999999996         -1.3218648976136019E-006
 -0.77812499999999996         -1.3269389689666785E-006
 -0.77421874999999996         -1.3320127410433034E-006
 -0.77031249999999996         -1.3370846561580452E-006
 -0.76640624999999996         -1.3421535007061260E-006
 -0.76249999999999996         -1.3472187195620271E-006
 -0.75859374999999996         -1.3522802463461356E-006
 -0.75468749999999996         -1.3573386676299201E-006
 -0.75078124999999996         -1.3623952483190599E-006
 -0.74687499999999996         -1.3674515515590999E-006
 -0.74296874999999996         -1.3725092768585509E-006
 -0.73906249999999996         -1.3775702163941379E-006
 -0.73515624999999996         -1.3826359551491693E-006
 -0.73124999999999996         -1.3877077002267091E-006
 -0.72734374999999996         -1.3927860419546060E-006
 -0.72343749999999996         -1.3978711111406457E-006
 -0.71953124999999996         -1.4029623625038747E-006
 -0.71562499999999996         -1.4080588107954626E-006
 -0.71171874999999996         -1.4131590454395699E-006
 -0.70781249999999996         -1.4182613870085102E-006
 -0.70390624999999996         -1.4233640947983245E-006
 -0.69999999999999996         -1.4284656446370364E-006
 -0.69609374999999996         -1.4335647850428626E-006
 -0.69218749999999996         -1.4386608663430592E-006
 -0.68828124999999996         -1.4437536978920467E-006
 -0.68437499999999996         -1.4488437688448920E-006
 -0.68046874999999996         -1.4539320398786587E-006
 -0.67656249999999996         -1.4590197438520076E-006
 -0.67265624999999996         -1.4641086645085736E-006
 -0.66874999999999996         -1.4692003565014802E-006
 -0.66484374999999996         -1.4742964023740623E-006
 -0.66093749999999996         -1.4793981004267954E-006
 -0.65703124999999996         -1.4845062426527688E-006
 -0.65312499999999996         -1.4896211981937756E-006
 -0.64921874999999996         -1.4947426731856683E-006
 -0.64531249999999996         -1.4998698224858613E-006
 -0.64140624999999996         -1.5050014735663867E-006
 -0.63749999999999996         -1.5101361474565606E-006
 -0.63359374999999996         -1.5152722157678932E-006
 -0.62968749999999996         -1.5204082334366194E-006
 -0.62578124999999996         -1.5255429132857268E-006
 -0.62187499999999996         -1.5306754078199440E-006
 -0.61796874999999996         -1.5358053052076354E-006
 -0.61406249999999996         -1.5409327287211885E-006
 -0.61015624999999996         -1.5460583630647679E-006
 -0.60624999999999996         -1.5511832606101148E-006
 -0.60234374999999996         -1.5563088302764973E-006
 -0.59843749999999996         -1.5614365754990375E-006
 -0.59453124999999996         -1.5665677804861376E-006
 -0.59062499999999996         -1.5717038306425730E-006
 -0.58671874999999996         -1.5768454658649618E-006
 -0.58281249999999996         -1.5819931906174171E-006
 -0.57890624999999996         -1.5871468677299790E-006
 -0.57499999999999996         -1.5923059776257627E-006
 -0.57109374999999996         -1.5974695106228696E-006
 -0.56718749999999996         -1.6026363147827526E-006
 -0.56328124999999996         -1.6078049608505548E-006
 -0.55937499999999996         -1.6129741683934789E-006
 -0.55546874999999996         -1.6181427886876190E-006
 -0.55156249999999996         -1.6233099403587428E-006
 -0.54765624999999996         -1.6284753633658850E-006
 -0.54374999999999996         -1.6336390479045850E-006
 -0.53984374999999996         -1.6388015266702645E-006
 -0.53593749999999996         -1.6439636831317811E-006
 -0.53203124999999996         -1.6491268259262371E-006
 -0.52812499999999996         -1.6542921970964618E-006
 -0.52421874999999996         -1.6594611654358126E-006
 -0.52031249999999996         -1.6646347906839303E-006
 -0.51640624999999996         -1.6698138818824215E-006
 -0.51249999999999996         -1.6749987852667108E-006
 -0.50859374999999996         -1.6801894703233253E-006
 -0.50468749999999996         -1.6853854443563155E-006
 -0.50078124999999996         -1.6905857783020660E-006
 -0.49687499999999996         -1.6957894009833794E-006
 -0.49296874999999996         -1.7009949447680911E-006
 -0.48906249999999996         -1.7062010473008605E-006
 -0.48515624999999996         -1.7114066279184919E-006
 -0.48124999999999996         -1.7166109561309944E-006
 -0.47734374999999996         -1.7218135251660422E-006
 -0.47343749999999996         -1.7270143920559498E-006
 -0.46953124999999996         -1.7322140151728058E-006
 -0.46562499999999996         -1.7374133828937495E-006
 -0.46171874999999996         -1.7426135864768023E-006
 -0.45781249999999996         -1.7478160156388778E-006
 -0.45390624999999996         -1.7530218478324569E-006
 -0.44999999999999996         -1.7582323713947906E-006
 -0.44609374999999996         -1.7634484598236159E-006
 -0.44218749999999996         -1.7686704797169510E-006
 -0.43828124999999996         -1.7738986156591937E-006
 -0.43437499999999996         -1.7791324575633840E-006
 -0.43046874999999996         -1.7843710518377723E-006
 -0.42656249999999996         -1.7896133319582803E-006
 -0.42265624999999996         -1.7948581616958343E-006
 -0.41874999999999996         -1.8001040793193562E-006
 -0.41484374999999996         -1.8053499124910132E-006
 -0.41093749999999996         -1.8105947877130687E-006
 -0.40703124999999996         -1.8158380967707915E-006
 -0.40312499999999996         -1.8210798534823830E-006
 -0.39921874999999996         -1.8263203591122158E-006
 -0.39531249999999996         -1.8315602346883131E-006
 -0.39140624999999996         -1.8368006058292498E-006
 -0.38749999999999996         -1.8420428075287934E-006
 -0.38359374999999996         -1.8472880243011467E-006
 -0.37968749999999996         -1.8525375129931387E-006
 -0.37578124999999996         -1.8577922674777592E-006
 -0.37187499999999996         -1.8630528441794656E-006
 -0.36796874999999996         -1.8683193113647763E-006
 -0.36406249999999996         -1.8735916051297890E-006
 -0.36015624999999996         -1.8788689796998764E-006
 -0.35624999999999996         -1.8841503827939974E-006
 -0.35234374999999996         -1.8894348377150713E-006
 -0.34843749999999996         -1.8947209611842021E-006
 -0.34453124999999996         -1.9000075751252040E-006
 -0.34062499999999996         -1.9052937310173430E-006
 -0.33671874999999996         -1.9105789058545495E-006
 -0.33281249999999996         -1.9158627329114122E-006
 -0.32890624999999996         -1.9211456626922597E-006
 -0.32499999999999996         -1.9264283107292635E-006
 -0.32109374999999996         -1.9317114710821811E-006
 -0.31718749999999996         -1.9369966513953091E-006
 -0.31328124999999996         -1.9422847670894555E-006
 -0.30937499999999996         -1.9475774433027315E-006
 -0.30546874999999996         -1.9528754477818605E-006
 -0.30156249999999996         -1.9581793511943359E-006
 -0.29765624999999996         -1.9634896534408976E-006
 -0.29374999999999996         -1.9688059637922691E-006
 -0.28984374999999996         -1.9741277381067388E-006
 -0.28593749999999996         -1.9794538034855105E-006
 -0.28203124999999996         -1.9847830769718941E-006
 -0.27812499999999996         -1.9901142270772666E-006
 -0.27421874999999996         -1.9954459575319652E-006
 -0.27031249999999996         -2.0007772687246465E-006
 -0.26640624999999996         -2.0061073474289373E-006
 -0.26249999999999996         -2.0114359478556439E-006
 -0.25859374999999996         -2.0167631014324461E-006
 -0.25468749999999996         -2.0220895638658257E-006
 -0.25078124999999996         -2.0274161222812091E-006
 -0.24687499999999996         -2.0327442612175634E-006
 -0.24296874999999996         -2.0380753576431596E-006
 -0.23906249999999996         -2.0434109165869498E-006
 -0.23515624999999996         -2.0487519859454052E-006
 -0.23124999999999996         -2.0540996719706825E-006
 -0.22734374999999996         -2.0594542075759404E-006
 -0.22343749999999996         -2.0648157189375276E-006
 -0.21953124999999996         -2.0701835560999755E-006
 -0.21562499999999996         -2.0755568622956032E-006
 -0.21171874999999996         -2.0809343255085808E-006
 -0.20781249999999996         -2.0863144768187152E-006
 -0.20390624999999996         -2.0916958845345880E-006
 -0.19999999999999996         -2.0970770926120416E-006
 -0.19609374999999996         -2.1024572877619616E-006
 -0.19218749999999996         -2.1078357568333772E-006
 -0.18828124999999996         -2.1132126666757234E-006
 -0.18437499999999996         -2.1185880487166807E-006
 -0.18046874999999996         -2.1239631074728608E-006
 -0.17656249999999996         -2.1293390159704514E-006
 -0.17265624999999996         -2.1347172106534254E-006
 -0.16874999999999996         -2.1400990232005397E-006
 -0.16484374999999996         -2.1454862184906428E-006
 -0.16093749999999996         -2.1508796608407170E-006
 -0.15703124999999996         -2.1562799920740140E-006
 -0.15312499999999996         -2.1616877445674947E-006
 -0.14921874999999996         -2.1671023834229429E-006
 -0.14531249999999996         -2.1725231297011547E-006
 -0.14140624999999996         -2.1779488910745494E-006
 -0.13749999999999996         -2.1833781179243258E-006
 -0.13359374999999996         -2.1888094312723958E-006
 -0.12968749999999996         -2.1942411460154627E-006
 -0.12578124999999996         -2.1996722762138814E-006
 -0.12187499999999996         -2.2051017581622734E-006
 -0.11796874999999996         -2.2105294721223078E-006
 -0.11406249999999996         -2.2159554605780185E-006
 -0.11015624999999996         -2.2213805636297749E-006
 -0.10624999999999996         -2.2268059340039134E-006
 -0.10234374999999996         -2.2322329377397460E-006
  -9.8437499999999956E-002    -2.2376631159749823E-006
  -9.4531249999999956E-002    -2.2430981585654746E-006
  -9.0624999999999956E-002    -2.2485394668949762E-006
  -8.6718749999999956E-002    -2.2539878821751374E-006
  -8.2812499999999956E-002    -2.2594439990640992E-006
  -7.8906249999999956E-002    -2.2649076710122770E-006
  -7.4999999999999956E-002    -2.2703783009744927E-006
  -7.1093749999999956E-002    -2.2758546547633949E-006
  -6.7187499999999956E-002    -2.2813354312921145E-006
  -6.3281249999999956E-002    -2.2868189204049485E-006
  -5.9374999999999956E-002    -2.2923035687878172E-006
  -5.5468749999999956E-002    -2.2977880650618136E-006
  -5.1562499999999956E-002    -2.3032711024663671E-006
  -4.7656249999999956E-002    -2.3087522560609951E-006
  -4.3749999999999956E-002    -2.3142314098026460E-006
  -3.9843749999999956E-002    -2.3197090792754835E-006
  -3.5937499999999956E-002    -2.3251864272763998E-006
  -3.2031249999999956E-002    -2.3306647687540966E-006
  -2.8124999999999956E-002    -2.3361457424738172E-006
  -2.4218749999999956E-002    -2.3416308656408840E-006
  -2.0312499999999956E-002    -2.3471219484864014E-006
  -1.6406249999999956E-002    -2.3526198694507953E-006
  -1.2499999999999956E-002    -2.3581256172164474E-006
  -8.5937499999999556E-003    -2.3636394515686045E-006
  -4.6874999999999556E-003    -2.3691607771475515E-006
  -7.8124999999995559E-004    -2.3746886852679409E-006
   3.1250000000000444E-003    -2.3802220742313017E-006
   7.0312500000000444E-003    -2.3857592849725397E-006
   1.0937500000000044E-002    -2.3912986211977867E-006
   1.4843750000000044E-002    -2.3968385045405565E-006
   1.8750000000000044E-002    -2.4023775660933161E-006
   2.2656250000000044E-002    -2.4079150053715107E-006
   2.6562500000000044E-002    -2.4134505998186687E-006
   3.0468750000000044E-002    -2.4189844827507303E-006
   3.4375000000000044E-002    -2.4245175138682491E-006
   3.8281250000000044E-002    -2.4300510675956288E-006
   4.2187500000000044E-002    -2.4355864977958091E-006
   4.6093750000000044E-002    -2.4411256130144325E-006
   5.0000000000000044E-002    -2.4466701456541261E-006
   5.3906250000000044E-002    -2.4522213089008168E-006
   5.7812500000000044E-002    -2.4577802705254347E-006
   6.1718750000000044E-002    -2.4633473078075963E-006
   6.5625000000000044E-002    -2.4689222550178827E-006
   6.9531250000000044E-002    -2.4745045714569848E-006
   7.3437500000000044E-002    -2.4800931740408187E-006
   7.7343750000000044E-002    -2.4856864722892713E-006
   8.1250000000000044E-002    -2.4912826790765681E-006
   8.5156250000000044E-002    -2.4968802557775193E-006
   8.9062500000000044E-002    -2.5024778379755365E-006
   9.2968750000000044E-002    -2.5080743572126855E-006
   9.6875000000000044E-002    -2.5136694432716290E-006
  0.10078125000000004         -2.5192629141955991E-006
  0.10468750000000004         -2.5248554978959326E-006
  0.10859375000000004         -2.5304483599750028E-006
  0.11250000000000004         -2.5360427376157763E-006
  0.11640625000000004         -2.5416404782153908E-006
  0.12031250000000004         -2.5472431594406679E-006
  0.12421875000000004         -2.5528521910604524E-006
  0.12812500000000004         -2.5584687287320459E-006
  0.13203125000000004         -2.5640933153233143E-006
  0.13593750000000004         -2.5697261013006046E-006
  0.13984375000000004         -2.5753665553982387E-006
  0.14375000000000004         -2.5810137392601267E-006
  0.14765625000000004         -2.5866662850272771E-006
  0.15156250000000004         -2.5923224724734321E-006
  0.15546875000000004         -2.5979808083256577E-006
  0.15937500000000004         -2.6036397112845964E-006
  0.16328125000000004         -2.6092980618017050E-006
  0.16718750000000004         -2.6149552809003591E-006
  0.17109375000000004         -2.6206111244768271E-006
  0.17500000000000004         -2.6262658919321672E-006
  0.17890625000000004         -2.6319203703918075E-006
  0.18281250000000004         -2.6375760975597892E-006
  0.18671875000000004         -2.6432343976283126E-006
  0.19062500000000004         -2.6488968675782507E-006
  0.19453125000000004         -2.6545653030792094E-006
  0.19843750000000004         -2.6602407475367183E-006
  0.20234375000000004         -2.6659239607014122E-006
  0.20625000000000004         -2.6716154018743288E-006
  0.21015625000000004         -2.6773147744598891E-006
  0.21406250000000004         -2.6830213023890189E-006
  0.21796875000000004         -2.6887337392979966E-006
  0.22187500000000004         -2.6944508481312475E-006
  0.22578125000000004         -2.7001709650711245E-006
  0.22968750000000004         -2.7058927665623503E-006
  0.23359375000000004         -2.7116148817503188E-006
  0.23750000000000004         -2.7173363673049036E-006
  0.24140625000000004         -2.7230569568754479E-006
  0.24531250000000004         -2.7287770296385625E-006
  0.24921875000000004         -2.7344970715704105E-006
  0.25312500000000004         -2.7402181749985719E-006
  0.25703125000000004         -2.7459415891549916E-006
  0.26093750000000004         -2.7516688203160299E-006
  0.26484375000000004         -2.7574014712009137E-006
  0.26875000000000004         -2.7631407939744588E-006
  0.27265625000000004         -2.7688873943511600E-006
  0.27656250000000004         -2.7746420182198193E-006
  0.28046875000000004         -2.7804043178942487E-006
  0.28437500000000004         -2.7861737742223996E-006
  0.28828125000000004         -2.7919493252470969E-006
  0.29218750000000004         -2.7977294768683503E-006
  0.29609375000000004         -2.8035129501834742E-006
  0.30000000000000004         -2.8092982814001413E-006
  0.30390625000000004         -2.8150842555195689E-006
  0.30781250000000004         -2.8208699150881856E-006
  0.31171875000000004         -2.8266546543914986E-006
  0.31562500000000004         -2.8324388117448042E-006
  0.31953125000000004         -2.8382228062247502E-006
  0.32343750000000004         -2.8440077172828816E-006
  0.32734375000000004         -2.8497949639961919E-006
  0.33125000000000004         -2.8555858671144785E-006
  0.33515625000000004         -2.8613820728895417E-006
  0.33906250000000004         -2.8671849737232483E-006
  0.34296875000000004         -2.8729954648507310E-006
  0.34687500000000004         -2.8788141066342269E-006
  0.35078125000000004         -2.8846409113128488E-006
  0.35468750000000004         -2.8904752336836822E-006
  0.35859375000000004         -2.8963163076208164E-006
  0.36250000000000004         -2.9021628866977868E-006
  0.36640625000000004         -2.9080132764404053E-006
  0.37031250000000004         -2.9138662432355016E-006
  0.37421875000000004         -2.9197202064833814E-006
  0.37812500000000004         -2.9255743256720596E-006
  0.38203125000000004         -2.9314279792781338E-006
  0.38593750000000004         -2.9372811865529155E-006
  0.38984375000000004         -2.9431341607466359E-006
  0.39375000000000004         -2.9489876658793910E-006
  0.39765625000000004         -2.9548429541159984E-006
  0.40156250000000004         -2.9607016141168901E-006
  0.40546875000000004         -2.9665650585837850E-006
  0.40937500000000004         -2.9724343838256763E-006
  0.41328125000000004         -2.9783109292067477E-006
  0.41718750000000004         -2.9841954341777849E-006
  0.42109375000000004         -2.9900881120517605E-006
  0.42500000000000004         -2.9959887208935011E-006
  0.42890625000000004         -3.0018964614012088E-006
  0.43281250000000004         -3.0078103958557167E-006
  0.43671875000000004         -3.0137292684596711E-006
  0.44062500000000004         -3.0196517195490361E-006
  0.44453125000000004         -3.0255762289856177E-006
  0.44843750000000004         -3.0315018079596400E-006
  0.45234375000000004         -3.0374278804273513E-006
  0.45625000000000004         -3.0433539279363663E-006
  0.46015625000000004         -3.0492803214055961E-006
  0.46406250000000004         -3.0552077556332349E-006
  0.46796875000000004         -3.0611370021259364E-006
  0.47187500000000004         -3.0670695153697891E-006
  0.47578125000000004         -3.0730064592729673E-006
  0.47968750000000004         -3.0789491982520599E-006
  0.48359375000000004         -3.0848986728317141E-006
  0.48750000000000004         -3.0908556584440797E-006
  0.49140625000000004         -3.0968204805911616E-006
  0.49531250000000004         -3.1027929194573169E-006
  0.49921875000000004         -3.1087724621383798E-006
  0.50312500000000004         -3.1147581161920371E-006
  0.50703125000000004         -3.1207488056091458E-006
  0.51093750000000004         -3.1267430937556000E-006
  0.51484375000000004         -3.1327396987958407E-006
  0.51875000000000004         -3.1387376847608169E-006
  0.52265625000000004         -3.1447361529729927E-006
  0.52656250000000004         -3.1507351488492761E-006
  0.53046875000000004         -3.1567347021878004E-006
  0.53437500000000004         -3.1627353397545668E-006
  0.53828125000000004         -3.1687382813655634E-006
  0.54218750000000004         -3.1747446066624701E-006
  0.54609375000000004         -3.1807559294208672E-006
  0.55000000000000004         -3.1867734537105767E-006
  0.55390625000000004         -3.1927984445724511E-006
  0.55781250000000004         -3.1988315169644814E-006
  0.56171875000000004         -3.2048732783581004E-006
  0.56562500000000004         -3.2109234606525381E-006
  0.56953125000000004         -3.2169812644186033E-006
  0.57343750000000004         -3.2230458669316410E-006
  0.57734375000000004         -3.2291158286874125E-006
  0.58125000000000004         -3.2351897259278469E-006
  0.58515625000000004         -3.2412661889183535E-006
  0.58906250000000004         -3.2473439468797273E-006
  0.59296875000000004         -3.2534219796391646E-006
  0.59687500000000004         -3.2594999070989068E-006
  0.60078125000000004         -3.2655776763486651E-006
  0.60468750000000004         -3.2716558829382874E-006
  0.60859375000000004         -3.2777354756432949E-006
  0.61250000000000004         -3.2838178642971834E-006
  0.61640625000000004         -3.2899044466198209E-006
  0.62031250000000004         -3.2959964764614883E-006
  0.62421875000000004         -3.3020953757046585E-006
  0.62812500000000004         -3.3082023553667027E-006
  0.63203125000000004         -3.3143177716129888E-006
  0.63593750000000004         -3.3204418172665053E-006
  0.63984375000000004         -3.3265742168026646E-006
  0.64375000000000004         -3.3327138044289603E-006
  0.64765625000000004         -3.3388596080029302E-006
  0.65156250000000004         -3.3450103311275175E-006
  0.65546875000000004         -3.3511644971971029E-006
  0.65937500000000004         -3.3573207634050987E-006
  0.66328125000000004         -3.3634782450631969E-006
  0.66718750000000004         -3.3696363115946332E-006
  0.67109375000000004         -3.3757947897766055E-006
  0.67500000000000004         -3.3819540507181606E-006
  0.67890625000000004         -3.3881147613596064E-006
  0.68281250000000004         -3.3942782450974795E-006
  0.68671875000000004         -3.4004458290568514E-006
  0.69062500000000004         -3.4066188062638524E-006
  0.69453125000000004         -3.4127985666970063E-006
  0.69843750000000004         -3.4189859274454412E-006
  0.70234375000000004         -3.4251815059237521E-006
  0.70625000000000004         -3.4313853919466511E-006
  0.71015625000000004         -3.4375972173379660E-006
  0.71406250000000004         -3.4438164913130614E-006
  0.71796875000000004         -3.4500418219531645E-006
  0.72187500000000004         -3.4562719320410524E-006
  0.72578125000000004         -3.4625056251208541E-006
  0.72968750000000004         -3.4687414851758406E-006
  0.73359375000000004         -3.4749785988327616E-006
  0.73750000000000004         -3.4812165274079583E-006
  0.74140625000000004         -3.4874549751975606E-006
  0.74531250000000004         -3.4936944283678675E-006
  0.74921875000000004         -3.4999358997256930E-006
  0.75312500000000004         -3.5061804714320643E-006
  0.75703125000000004         -3.5124292927709152E-006
  0.76093750000000004         -3.5186841172786079E-006
  0.76484375000000004         -3.5249463335343365E-006
  0.76875000000000004         -3.5312170170709758E-006
  0.77265625000000004         -3.5374968181996936E-006
  0.77656250000000004         -3.5437859304431421E-006
  0.78046875000000004         -3.5500839681307776E-006
  0.78437500000000004         -3.5563901253953916E-006
  0.78828125000000004         -3.5627032225826441E-006
  0.79218750000000004         -3.5690219027625030E-006
  0.79609375000000004         -3.5753445986248368E-006
  0.80000000000000004         -3.5816700220862041E-006
  0.80390625000000004         -3.5879967301303982E-006
  0.80781250000000004         -3.5943241485892643E-006
  0.81171875000000004         -3.6006519659500243E-006
  0.81562500000000004         -3.6069802155159581E-006
  0.81953125000000004         -3.6133096856599014E-006
  0.82343750000000004         -3.6196415402272881E-006
  0.82734375000000004         -3.6259770728811700E-006
  0.83125000000000004         -3.6323178241310697E-006
  0.83515625000000004         -3.6386653408598744E-006
  0.83906250000000004         -3.6450210845012204E-006
  0.84296875000000004         -3.6513857630222943E-006
  0.84687500000000004         -3.6577598111812578E-006
  0.85078125000000004         -3.6641432597042182E-006
  0.85468750000000004         -3.6705354447111317E-006
  0.85859375000000004         -3.6769354592021142E-006
  0.86250000000000004         -3.6833422533963608E-006
  0.86640625000000004         -3.6897542379269498E-006
  0.87031250000000004         -3.6961700716727566E-006
  0.87421875000000004         -3.7025884497488100E-006
  0.87812500000000004         -3.7090084716578934E-006
  0.88203125000000004         -3.7154296911651391E-006
  0.88593750000000004         -3.7218520350604066E-006
  0.88984375000000004         -3.7282758230446060E-006
  0.89375000000000004         -3.7347021447740553E-006
  0.89765625000000004         -3.7411320184117427E-006
  0.90156250000000004         -3.7475668776676372E-006
  0.90546875000000004         -3.7540078151622772E-006
  0.90937500000000004         -3.7604563295580737E-006
  0.91328125000000004         -3.7669129996415166E-006
  0.91718750000000004         -3.7733784311985767E-006
  0.92109375000000004         -3.7798528338469469E-006
  0.92500000000000004         -3.7863355012225507E-006