  -1.2000000000000000          2.7940765339738217E-007
  -1.1960937500000000          2.7440458662849282E-007
  -1.1921875000000000          2.6940343706118044E-007
  -1.1882812500000000          2.6440398123459557E-007
  -1.1843750000000000          2.5940582898569417E-007
  -1.1804687500000000          2.5440848312201056E-007
  -1.1765625000000000          2.4941141108698350E-007
  -1.1726562500000000          2.4441404413288312E-007
  -1.1687500000000000          2.3941588825455587E-007
  -1.1648437500000000          2.3441658788523187E-007
  -1.1609375000000000          2.2941592136708542E-007
  -1.1570312500000000          2.2441385996977300E-007
  -1.1531250000000000          2.1941056408480056E-007
  -1.1492187500000000          2.1440633927605861E-007
  -1.1453125000000000          2.0940165366203489E-007
  -1.1414062500000000          2.0439705142796160E-007
  -1.1375000000000000          1.9939310257060720E-007
  -1.1335937500000000          1.9439032464314221E-007
  -1.1296875000000000          1.8938916746237660E-007
  -1.1257812500000000          1.8438992009547374E-007
  -1.1218750000000000          1.7939269129033318E-007
  -1.1179687500000000          1.7439739643973242E-007
  -1.1140625000000000          1.6940373948839579E-007
  -1.1101562500000000          1.6441128833836519E-007
  -1.1062500000000000          1.5941951102902563E-007
  -1.1023437500000000          1.5442779021044832E-007
  -1.0984375000000000          1.4943552262395491E-007
  -1.0945312500000000          1.4444217315155631E-007
  -1.0906250000000000          1.3944734292435121E-007
  -1.0867187500000000          1.3445079785495956E-007
  -1.0828125000000000          1.2945249507919881E-007
  -1.0789062500000000          1.2445261604683591E-007
  -1.0750000000000000          1.1945151886446809E-007
  -1.0710937500000000          1.1444970864378455E-007
  -1.0671875000000000          1.0944779310083907E-007
  -1.0632812500000000          1.0444640733512356E-007
  -1.0593750000000000          9.9446147835379660E-008
  -1.0554687500000000          9.4447514283458739E-008
  -1.0515625000000000          8.9450846179298659E-008
  -1.0476562500000000          8.4456288928617451E-008
  -1.0437500000000000          7.9463776746824407E-008
  -1.0398437500000000          7.4473046493408725E-008
  -1.0359375000000000          6.9483646812344660E-008
  -1.0320312500000000          6.4494998077586725E-008
  -1.0281250000000000          5.9506441298957832E-008
  -1.0242187500000000          5.4517323721605346E-008
  -1.0203125000000000          4.9527061352588211E-008
  -1.0164062500000000          4.4535191954718389E-008
  -1.0125000000000000          3.9541433462616870E-008
  -1.0085937500000000          3.4545710537087482E-008
  -1.0046875000000000          2.9548164241090829E-008
  -1.0007812500000000          2.4549127124003679E-008
 -0.99687499999999996          1.9549106718670344E-008
 -0.99296874999999996          1.4548701485896295E-008
 -0.98906249999999996          9.5485474560337107E-009
 -0.98515624999999996          4.5492590370731065E-009
 -0.98124999999999996         -4.4865364615619677E-010
 -0.97734374999999996         -5.4448374973109248E-009
 -0.97343749999999996         -1.0439129069022567E-008
 -0.96953124999999996         -1.5431583659415108E-008
 -0.96562499999999996         -2.0422462501496389E-008
 -0.96171874999999996         -2.5412204567498669E-008
 -0.95781249999999996         -3.0401375223908586E-008
 -0.95390624999999996         -3.5390615049283291E-008
 -0.94999999999999996         -4.0380548029018393E-008
 -0.94609374999999996         -4.5371740764263602E-008
 -0.94218749999999996         -5.0364623519116871E-008
 -0.93828124999999996         -5.5359431035500595E-008
 -0.93437499999999996         -6.0356208137419940E-008
 -0.93046874999999996         -6.5354774908202060E-008
 -0.92656249999999996         -7.0354770873390293E-008
 -0.92265624999999996         -7.5355679593265863E-008
 -0.91874999999999996         -8.0356886222475261E-008
 -0.91484374999999996         -8.5357771881798997E-008
 -0.91093749999999996         -9.0357756235140630E-008
 -0.90703124999999996         -9.5356370696204215E-008
 -0.90312499999999996         -1.0035332724545666E-007
 -0.89921874999999996         -1.0534852925882218E-007
 -0.89531249999999996         -1.1034208853345137E-007
 -0.89140624999999996         -1.1533434016976868E-007
 -0.88749999999999996         -1.2032577533527895E-007
 -0.88359374999999996         -1.2531697928310214E-007
 -0.87968749999999996         -1.3030861686565361E-007
 -0.87578124999999996         -1.3530130033021688E-007
 -0.87187499999999996         -1.4029554382318419E-007
 -0.86796874999999996         -1.4529171522036698E-007
 -0.86406249999999996         -1.5028998413422590E-007
 -0.86015624999999996         -1.5529028680181387E-007
 -0.85624999999999996         -1.6029237878274035E-007
 -0.85234374999999996         -1.6529580230727917E-007
 -0.84843749999999996         -1.7029997385972271E-007
 -0.84453124999999996         -1.7530427426355571E-007
 -0.84062499999999996         -1.8030805228019586E-007
 -0.83671874999999996         -1.8531077820703425E-007
 -0.83281249999999996         -1.9031203637768346E-007
 -0.82890624999999996         -1.9531161970392921E-007
 -0.82499999999999996         -2.0030953113606125E-007
 -0.82109374999999996         -2.0530601975299116E-007
 -0.81718749999999996         -2.1030151087755787E-007
 -0.81328124999999996         -2.1529655971822125E-007
 -0.80937499999999996         -2.2029184630137607E-007
 -0.80546874999999996         -2.2528800106265251E-007
 -0.80156249999999996         -2.3028565244106449E-007
 -0.79765624999999996         -2.3528528257909183E-007
 -0.79374999999999996         -2.4028713367062655E-007
 -0.78984374999999996         -2.4529129880128310E-007
 -0.78593749999999996         -2.5029758028656043E-007
 -0.78203124999999996         -2.5530559615425692E-007
 -0.77812499999999996         -2.6031479787172514E-007
 -0.77421874999999996         -2.6532454006613845E-007
 -0.77031249999999996         -2.7033411360628903E-007
 -0.76640624999999996         -2.7534291790562044E-007
 -0.76249999999999996         -2.8035044807678012E-007
 -0.75859374999999996         -2.8535635089456452E-007
 -0.75468749999999996         -2.9036052158305274E-007
 -0.75078124999999996         -2.9536308984631297E-007
 -0.74687499999999996         -3.0036443305366601E-007
 -0.74296874999999996         -3.0536506649026451E-007
 -0.73906249999999996         -3.1036567700711056E-007
 -0.73515624999999996         -3.1536695131044965E-007
 -0.73124999999999996         -3.2036957543329859E-007
 -0.72734374999999996         -3.2537409955969428E-007
 -0.72343749999999996         -3.3038094271745353E-007
 -0.71953124999999996         -3.3539026258230951E-007
 -0.71562499999999996         -3.4040202005319211E-007
 -0.71171874999999996         -3.4541590949328654E-007
 -0.70781249999999996         -3.5043144781595870E-007
 -0.70390624999999996         -3.5544801967571681E-007
 -0.69999999999999996         -3.6046493202460809E-007
 -0.69609374999999996         -3.6548147651515392E-007
 -0.69218749999999996         -3.7049708456575469E-007
 -0.68828124999999996         -3.7551134746624147E-007
 -0.68437499999999996         -3.8052404428593797E-007
 -0.68046874999999996         -3.8553519814984547E-007
 -0.67656249999999996         -3.9054503686016260E-007
 -0.67265624999999996         -3.9555404403044271E-007
 -0.66874999999999996         -4.0056282616770280E-007
 -0.66484374999999996         -4.0557205043640961E-007
 -0.66093749999999996         -4.1058241313536379E-007
 -0.65703124999999996         -4.1559448310866436E-007
 -0.65312499999999996         -4.2060873054722146E-007
 -0.64921874999999996         -4.2562538280222804E-007
 -0.64531249999999996         -4.3064449794570647E-007
 -0.64140624999999996         -4.3566584352568801E-007
 -0.63749999999999996         -4.4068899499340364E-007
 -0.63359374999999996         -4.4571337459480585E-007
 -0.62968749999999996         -4.5073836734679094E-007
 -0.62578124999999996         -4.5576330440745500E-007
 -0.62187499999999996         -4.6078762405824405E-007
 -0.61796874999999996         -4.6581087887966200E-007
 -0.61406249999999996         -4.7083284621208597E-007
 -0.61015624999999996         -4.7585352848482731E-007
 -0.60624999999999996         -4.8087313800689590E-007
 -0.60234374999999996         -4.8589209464157864E-007
 -0.59843749999999996         -4.9091098142569923E-007
 -0.59453124999999996         -4.9593051087881661E-007
 -0.59062499999999996         -5.0095128965679248E-007
 -0.58671874999999996         -5.0597394874807922E-007
 -0.58281249999999996         -5.1099893186017286E-007
 -0.57890624999999996         -5.1602649543233249E-007
 -0.57499999999999996         -5.2105668333321542E-007
 -0.57109374999999996         -5.2608921387385030E-007
 -0.56718749999999996         -5.3112375780764536E-007
 -0.56328124999999996         -5.3615962894453928E-007
 -0.55937499999999996         -5.4119621778390214E-007
 -0.55546874999999996         -5.4623285652949631E-007
 -0.55156249999999996         -5.5126893855272394E-007
 -0.54765624999999996         -5.5630401309229369E-007
 -0.54374999999999996         -5.6133782679429966E-007
 -0.53984374999999996         -5.6637036256005294E-007
 -0.53593749999999996         -5.7140181458273374E-007
 -0.53203124999999996         -5.7643265465918642E-007
 -0.52812499999999996         -5.8146349467144047E-007
 -0.52421874999999996         -5.8649499849934676E-007
 -0.52031249999999996         -5.9152783959261787E-007
 -0.51640624999999996         -5.9656263757285741E-007
 -0.51249999999999996         -6.0159991651780691E-007
 -0.50859374999999996         -6.0663987466678948E-007
 -0.50468749999999996         -6.1168258788517743E-007
 -0.50078124999999996         -6.1672788135527313E-007
 -0.49687499999999996         -6.2177535562912407E-007
 -0.49296874999999996         -6.2682442719523269E-007
 -0.48906249999999996         -6.3187448538931129E-007
 -0.48515624999999996         -6.3692475876900154E-007
 -0.48124999999999996         -6.4197470364531987E-007
 -0.47734374999999996         -6.4702380250590372E-007
 -0.47343749999999996         -6.5207180157625902E-007
 -0.46953124999999996         -6.5711866960874012E-007
 -0.46562499999999996         -6.6216451240601974E-007
 -0.46171874999999996         -6.6720977333429005E-007
 -0.45781249999999996         -6.7225503331290312E-007
 -0.45390624999999996         -6.7730088237650147E-007
 -0.44999999999999996         -6.8234802082444304E-007
 -0.44609374999999996         -6.8739700912904815E-007
 -0.44218749999999996         -6.9244832729919237E-007
 -0.43828124999999996         -6.9750220543795314E-007
 -0.43437499999999996         -7.0255872830252719E-007
 -0.43046874999999996         -7.0761774808923038E-007
 -0.42656249999999996         -7.1267885619258578E-007
 -0.42265624999999996         -7.1774153245493845E-007
 -0.41874999999999996         -7.2280516127757023E-007
 -0.41484374999999996         -7.2786907881290706E-007
 -0.41093749999999996         -7.3293281838085793E-007
 -0.40703124999999996         -7.3799591161986279E-007
 -0.40312499999999996         -7.4305818434461585E-007
 -0.39921874999999996         -7.4811964072855905E-007
 -0.39531249999999996         -7.5318053528093378E-007
 -0.39140624999999996         -7.5824131311912189E-007
 -0.38749999999999996         -7.6330249913361873E-007
 -0.38359374999999996         -7.6836471923160533E-007
 -0.37968749999999996         -7.7342863536799662E-007
 -0.37578124999999996         -7.7849473334850514E-007
 -0.37187499999999996         -7.8356346697856449E-007
 -0.36796874999999996         -7.8863498639527801E-007
 -0.36406249999999996         -7.9370927353301336E-007
 -0.36015624999999996         -7.9878604249479531E-007
 -0.35624999999999996         -8.0386485033033175E-007
 -0.35234374999999996         -8.0894515431408797E-007
 -0.34843749999999996         -8.1402629461912406E-007
 -0.34453124999999996         -8.1910760790427118E-007
 -0.34062499999999996         -8.2418855822724738E-007
 -0.33671874999999996         -8.2926874420135292E-007
 -0.33281249999999996         -8.3434796097069988E-007
 -0.32890624999999996         -8.3942627636738835E-007
 -0.32499999999999996         -8.4450398475828144E-007
 -0.32109374999999996         -8.4958155781641863E-007
 -0.31718749999999996         -8.5465961029352600E-007
 -0.31328124999999996         -8.5973885759394864E-007
 -0.30937499999999996         -8.6481994950616117E-007
 -0.30546874999999996         -8.6990344929621954E-007
 -0.30156249999999996         -8.7498978750553202E-007
 -0.29765624999999996         -8.8007926897263419E-007
 -0.29374999999999996         -8.8517181742010754E-007
 -0.28984374999999996         -8.9026723253502900E-007
 -0.28593749999999996         -8.9536505353810341E-007
 -0.28203124999999996         -9.0046471036730249E-007
 -0.27812499999999996         -9.0556555991308835E-007
 -0.27421874999999996         -9.1066696150227733E-007
 -0.27031249999999996         -9.1576828576863542E-007
 -0.26640624999999996         -9.2086927144103223E-007
 -0.26249999999999996         -9.2596955922807009E-007
 -0.25859374999999996         -9.3106911375263403E-007
 -0.25468749999999996         -9.3616826495686422E-007
 -0.25078124999999996         -9.4126728763928140E-007
 -0.24687499999999996         -9.4636680325845974E-007
 -0.24296874999999996         -9.5146747720822970E-007
 -0.23906249999999996         -9.5656991613449508E-007
 -0.23515624999999996         -9.6167463671404935E-007
 -0.23124999999999996         -9.6678197391427650E-007
 -0.22734374999999996         -9.7189221147073981E-007
 -0.22343749999999996         -9.7700534552354210E-007
 -0.21953124999999996         -9.8212122263196196E-007
 -0.21562499999999996         -9.8723944001106053E-007
 -0.21171874999999996         -9.9235948773655478E-007
 -0.20781249999999996         -9.9748088222056556E-007
 -0.20390624999999996         -1.0026029270583136E-006
 -0.19999999999999996         -1.0077251823821332E-006
 -0.19609374999999996         -1.0128472780151693E-006
 -0.19218749999999996         -1.0179690231427467E-006
 -0.18828124999999996         -1.0230903907103552E-006
 -0.18437499999999996         -1.0282115852868684E-006
 -0.18046874999999996         -1.0333330286413775E-006
 -0.17656249999999996         -1.0384552868903673E-006
 -0.17265624999999996         -1.0435788493157553E-006
 -0.16874999999999996         -1.0487043920694608E-006
 -0.16484374999999996         -1.0538323614821739E-006
 -0.16093749999999996         -1.0589630618743962E-006
 -0.15703124999999996         -1.0640967838733348E-006
 -0.15312499999999996         -1.0692334256578542E-006
 -0.14921874999999996         -1.0743728252208029E-006
 -0.14531249999999996         -1.0795146586577876E-006
 -0.14140624999999996         -1.0846583289770315E-006
 -0.13749999999999996         -1.0898033460073897E-006
 -0.13359374999999996         -1.0949490955222974E-006
 -0.12968749999999996         -1.1000950852472048E-006
 -0.12578124999999996         -1.1052409126918766E-006
 -0.12187499999999996         -1.1103863689075978E-006
 -0.11796874999999996         -1.1155313726308210E-006
 -0.11406249999999996         -1.1206761872748879E-006
 -0.11015624999999996         -1.1258210824149129E-006
 -0.10624999999999996         -1.1309666150129761E-006
 -0.10234374999999996         -1.1361133903260320E-006
  -9.8437499999999956E-002    -1.1412619366070882E-006
  -9.4531249999999956E-002    -1.1464128062775952E-006
  -9.0624999999999956E-002    -1.1515664670150398E-006
  -8.6718749999999956E-002    -1.1567232123427208E-006
  -8.2812499999999956E-002    -1.1618831617517287E-006
  -7.8906249999999956E-002    -1.1670462176922924E-006
  -7.4999999999999956E-002    -1.1722121622663104E-006
  -7.1093749999999956E-002    -1.1773804998881969E-006
  -6.7187499999999956E-002    -1.1825509320770341E-006
  -6.3281249999999956E-002    -1.1877227522899178E-006
  -5.9374999999999956E-002    -1.1928955877688281E-006
  -5.5468749999999956E-002    -1.1980688965100369E-006
  -5.1562499999999956E-002    -1.2032423927065629E-006
  -4.7656249999999956E-002    -1.2084158484492390E-006
  -4.3749999999999956E-002    -1.2135893191547335E-006
  -3.9843749999999956E-002    -1.2187630544856674E-006
  -3.5937499999999956E-002    -1.2239373050567031E-006
  -3.2031249999999956E-002    -1.2291124817823017E-006
  -2.8124999999999956E-002    -1.2342890973625955E-006
  -2.4218749999999956E-002    -1.2394675194204515E-006
  -2.0312499999999956E-002    -1.2446480792852188E-006
  -1.6406249999999956E-002    -1.2498311900458659E-006
  -1.2499999999999956E-002    -1.2550169484477132E-006
  -8.5937499999999556E-003    -1.2602054610321041E-006
  -4.6874999999999556E-003    -1.2653965894114698E-006
  -7.8124999999995559E-004    -1.2705901156640090E-006
   3.1250000000000444E-003    -1.2757857324339966E-006
   7.0312500000000444E-003    -1.2809830682878075E-006
   1.0937500000000044E-002    -1.2861817467532055E-006
   1.4843750000000044E-002    -1.2913813711442102E-006
   1.8750000000000044E-002    -1.2965817144983088E-006
   2.2656250000000044E-002    -1.3017826974859779E-006
   2.6562500000000044E-002    -1.3069842090269858E-006
   3.0468750000000044E-002    -1.3121864006142189E-006
   3.4375000000000044E-002    -1.3173893623287411E-006
   3.8281250000000044E-002    -1.3225935293924555E-006
   4.2187500000000044E-002    -1.3277991202760241E-006
   4.6093750000000044E-002    -1.3330066114843399E-006
   5.0000000000000044E-002    -1.3382162688054592E-006
   5.3906250000000044E-002    -1.3434283539270595E-006
   5.7812500000000044E-002    -1.3486429778229415E-006
   6.1718750000000044E-002    -1.3538603303794392E-006
   6.5625000000000044E-002    -1.3590802980652865E-006
   6.9531250000000044E-002    -1.3643027683195717E-006
   7.3437500000000044E-002    -1.3695274801336098E-006
   7.7343750000000044E-002    -1.3747542162900310E-006
   8.1250000000000044E-002    -1.3799825504417407E-006
   8.5156250000000044E-002    -1.3852121433482529E-006
   8.9062500000000044E-002    -1.3904428267458428E-006
   9.2968750000000044E-002    -1.3956743871214664E-006
   9.6875000000000044E-002    -1.4009066778549446E-006
  0.10078125000000004         -1.4061396238445018E-006
  0.10468750000000004         -1.4113734584208735E-006
  0.10859375000000004         -1.4166082420531492E-006
  0.11250000000000004         -1.4218443752380667E-006
  0.11640625000000004         -1.4270820422954253E-006
  0.12031250000000004         -1.4323216194145214E-006
  0.12421875000000004         -1.4375633414690052E-006
  0.12812500000000004         -1.4428074402025007E-006
  0.13203125000000004         -1.4480542159025820E-006
  0.13593750000000004         -1.4533037128057567E-006
  0.13984375000000004         -1.4585558738134437E-006
  0.14375000000000004         -1.4638105495714911E-006
  0.14765625000000004         -1.4690676519819991E-006
  0.15156250000000004         -1.4743269483949646E-006
  0.15546875000000004         -1.4795881537789394E-006
  0.15937500000000004         -1.4848509352599205E-006
  0.16328125000000004         -1.4901151481517532E-006
  0.16718750000000004         -1.4953805934528131E-006
  0.17109375000000004         -1.5006470876432490E-006
  0.17500000000000004         -1.5059146470620737E-006
  0.17890625000000004         -1.5111832389882242E-006
  0.18281250000000004         -1.5164530302407895E-006
  0.18671875000000004         -1.5217243304482813E-006
  0.19062500000000004         -1.5269972380771819E-006
  0.19453125000000004         -1.5322721609119270E-006
  0.19843750000000004         -1.5375493236489265E-006
  0.20234375000000004         -1.5428290111431202E-006
  0.20625000000000004         -1.5481113927350186E-006
  0.21015625000000004         -1.5533965637401418E-006
  0.21406250000000004         -1.5586846368898081E-006
  0.21796875000000004         -1.5639755435699912E-006
  0.22187500000000004         -1.5692691473525876E-006
  0.22578125000000004         -1.5745652411483279E-006
  0.22968750000000004         -1.5798636179170829E-006
  0.23359375000000004         -1.5851640582669760E-006
  0.23750000000000004         -1.5904664297571680E-006
  0.24140625000000004         -1.5957704248123884E-006
  0.24531250000000004         -1.6010759850659274E-006
  0.24921875000000004         -1.6063830223343915E-006
  0.25312500000000004         -1.6116915510227682E-006
  0.25703125000000004         -1.6170017270921749E-006
  0.26093750000000004         -1.6223136768426146E-006
  0.26484375000000004         -1.6276276124274066E-006
  0.26875000000000004         -1.6329436952186324E-006
  0.27265625000000004         -1.6382621939087268E-006
  0.27656250000000004         -1.6435833545762261E-006
  0.28046875000000004         -1.6489073176303977E-006
  0.28437500000000004         -1.6542340955294207E-006
  0.28828125000000004         -1.6595638559435221E-006
  0.29218750000000004         -1.6648964350495877E-006
  0.29609375000000004         -1.6702317207269546E-006
  0.30000000000000004         -1.6755695497268090E-006
  0.30390625000000004         -1.6809097884614509E-006
  0.30781250000000004         -1.6862522224474828E-006
  0.31171875000000004         -1.6915966668626213E-006
  0.31562500000000004         -1.6969429853488388E-006
  0.31953125000000004         -1.7022910834053984E-006
  0.32343750000000004         -1.7076410369340223E-006
  0.32734375000000004         -1.7129928573437245E-006
  0.33125000000000004         -1.7183466567551667E-006
  0.33515625000000004         -1.7237026321295174E-006
  0.33906250000000004         -1.7290609324871101E-006
  0.34296875000000004         -1.7344217612128877E-006
  0.34687500000000004         -1.7397852876964995E-006
  0.35078125000000004         -1.7451516179541275E-006
  0.35468750000000004         -1.7505207736083807E-006
  0.35859375000000004         -1.7558929400282227E-006
  0.36250000000000004         -1.7612678663330700E-006
  0.36640625000000004         -1.7666453646770444E-006
  0.37031250000000004         -1.7720253047089031E-006
  0.37421875000000004         -1.7774075004595012E-006
  0.37812500000000004         -1.7827916801555178E-006
  0.38203125000000004         -1.7881775781854031E-006
  0.38593750000000004         -1.7935650498057107E-006
  0.38984375000000004         -1.7989540361620825E-006
  0.39375000000000004         -1.8043444594888463E-006
  0.39765625000000004         -1.8097364139183062E-006
  0.40156250000000004         -1.8151299386929959E-006
  0.40546875000000004         -1.8205251745327420E-006
  0.40937500000000004         -1.8259222737434747E-006
  0.41328125000000004         -1.8313214480972957E-006
  0.41718750000000004         -1.8367228641859069E-006
  0.42109375000000004         -1.8421266913498187E-006
  0.42500000000000004         -1.8475329420963500E-006
  0.42890625000000004         -1.8529418410960295E-006
  0.43281250000000004         -1.8583532554401499E-006
  0.43671875000000004         -1.8637670995882763E-006
  0.44062500000000004         -1.8691833077667867E-006
  0.44453125000000004         -1.8746018691901078E-006
  0.44843750000000004         -1.8800222647022107E-006
  0.45234375000000004         -1.8854445672321025E-006
  0.45625000000000004         -1.8908684932272758E-006
  0.46015625000000004         -1.8962941529825387E-006
  0.46406250000000004         -1.9017212952471339E-006
  0.46796875000000004         -1.9071498526239735E-006
  0.47187500000000004         -1.9125799921726291E-006
  0.47578125000000004         -1.9180116285059141E-006
  0.47968750000000004         -1.9234451135056835E-006
  0.48359375000000004         -1.9288805107792052E-006
  0.48750000000000004         -1.9343181890024311E-006
  0.49140625000000004         -1.9397580286096920E-006
  0.49531250000000004         -1.9452005404288895E-006
  0.49921875000000004         -1.9506454999549572E-006
  0.50312500000000004         -1.9560930029436650E-006
  0.50703125000000004         -1.9615429476429338E-006
  0.51093750000000004         -1.9669954743788595E-006
  0.51484375000000004         -1.9724501791286253E-006
  0.51875000000000004         -1.9779068949309375E-006
  0.52265625000000004         -1.9833655341557660E-006
  0.52656250000000004         -1.9888258160485506E-006
  0.53046875000000004         -1.9942876875471139E-006
  0.53437500000000004         -1.9997507735499890E-006
  0.53828125000000004         -2.0052154102659151E-006
  0.54218750000000004         -2.0106812340597302E-006
  0.54609375000000004         -2.0161486325021248E-006
  0.55000000000000004         -2.0216177177137617E-006
  0.55390625000000004         -2.0270888394592798E-006
  0.55781250000000004         -2.0325621762369370E-006
  0.56171875000000004         -2.0380379359231658E-006
  0.56562500000000004         -2.0435163209915862E-006
  0.56953125000000004         -2.0489975123214131E-006
  0.57343750000000004         -2.0544816056684162E-006
  0.57734375000000004         -2.0599686411213246E-006
  0.58125000000000004         -2.0654585065594759E-006
  0.58515625000000004         -2.0709510539328903E-006
  0.58906250000000004         -2.0764463287331075E-006
  0.59296875000000004         -2.0819439374041732E-006
  0.59687500000000004         -2.0874437650550965E-006
  0.60078125000000004         -2.0929456375709389E-006
  0.60468750000000004         -2.0984494297395268E-006
  0.60859375000000004         -2.1039551581894947E-006
  0.61250000000000004         -2.1094628963142399E-006
  0.61640625000000004         -2.1149725767166747E-006
  0.62031250000000004         -2.1204844031138193E-006
  0.62421875000000004         -2.1259987483244629E-006
  0.62812500000000004         -2.1315154921022040E-006
  0.63203125000000004         -2.1370350785585878E-006
  0.63593750000000004         -2.1425573899063989E-006
  0.63984375000000004         -2.1480825736021197E-006
  0.64375000000000004         -2.1536106413757976E-006
  0.64765625000000004         -2.1591415844607955E-006
  0.65156250000000004         -2.1646750831005019E-006
  0.65546875000000004         -2.1702110898010139E-006
  0.65937500000000004         -2.1757495132771150E-006
  0.66328125000000004         -2.1812899355098378E-006
  0.66718750000000004         -2.1868320014774084E-006
  0.67109375000000004         -2.1923757370793229E-006
  0.67500000000000004         -2.1979212275373045E-006
  0.67890625000000004         -2.2034682102125195E-006
  0.68281250000000004         -2.2090169804692267E-006
  0.68671875000000004         -2.2145677330449479E-006
  0.69062500000000004         -2.2201206300840915E-006
  0.69453125000000004         -2.2256760752707145E-006
  0.69843750000000004         -2.2312344237248679E-006
  0.70234375000000004         -2.2367957705998188E-006
  0.70625000000000004         -2.2423605341076178E-006
  0.71015625000000004         -2.2479288645026944E-006
  0.71406250000000004         -2.2535006639286387E-006
  0.71796875000000004         -2.2590760309391683E-006
  0.72187500000000004         -2.2646546665148366E-006
  0.72578125000000004         -2.2702363102212595E-006
  0.72968750000000004         -2.2758204783149872E-006
  0.73359375000000004         -2.2814066572341442E-006
  0.73750000000000004         -2.2869945953109833E-006
  0.74140625000000004         -2.2925841842257073E-006
  0.74531250000000004         -2.2981748245482900E-006
  0.74921875000000004         -2.3037667276172676E-006
  0.75312500000000004         -2.3093598940967975E-006
  0.75703125000000004         -2.3149543920757434E-006
  0.76093750000000004         -2.3205506946884908E-006
  0.76484375000000004         -2.3261492649413226E-006
  0.76875000000000004         -2.3317505065182953E-006
  0.77265625000000004         -2.3373550458466528E-006
  0.77656250000000004         -2.3429629522784448E-006
  0.78046875000000004         -2.3485748176221824E-006
  0.78437500000000004         -2.3541905389574056E-006
  0.78828125000000004         -2.3598104229547452E-006
  0.79218750000000004         -2.3654340557037660E-006
  0.79609375000000004         -2.3710610890891746E-006
  0.80000000000000004         -2.3766913994533433E-006
  0.80390625000000004         -2.3823243029875086E-006
  0.80781250000000004         -2.3879594370992612E-006
  0.81171875000000004         -2.3935964377364493E-006
  0.81562500000000004         -2.3992349378593707E-006
  0.81953125000000004         -2.4048747537908639E-006
  0.82343750000000004         -2.4105159327843477E-006
  0.82734375000000004         -2.4161585404221017E-006
  0.83125000000000004         -2.4218029130617522E-006
  0.83515625000000004         -2.4274496094929729E-006
  0.83906250000000004         -2.4330990865602749E-006
  0.84296875000000004         -2.4387516020931785E-006
  0.84687500000000004         -2.4444078690512357E-006
  0.85078125000000004         -2.4500680489146992E-006
  0.85468750000000004         -2.4557324509590643E-006
  0.85859375000000004         -2.4614010056357241E-006
  0.86250000000000004         -2.4670736904930330E-006
  0.86640625000000004         -2.4727501427420238E-006
  0.87031250000000004         -2.4784298219218831E-006
  0.87421875000000004         -2.4841120913789875E-006
  0.87812500000000004         -2.4897967418987005E-006
  0.88203125000000004         -2.4954830630280556E-006
  0.88593750000000004         -2.5011706517471540E-006
  0.88984375000000004         -2.5068595036087018E-006
  0.89375000000000004         -2.5125496658661193E-006
  0.89765625000000004         -2.5182412633256335E-006
  0.90156250000000004         -2.5239347772241096E-006
  0.90546875000000004         -2.5296309936266150E-006
  0.90937500000000004         -2.5353301785634286E-006
  0.91328125000000004         -2.5410333640865577E-006
  0.91718750000000004         -2.5467409558207662E-006
  0.92109375000000004         -2.5524533998183068E-006
  0.92500000000000004         -2.5581710362199434E-006