  -1.2000000000000000         -1.8968724989682823E-006
  -1.1960937500000000         -1.9019767089356580E-006
  -1.1921875000000000         -1.9070827583495030E-006
  -1.1882812500000000         -1.9121904958776968E-006
  -1.1843750000000000         -1.9173002612624543E-006
  -1.1804687500000000         -1.9224121856818955E-006
  -1.1765625000000000         -1.9275266716926485E-006
  -1.1726562500000000         -1.9326436505252473E-006
  -1.1687500000000000         -1.9377634909577069E-006
  -1.1648437500000000         -1.9428862860465085E-006
  -1.1609375000000000         -1.9480120731432044E-006
  -1.1570312500000000         -1.9531408223923914E-006
  -1.1531250000000000         -1.9582724655989386E-006
  -1.1492187500000000         -1.9634068925228630E-006
  -1.1453125000000000         -1.9685439208917490E-006
  -1.1414062500000000         -1.9736831603020225E-006
  -1.1375000000000000         -1.9788246268522907E-006
  -1.1335937500000000         -1.9839679497186465E-006
  -1.1296875000000000         -1.9891129977229695E-006
  -1.1257812500000000         -1.9942596997350935E-006
  -1.1218750000000000         -1.9994082543441321E-006
  -1.1179687500000000         -2.0045585024210595E-006
  -1.1140625000000000         -2.0097107711683705E-006
  -1.1101562500000000         -2.0148650154516581E-006
  -1.1062500000000000         -2.0200218826359660E-006
  -1.1023437500000000         -2.0251813400770903E-006
  -1.0984375000000000         -2.0303438261561660E-006
  -1.0945312500000000         -2.0355092867720056E-006
  -1.0906250000000000         -2.0406780711724749E-006
  -1.0867187500000000         -2.0458502229789853E-006
  -1.0828125000000000         -2.0510257398448885E-006
  -1.0789062500000000         -2.0562043068893203E-006
  -1.0750000000000000         -2.0613860204268910E-006
  -1.0710937500000000         -2.0665704492354681E-006
  -1.0671875000000000         -2.0717571463669249E-006
  -1.0632812500000000         -2.0769459112581119E-006
  -1.0593750000000000         -2.0821365326834767E-006
  -1.0554687500000000         -2.0873288589960919E-006
  -1.0515625000000000         -2.0925230229365878E-006
  -1.0476562500000000         -2.0977187424640553E-006
  -1.0437500000000000         -2.1029162919910706E-006
  -1.0398437500000000         -2.1081158029965111E-006
  -1.0359375000000000         -2.1133176759911128E-006
  -1.0320312500000000         -2.1185220884218112E-006
  -1.0281250000000000         -2.1237295129176865E-006
  -1.0242187500000000         -2.1289401557929018E-006
  -1.0203125000000000         -2.1341541686943853E-006
  -1.0164062500000000         -2.1393719332406268E-006
  -1.0125000000000000         -2.1445932937069654E-006
  -1.0085937500000000         -2.1498182207568457E-006
  -1.0046875000000000         -2.1550466637289084E-006
  -1.0007812500000000         -2.1602782582376808E-006
 -0.99687499999999996         -2.1655128013733645E-006
 -0.99296874999999996         -2.1707496449644405E-006
 -0.98906249999999996         -2.1759888286123918E-006
 -0.98515624999999996         -2.1812296994524022E-006
 -0.98124999999999996         -2.1864723436555293E-006
 -0.97734374999999996         -2.1917167063364461E-006
 -0.97343749999999996         -2.1969627509005604E-006
 -0.96953124999999996         -2.2022107764037086E-006
 -0.96562499999999996         -2.2074611210810817E-006
 -0.96171874999999996         -2.2127139810206225E-006
 -0.95781249999999996         -2.2179697582601128E-006
 -0.95390624999999996         -2.2232288945850522E-006
 -0.94999999999999996         -2.2284917945979621E-006
 -0.94609374999999996         -2.2337583632105198E-006
 -0.94218749999999996         -2.2390288957239247E-006
 -0.93828124999999996         -2.2443031652006843E-006
 -0.93437499999999996         -2.2495811386817866E-006
 -0.93046874999999996         -2.2548624245737609E-006
 -0.92656249999999996         -2.2601466359764338E-006
 -0.92265624999999996         -2.2654331011327437E-006
 -0.91874999999999996         -2.2707218356024270E-006
 -0.91484374999999996         -2.2760124033509978E-006
 -0.91093749999999996         -2.2813044359011983E-006
 -0.90703124999999996         -2.2865980885083588E-006
 -0.90312499999999996         -2.2918935415403992E-006
 -0.89921874999999996         -2.2971908787498714E-006
 -0.89531249999999996         -2.3024904404673763E-006
 -0.89140624999999996         -2.3077928943581895E-006
 -0.88749999999999996         -2.3130984569295461E-006
 -0.88359374999999996         -2.3184078203577995E-006
 -0.87968749999999996         -2.3237212000924677E-006
 -0.87578124999999996         -2.3290387905954150E-006
 -0.87187499999999996         -2.3343606911929828E-006
 -0.86796874999999996         -2.3396867194218423E-006
 -0.86406249999999996         -2.3450168317464890E-006
 -0.86015624999999996         -2.3503504478897801E-006
 -0.85624999999999996         -2.3556871745990171E-006
 -0.85234374999999996         -2.3610265288008095E-006
 -0.84843749999999996         -2.3663680435970698E-006
 -0.84453124999999996         -2.3717114716369839E-006
 -0.84062499999999996         -2.3770563565858306E-006
 -0.83671874999999996         -2.3824025928969244E-006
 -0.83281249999999996         -2.3877505815231530E-006
 -0.82890624999999996         -2.3931003130779221E-006
 -0.82499999999999996         -2.3984523512068688E-006
 -0.82109374999999996         -2.4038071017024122E-006
 -0.81718749999999996         -2.4091652514592223E-006
 -0.81328124999999996         -2.4145270305950961E-006
 -0.80937499999999996         -2.4198931621299652E-006
 -0.80546874999999996         -2.4252636052724485E-006
 -0.80156249999999996         -2.4306387724846160E-006
 -0.79765624999999996         -2.4360184921836302E-006
 -0.79374999999999996         -2.4414023404325734E-006
 -0.78984374999999996         -2.4467902277278811E-006
 -0.78593749999999996         -2.4521813072262540E-006
 -0.78203124999999996         -2.4575753686076530E-006
 -0.77812499999999996         -2.4629715101434537E-006
 -0.77421874999999996         -2.4683694504529893E-006
 -0.77031249999999996         -2.4737689831230609E-006
 -0.76640624999999996         -2.4791699513441138E-006
 -0.76249999999999996         -2.4845724706106347E-006
 -0.75859374999999996         -2.4899767501577697E-006
 -0.75468749999999996         -2.4953833153773350E-006
 -0.75078124999999996         -2.5007927763523601E-006
 -0.74687499999999996         -2.5062055435685617E-006
 -0.74296874999999996         -2.5116225428094357E-006
 -0.73906249999999996         -2.5170440151064198E-006
 -0.73515624999999996         -2.5224701710966798E-006
 -0.73124999999999996         -2.5279012084083301E-006
 -0.72734374999999996         -2.5333372132396067E-006
 -0.72343749999999996         -2.5387777793559390E-006
 -0.71953124999999996         -2.5442223750129851E-006
 -0.71562499999999996         -2.5496706619755534E-006
 -0.71171874999999996         -2.5551217191534447E-006
 -0.70781249999999996         -2.5605753289685830E-006
 -0.70390624999999996         -2.5660307951397029E-006
 -0.69999999999999996         -2.5714878772237537E-006
 -0.69609374999999996         -2.5769464069291759E-006
 -0.69218749999999996         -2.5824064720731288E-006
 -0.68828124999999996         -2.5878682802315292E-006
 -0.68437499999999996         -2.5933323584554226E-006
 -0.68046874999999996         -2.5987994808682522E-006
 -0.67656249999999996         -2.6042701096879340E-006
 -0.67265624999999996         -2.6097447007798600E-006
 -0.66874999999999996         -2.6152239697868703E-006
 -0.66484374999999996         -2.6207083908782151E-006
 -0.66093749999999996         -2.6261981600227823E-006
 -0.65703124999999996         -2.6316931804861482E-006
 -0.65312499999999996         -2.6371930408711155E-006
 -0.64921874999999996         -2.6426974901984439E-006
 -0.64531249999999996         -2.6482057171485863E-006
 -0.64140624999999996         -2.6537173149904644E-006
 -0.63749999999999996         -2.6592313532472832E-006
 -0.63359374999999996         -2.6647475626087660E-006
 -0.62968749999999996         -2.6702654752581874E-006
 -0.62578124999999996         -2.6757848565035086E-006
 -0.62187499999999996         -2.6813055782702185E-006
 -0.61796874999999996         -2.6868282453324847E-006
 -0.61406249999999996         -2.6923531012593059E-006
 -0.61015624999999996         -2.6978806976259288E-006
 -0.60624999999999996         -2.7034116930613097E-006
 -0.60234374999999996         -2.7089467561693856E-006
 -0.59843749999999996         -2.7144866162035574E-006
 -0.59453124999999996         -2.7200317452045187E-006
 -0.59062499999999996         -2.7255821379177645E-006
 -0.58671874999999996         -2.7311379732113474E-006
 -0.58281249999999996         -2.7366990754106442E-006
 -0.57890624999999996         -2.7422650096650971E-006
 -0.57499999999999996         -2.7478352432917040E-006
 -0.57109374999999996         -2.7534091129682110E-006
 -0.56718749999999996         -2.7589859726053826E-006
 -0.56328124999999996         -2.7645653333656905E-006
 -0.55937499999999996         -2.7701464823232377E-006
 -0.55546874999999996         -2.7757294235426318E-006
 -0.55156249999999996         -2.7813137398685060E-006
 -0.54765624999999996         -2.7868998233364820E-006
 -0.54374999999999996         -2.7924881030461054E-006
 -0.53984374999999996         -2.7980791121497084E-006
 -0.53593749999999996         -2.8036734627066741E-006
 -0.53203124999999996         -2.8092718473758107E-006
 -0.52812499999999996         -2.8148749514056867E-006
 -0.52421874999999996         -2.8204834936053936E-006
 -0.52031249999999996         -2.8260974829193737E-006
 -0.51640624999999996         -2.8317173088256666E-006
 -0.51249999999999996         -2.8373426383979435E-006
 -0.50859374999999996         -2.8429730101660331E-006
 -0.50468749999999996         -2.8486081502857218E-006
 -0.50078124999999996         -2.8542471978338194E-006
 -0.49687499999999996         -2.8598895005007472E-006
 -0.49296874999999996         -2.8655343520171334E-006
 -0.48906249999999996         -2.8711812479716599E-006
 -0.48515624999999996         -2.8768297272041261E-006
 -0.48124999999999996         -2.8824798408180416E-006
 -0.47734374999999996         -2.8881316687841429E-006
 -0.47343749999999996         -2.8937854430703685E-006
 -0.46953124999999996         -2.8994416497901466E-006
 -0.46562499999999996         -2.9051011361370498E-006
 -0.46171874999999996         -2.9107647881468568E-006
 -0.45781249999999996         -2.9164330972218365E-006
 -0.45390624999999996         -2.9221067607140944E-006
 -0.44999999999999996         -2.9277862653326021E-006
 -0.44609374999999996         -2.9334715772068671E-006
 -0.44218749999999996         -2.9391628428343154E-006
 -0.43828124999999996         -2.9448596451857924E-006
 -0.43437499999999996         -2.9505614589885373E-006
 -0.43046874999999996         -2.9562677333878696E-006
 -0.42656249999999996         -2.9619775708660068E-006
 -0.42265624999999996         -2.9676902610617929E-006
 -0.41874999999999996         -2.9734053109137306E-006
 -0.41484374999999996         -2.9791222362775890E-006
 -0.41093749999999996         -2.9848406293845954E-006
 -0.40703124999999996         -2.9905607754016083E-006
 -0.40312499999999996         -2.9962828749967815E-006
 -0.39921874999999996         -3.0020073943335833E-006
 -0.39531249999999996         -3.0077351414462541E-006
 -0.39140624999999996         -3.0134667519797183E-006
 -0.38749999999999996         -3.0192031532576451E-006
 -0.38359374999999996         -3.0249448336482338E-006
 -0.37968749999999996         -3.0306925093626871E-006
 -0.37578124999999996         -3.0364463645507407E-006
 -0.37187499999999996         -3.0422065540255742E-006
 -0.36796874999999996         -3.0479726702636835E-006
 -0.36406249999999996         -3.0537442560188648E-006
 -0.36015624999999996         -3.0595205173236444E-006
 -0.35624999999999996         -3.0653008033954896E-006
 -0.35234374999999996         -3.0710844320199010E-006
 -0.34843749999999996         -3.0768704444412449E-006
 -0.34453124999999996         -3.0826586120687710E-006
 -0.34062499999999996         -3.0884484742116073E-006
 -0.33671874999999996         -3.0942399088965300E-006
 -0.33281249999999996         -3.1000335160853538E-006
 -0.32890624999999996         -3.1058295548349579E-006
 -0.32499999999999996         -3.1116288243945000E-006
 -0.32109374999999996         -3.1174321689234830E-006
 -0.31718749999999996         -3.1232402925627205E-006
 -0.31328124999999996         -3.1290541493745485E-006
 -0.30937499999999996         -3.1348742402668869E-006
 -0.30546874999999996         -3.1407007708464552E-006
 -0.30156249999999996         -3.1465339028673442E-006
 -0.29765624999999996         -3.1523732507323644E-006
 -0.29374999999999996         -3.1582185856267037E-006
 -0.28984374999999996         -3.1640691104297615E-006
 -0.28593749999999996         -3.1699239758194084E-006
 -0.28203124999999996         -3.1757822685518680E-006
 -0.27812499999999996         -3.1816434808973653E-006
 -0.27421874999999996         -3.1875066609221216E-006
 -0.27031249999999996         -3.1933716019617013E-006
 -0.26640624999999996         -3.1992383513649764E-006
 -0.26249999999999996         -3.2051070213542529E-006
 -0.25859374999999996         -3.2109780974545741E-006
 -0.25468749999999996         -3.2168521158523410E-006
 -0.25078124999999996         -3.2227299568323195E-006
 -0.24687499999999996         -3.2286127123469780E-006
 -0.24296874999999996         -3.2345008816781564E-006
 -0.23906249999999996         -3.2403954309585809E-006
 -0.23515624999999996         -3.2462965626287210E-006
 -0.23124999999999996         -3.2522044457007032E-006
 -0.22734374999999996         -3.2581191879488044E-006
 -0.22343749999999996         -3.2640401032129749E-006
 -0.21953124999999996         -3.2699666850795510E-006
 -0.21562499999999996         -3.2758980945516564E-006
 -0.21171874999999996         -3.2818334409002154E-006
 -0.20781249999999996         -3.2877720000344541E-006
 -0.20390624999999996         -3.2937128660017798E-006
 -0.19999999999999996         -3.2996558123068518E-006
 -0.19609374999999996         -3.3056006616217903E-006
 -0.19218749999999996         -3.3115477639868850E-006
 -0.18828124999999996         -3.3174971120250435E-006
 -0.18437499999999996         -3.3234496836941153E-006
 -0.18046874999999996         -3.3294060612807445E-006
 -0.17656249999999996         -3.3353671161524325E-006
 -0.17265624999999996         -3.3413335546976066E-006
 -0.16874999999999996         -3.3473060622838902E-006
 -0.16484374999999996         -3.3532848418210821E-006
 -0.16093749999999996         -3.3592702829062780E-006
 -0.15703124999999996         -3.3652622737865015E-006
 -0.15312499999999996         -3.3712605542149749E-006
 -0.14921874999999996         -3.3772644227749849E-006
 -0.14531249999999996         -3.3832732542327689E-006
 -0.14140624999999996         -3.3892861819141227E-006
 -0.13749999999999996         -3.3953025329911431E-006
 -0.13359374999999996         -3.4013216157436802E-006
 -0.12968749999999996         -3.4073432293904936E-006
 -0.12578124999999996         -3.4133669868992276E-006
 -0.12187499999999996         -3.4193932525091213E-006
 -0.11796874999999996         -3.4254222273576585E-006
 -0.11406249999999996         -3.4314546960257190E-006
 -0.11015624999999996         -3.4374914749954779E-006
 -0.10624999999999996         -3.4435332056628730E-006
 -0.10234374999999996         -3.4495808008023513E-006
  -9.8437499999999956E-002    -3.4556347226318302E-006
  -9.4531249999999956E-002    -3.4616954103520467E-006
  -9.0624999999999956E-002    -3.4677630345021745E-006
  -8.6718749999999956E-002    -3.4738374362903353E-006
  -8.2812499999999956E-002    -3.4799181573994832E-006
  -7.8906249999999956E-002    -3.4860046893205449E-006
  -7.4999999999999956E-002    -3.4920959975511179E-006
  -7.1093749999999956E-002    -3.4981914502009136E-006
  -6.7187499999999956E-002    -3.5042903446361427E-006
  -6.3281249999999956E-002    -3.5103920127221991E-006
  -5.9374999999999956E-002    -3.5164960043447035E-006
  -5.5468749999999956E-002    -3.5226023936043233E-006
  -5.1562499999999956E-002    -3.5287110580585049E-006
  -4.7656249999999956E-002    -3.5348226682935072E-006
  -4.3749999999999956E-002    -3.5409376966931417E-006
  -3.9843749999999956E-002    -3.5470569425065661E-006
  -3.5937499999999956E-002    -3.5531812813252478E-006
  -3.2031249999999956E-002    -3.5593113418732235E-006
  -2.8124999999999956E-002    -3.5654480588512552E-006
  -2.4218749999999956E-002    -3.5715916120529280E-006
  -2.0312499999999956E-002    -3.5777424087776848E-006
  -1.6406249999999956E-002    -3.5839003519408285E-006
  -1.2499999999999956E-002    -3.5900650013969905E-006
  -8.5937499999999556E-003    -3.5962356635758806E-006
  -4.6874999999999556E-003    -3.6024117938431628E-006
  -7.8124999999995559E-004    -3.6085925642146350E-006
   3.1250000000000444E-003    -3.6147773266046860E-006
   7.0312500000000444E-003    -3.6209652122437034E-006
   1.0937500000000044E-002    -3.6271560600981635E-006
   1.4843750000000044E-002    -3.6333494504279380E-006
   1.8750000000000044E-002    -3.6395457412519227E-006
   2.2656250000000044E-002    -3.6457451364245451E-006
   2.6562500000000044E-002    -3.6519481005822277E-006
   3.0468750000000044E-002    -3.6581555985415878E-006
   3.4375000000000044E-002    -3.6643682242234782E-006
   3.8281250000000044E-002    -3.6705865942483970E-006
   4.2187500000000044E-002    -3.6768113454511679E-006
   4.6093750000000044E-002    -3.6830430971692318E-006
   5.0000000000000044E-002    -3.6892817548826309E-006
   5.3906250000000044E-002    -3.6955274283620176E-006
   5.7812500000000044E-002    -3.7017796921303015E-006
   6.1718750000000044E-002    -3.7080383078670196E-006
   6.5625000000000044E-002    -3.7143022682777674E-006
   6.9531250000000044E-002    -3.7205712414667526E-006
   7.3437500000000044E-002    -3.7268443994497743E-006
   7.7343750000000044E-002    -3.7331211390847152E-006
   8.1250000000000044E-002    -3.7394012867983315E-006
   8.5156250000000044E-002    -3.7456846960731743E-006
   8.9062500000000044E-002    -3.7519713158117050E-006
   9.2968750000000044E-002    -3.7582615383998179E-006
   9.6875000000000044E-002    -3.7645558358841769E-006
  0.10078125000000004         -3.7708547235625628E-006
  0.10468750000000004         -3.7771590084315218E-006
  0.10859375000000004         -3.7834695279608835E-006
  0.11250000000000004         -3.7897866809031227E-006
  0.11640625000000004         -3.7961106195066778E-006
  0.12031250000000004         -3.8024419254235344E-006
  0.12421875000000004         -3.8087800275591044E-006
  0.12812500000000004         -3.8151249881758073E-006
  0.13203125000000004         -3.8214763436749133E-006
  0.13593750000000004         -3.8278331067119799E-006
  0.13984375000000004         -3.8341947117640488E-006
  0.14375000000000004         -3.8405605766766568E-006
  0.14765625000000004         -3.8469300977061745E-006
  0.15156250000000004         -3.8533030891758217E-006
  0.15546875000000004         -3.8596793985000100E-006
  0.15937500000000004         -3.8660589083988108E-006
  0.16328125000000004         -3.8724420402575306E-006
  0.16718750000000004         -3.8788292292770010E-006
  0.17109375000000004         -3.8852209353013115E-006
  0.17500000000000004         -3.8916181450733973E-006
  0.17890625000000004         -3.8980214366559330E-006
  0.18281250000000004         -3.9044314225776317E-006
  0.18671875000000004         -3.9108482634358342E-006
  0.19062500000000004         -3.9172725408825267E-006
  0.19453125000000004         -3.9237043852398327E-006
  0.19843750000000004         -3.9301434254466610E-006
  0.20234375000000004         -3.9365892482284910E-006
  0.20625000000000004         -3.9430409557244230E-006
  0.21015625000000004         -3.9494980079934190E-006
  0.21406250000000004         -3.9559598432671576E-006
  0.21796875000000004         -3.9624259347458318E-006
  0.22187500000000004         -3.9688956745940272E-006
  0.22578125000000004         -3.9753689237045367E-006
  0.22968750000000004         -3.9818455848464255E-006
  0.23359375000000004         -3.9883259825112157E-006
  0.23750000000000004         -3.9948101050978475E-006
  0.24140625000000004         -4.0012988667615792E-006
  0.24531250000000004         -4.0077931181922263E-006
  0.24921875000000004         -4.0142930172701843E-006
  0.25312500000000004         -4.0207995315290159E-006
  0.25703125000000004         -4.0273127801259662E-006
  0.26093750000000004         -4.0338333149402842E-006
  0.26484375000000004         -4.0403608198293500E-006
  0.26875000000000004         -4.0468953921231285E-006
  0.27265625000000004         -4.0534370390665304E-006
  0.27656250000000004         -4.0599848670557707E-006
  0.28046875000000004         -4.0665384050818804E-006
  0.28437500000000004         -4.0730971509883122E-006
  0.28828125000000004         -4.0796605448840636E-006
  0.29218750000000004         -4.0862285152191564E-006
  0.29609375000000004         -4.0928004817164463E-006
  0.30000000000000004         -4.0993762921274938E-006
  0.30390625000000004         -4.1059563822546432E-006
  0.30781250000000004         -4.1125411273498083E-006
  0.31171875000000004         -4.1191305147742335E-006
  0.31562500000000004         -4.1257255230872805E-006
  0.31953125000000004         -4.1323266403656060E-006
  0.32343750000000004         -4.1389343673909169E-006
  0.32734375000000004         -4.1455488716683169E-006
  0.33125000000000004         -4.1521706706110194E-006
  0.33515625000000004         -4.1588003226688850E-006
  0.33906250000000004         -4.1654374694858711E-006
  0.34296875000000004         -4.1720812716098245E-006
  0.34687500000000004         -4.1787317710160551E-006
  0.35078125000000004         -4.1853885213388521E-006
  0.35468750000000004         -4.1920510072804356E-006
  0.35859375000000004         -4.1987182021979498E-006
  0.36250000000000004         -4.2053900474182839E-006
  0.36640625000000004         -4.2120659291369198E-006
  0.37031250000000004         -4.2187457427126843E-006
  0.37421875000000004         -4.2254297963427412E-006
  0.37812500000000004         -4.2321180416792317E-006
  0.38203125000000004         -4.2388113599515519E-006
  0.38593750000000004         -4.2455101379136412E-006
  0.38984375000000004         -4.2522149066224220E-006
  0.39375000000000004         -4.2589266518821664E-006
  0.39765625000000004         -4.2656459539700183E-006
  0.40156250000000004         -4.2723733565816527E-006
  0.40546875000000004         -4.2791085588311148E-006
  0.40937500000000004         -4.2858516392751810E-006
  0.41328125000000004         -4.2926027194508939E-006
  0.41718750000000004         -4.2993609828701095E-006
  0.42109375000000004         -4.3061259487010805E-006
  0.42500000000000004         -4.3128971790260317E-006
  0.42890625000000004         -4.3196736889793511E-006
  0.43281250000000004         -4.3264549484427759E-006
  0.43671875000000004         -4.3332408276956930E-006
  0.44062500000000004         -4.3400308102635506E-006
  0.44453125000000004         -4.3468251906997997E-006
  0.44843750000000004         -4.3536238686203838E-006
  0.45234375000000004         -4.3604272265884229E-006
  0.45625000000000004         -4.3672356816330720E-006
  0.46015625000000004         -4.3740501203513184E-006
  0.46406250000000004         -4.3808710873774969E-006
  0.46796875000000004         -4.3876995152766558E-006
  0.47187500000000004         -4.3945355086899681E-006
  0.47578125000000004         -4.4013796563425120E-006
  0.47968750000000004         -4.4082320713233950E-006
  0.48359375000000004         -4.4150923825715245E-006
  0.48750000000000004         -4.4219602377989942E-006
  0.49140625000000004         -4.4288351737442246E-006
  0.49531250000000004         -4.4357163500426548E-006
  0.49921875000000004         -4.4426036702366826E-006
  0.50312500000000004         -4.4494961285720757E-006
  0.50703125000000004         -4.4563932430403149E-006
  0.51093750000000004         -4.4632948754728530E-006
  0.51484375000000004         -4.4702009160990380E-006
  0.51875000000000004         -4.4771117495573774E-006
  0.52265625000000004         -4.4840277626018104E-006
  0.52656250000000004         -4.4909489207663032E-006
  0.53046875000000004         -4.4978760761818052E-006
  0.53437500000000004         -4.5048102137139295E-006
  0.53828125000000004         -4.5117513742012582E-006
  0.54218750000000004         -4.5187005908572603E-006
  0.54609375000000004         -4.5256575228960588E-006
  0.55000000000000004         -4.5326227161287603E-006
  0.55390625000000004         -4.5395962887739524E-006
  0.55781250000000004         -4.5465774286006062E-006
  0.56171875000000004         -4.5535661416768604E-006
  0.56562500000000004         -4.5605615613556910E-006
  0.56953125000000004         -4.5675631669054279E-006
  0.57343750000000004         -4.5745699743991202E-006
  0.57734375000000004         -4.5815818885821893E-006
  0.58125000000000004         -4.5885983751455534E-006
  0.58515625000000004         -4.5956197255885744E-006
  0.58906250000000004         -4.6026454089206242E-006
  0.59296875000000004         -4.6096762340542771E-006
  0.59687500000000004         -4.6167125910619281E-006
  0.60078125000000004         -4.6237548772608830E-006
  0.60468750000000004         -4.6308035967513044E-006
  0.60859375000000004         -4.6378597688648400E-006
  0.61250000000000004         -4.6449243261665357E-006
  0.61640625000000004         -4.6519969656550051E-006
  0.62031250000000004         -4.6590782969439471E-006
  0.62421875000000004         -4.6661679677454574E-006
  0.62812500000000004         -4.6732660584936331E-006
  0.63203125000000004         -4.6803717412645978E-006
  0.63593750000000004         -4.6874846050973363E-006
  0.63984375000000004         -4.6946036986536117E-006
  0.64375000000000004         -4.7017285314769715E-006
  0.64765625000000004         -4.7088585683196749E-006
  0.65156250000000004         -4.7159936700745122E-006
  0.65546875000000004         -4.7231332376911517E-006
  0.65937500000000004         -4.7302775732323209E-006
  0.66328125000000004         -4.7374270583224801E-006
  0.66718750000000004         -4.7445820452495336E-006
  0.67109375000000004         -4.7517434091084422E-006
  0.67500000000000004         -4.7589116328463817E-006
  0.67890625000000004         -4.7660872801089907E-006
  0.68281250000000004         -4.7732712728979503E-006
  0.68671875000000004         -4.7804638235096538E-006
  0.69062500000000004         -4.7876654587439090E-006
  0.69453125000000004         -4.7948758556493657E-006
  0.69843750000000004         -4.8020951427698662E-006
  0.70234375000000004         -4.8093224888630801E-006
  0.70625000000000004         -4.8165574485019564E-006
  0.71015625000000004         -4.8237995596279395E-006
  0.71406250000000004         -4.8310478709027908E-006
  0.71796875000000004         -4.8383018261901483E-006
  0.72187500000000004         -4.8455612769962094E-006
  0.72578125000000004         -4.8528256526685375E-006
  0.72968750000000004         -4.8600948685159217E-006
  0.73359375000000004         -4.8673692508081645E-006
  0.73750000000000004         -4.8746491381894610E-006
  0.74140625000000004         -4.8819354738144773E-006
  0.74531250000000004         -4.8892286810186194E-006
  0.74921875000000004         -4.8965297111401250E-006
  0.75312500000000004         -4.9038386782067602E-006
  0.75703125000000004         -4.9111565855929629E-006
  0.76093750000000004         -4.9184830768200097E-006
  0.76484375000000004         -4.9258187769563331E-006
  0.76875000000000004         -4.9331633346526895E-006
  0.77265625000000004         -4.9405168052637333E-006
  0.77656250000000004         -4.9478783659950696E-006
  0.78046875000000004         -4.9552475454015474E-006
  0.78437500000000004         -4.9626233576788948E-006
  0.78828125000000004         -4.9700057610498706E-006
  0.79218750000000004         -4.9773937603236066E-006
  0.79609375000000004         -4.9847872093860969E-006
  0.80000000000000004         -4.9921860026575086E-006
  0.80390625000000004         -4.9995904570210513E-006
  0.80781250000000004         -5.0070004962334488E-006
  0.81171875000000004         -5.0144170078303457E-006
  0.81562500000000004         -5.0218404079022380E-006
  0.81953125000000004         -5.0292716235802857E-006
  0.82343750000000004         -5.0367107259782869E-006
  0.82734375000000004         -5.0441586933912393E-006
  0.83125000000000004         -5.0516156888290176E-006
  0.83515625000000004         -5.0590818408354639E-006
  0.83906250000000004         -5.0665567708402097E-006
  0.84296875000000004         -5.0740405729210613E-006
  0.84687500000000004         -5.0815329032380501E-006
  0.85078125000000004         -5.0890328648689335E-006
  0.85468750000000004         -5.0965399425159317E-006
  0.85859375000000004         -5.1040536260107430E-006
  0.86250000000000004         -5.1115734263380511E-006
  0.86640625000000004         -5.1190987256743350E-006
  0.87031250000000004         -5.1266298303394359E-006
  0.87421875000000004         -5.1341666462555484E-006
  0.87812500000000004         -5.1417095780111411E-006
  0.88203125000000004         -5.1492589349801487E-006
  0.88593750000000004         -5.1568151780443567E-006
  0.88984375000000004         -5.1643792292054444E-006
  0.89375000000000004         -5.1719516246498145E-006
  0.89765625000000004         -5.1795328806139074E-006
  0.90156250000000004         -5.1871235583635651E-006
  0.90546875000000004         -5.1947237813131508E-006
  0.90937500000000004         -5.2023337021472844E-006
  0.91328125000000004         -5.2099524835554975E-006
  0.91718750000000004         -5.2175802050332265E-006
  0.92109375000000004         -5.2252160074427209E-006
  0.92500000000000004         -5.2328589887322619E-006