  -1.2000000000000000         -1.5879574992055688E-012
  -1.1960937500000000         -1.2955330039280751E-012
  -1.1921875000000000         -6.1433744171835548E-013
  -1.1882812500000000          3.6547383014639934E-013
  -1.1843750000000000          1.5038545052389323E-012
  -1.1804687500000000          2.6255002853552635E-012
  -1.1765625000000000          3.5396669319071898E-012
  -1.1726562500000000          4.0625632866703688E-012
  -1.1687500000000000          4.0418732243681651E-012
  -1.1648437500000000          3.3752465531034619E-012
  -1.1609375000000000          2.0273597971255840E-012
  -1.1570312500000000          3.8558100763512043E-014
  -1.1531250000000000         -2.4730700025667645E-012
  -1.1492187500000000         -5.3203211899225333E-012
  -1.1453125000000000         -8.2625788564534885E-012
  -1.1414062500000000         -1.1027763951567454E-011
  -1.1375000000000000         -1.3339614505616330E-011
  -1.1335937500000000         -1.4947331662546772E-011
  -1.1296875000000000         -1.5653930320398461E-011
  -1.1257812500000000         -1.5339353228446173E-011
  -1.1218750000000000         -1.3979333153955553E-011
  -1.1179687500000000         -1.1650381423805669E-011
  -1.1140625000000000         -8.5291458046370031E-012
  -1.1101562500000000         -4.8766445083857287E-012
  -1.1062500000000000         -1.0164503532889238E-012
  -1.1023437500000000          2.6984949875974508E-012
  -1.0984375000000000          5.9229508333269659E-012
  -1.0945312500000000          8.3539955798400850E-012
  -1.0906250000000000          9.7670518165688589E-012
  -1.0867187500000000          1.0041821757008545E-011
  -1.0828125000000000          9.1786866008848542E-012
  -1.0789062500000000          7.3018525524184627E-012
  -1.0750000000000000          4.6504837098934383E-012
  -1.0710937500000000          1.5549127859177585E-012
  -1.0671875000000000         -1.5966344936142533E-012
  -1.0632812500000000         -4.4009075256263343E-012
  -1.0593750000000000         -6.4828964472351494E-012
  -1.0554687500000000         -7.5385664649179279E-012
  -1.0515625000000000         -7.3715109046421869E-012
  -1.0476562500000000         -5.9177459658658961E-012
  -1.0437500000000000         -3.2562139868944321E-012
  -1.0398437500000000          3.9610663444836077E-013
  -1.0359375000000000          4.7048898965252244E-012
  -1.0320312500000000          9.2532832642243503E-012
  -1.0281250000000000          1.3584831624959707E-011
  -1.0242187500000000          1.7254271597769988E-011
  -1.0203125000000000          1.9875642031598356E-011
  -1.0164062500000000          2.1166520127551228E-011
  -1.0125000000000000          2.0979262796741050E-011
  -1.0085937500000000          1.9317694093620823E-011
  -1.0046875000000000          1.6339325910892305E-011
  -1.0007812500000000          1.2335723829249836E-011
 -0.99687499999999996          7.7018114393132953E-012
 -0.99296874999999996          2.8919656925506446E-012
 -0.98906249999999996         -1.6311069801304890E-012
 -0.98515624999999996         -5.4469267207632902E-012
 -0.98124999999999996         -8.2247850502666120E-012
 -0.97734374999999996         -9.7578877580357745E-012
 -0.97343749999999996         -9.9839137031550750E-012
 -0.96953124999999996         -8.9882758062329393E-012
 -0.96562499999999996         -6.9892898217954760E-012
 -0.96171874999999996         -4.3088530147898378E-012
 -0.95781249999999996         -1.3296290056419228E-012
 -0.95390624999999996          1.5536075382052006E-012
 -0.94999999999999996          3.9827417488760318E-012
 -0.94609374999999996          5.6813946192259931E-012
 -0.94218749999999996          6.4869391461181583E-012
 -0.93828124999999996          6.3693951158788817E-012
 -0.93437499999999996          5.4325005585944438E-012
 -0.93046874999999996          3.8958580339636054E-012
 -0.92656249999999996          2.0630595739347724E-012
 -0.92265624999999996          2.7962478227547425E-013
 -0.91874999999999996         -1.1151464834037060E-012
 -0.91484374999999996         -1.8378690986167072E-012
 -0.91093749999999996         -1.7005783565359982E-012
 -0.90703124999999996         -6.3942072996271101E-013
 -0.90312499999999996          1.2724955051535997E-012
 -0.89921874999999996          3.8306470346117748E-012
 -0.89531249999999996          6.7219435294353913E-012
 -0.89140624999999996          9.5617931108066736E-012
 -0.88749999999999996          1.1942321312855350E-011
 -0.88359374999999996          1.3483351474075249E-011
 -0.87968749999999996          1.3883867458183472E-011
 -0.87578124999999996          1.2962581548732965E-011
 -0.87187499999999996          1.0685922982939041E-011
 -0.86796874999999996          7.1777171336987583E-012
 -0.86406249999999996          2.7097145207397625E-012
 -0.86015624999999996         -2.3256849404463283E-012
 -0.85624999999999996         -7.4584133686251907E-012
 -0.85234374999999996         -1.2192782871781204E-011
 -0.84843749999999996         -1.6065165158953485E-011
 -0.84453124999999996         -1.8696392076756382E-011
 -0.84062499999999996         -1.9838043655342391E-011
 -0.83671874999999996         -1.9401210333819163E-011
 -0.83281249999999996         -1.7466988301750180E-011
 -0.82890624999999996         -1.4277975803793601E-011
 -0.82499999999999996         -1.0210906585229762E-011
 -0.82109374999999996         -5.7327275351846865E-012
 -0.81718749999999996         -1.3486200864822365E-012
 -0.81328124999999996          2.4578167419515281E-012
 -0.80937499999999996          5.2770040353750988E-012
 -0.80546874999999996          6.8212799819658707E-012
 -0.80156249999999996          6.9550075957536939E-012
 -0.79765624999999996          5.7068407948329412E-012
 -0.79374999999999996          3.2658295305939884E-012
 -0.78984374999999996         -4.3453596203327361E-014
 -0.78593749999999996         -3.8020027993615686E-012
 -0.78203124999999996         -7.5455702646985030E-012
 -0.77812499999999996         -1.0819569865181168E-011
 -0.77421874999999996         -1.3230689012248867E-011
 -0.77031249999999996         -1.4492184363060997E-011
 -0.76640624999999996         -1.4452529386818556E-011
 -0.76249999999999996         -1.3108709491120354E-011
 -0.75859374999999996         -1.0604841034093699E-011
 -0.75468749999999996         -7.2087055645947078E-012
 -0.75078124999999996         -3.2773081967458101E-012
 -0.74687499999999996          7.8536044917642301E-013
 -0.74296874999999996          4.5773831920128856E-012
 -0.73906249999999996          7.7462397647279134E-012
 -0.73515624999999996          1.0023375378618573E-011
 -0.73124999999999996          1.1252574202322679E-011
 -0.72734374999999996          1.1402883621579554E-011
 -0.72343749999999996          1.0565100233509273E-011
 -0.71953124999999996          8.9330543736240528E-012
 -0.71562499999999996          6.7729332185857884E-012
 -0.71171874999999996          4.3885180890768277E-012
 -0.70781249999999996          2.0800116069612421E-012
 -0.70390624999999996          1.0546239661326717E-013
 -0.69999999999999996         -1.3498598815016400E-012
 -0.69609374999999996         -2.1932004904324299E-012
 -0.69218749999999996         -2.4296751302327722E-012
 -0.68828124999999996         -2.1580721132723257E-012
 -0.68437499999999996         -1.5520317769556038E-012
 -0.68046874999999996         -8.3091406186569087E-013
 -0.67656249999999996         -2.2961075802584984E-013
 -0.67265624999999996          3.9091305566280430E-014
 -0.66874999999999996         -1.8178490539900388E-013
 -0.66484374999999996         -9.7362937629704970E-013
 -0.66093749999999996         -2.3263279976975895E-012
 -0.65703124999999996         -4.1362698515283527E-012
 -0.65312499999999996         -6.2163249869283115E-012
 -0.64921874999999996         -8.3168933960281373E-012
 -0.64531249999999996         -1.0154169758914312E-011
 -0.64140624999999996         -1.1447759369044556E-011
 -0.63749999999999996         -1.1951366349539925E-011
 -0.63359374999999996         -1.1486207488304159E-011
 -0.62968749999999996         -9.9648055881009945E-012
 -0.62578124999999996         -7.4041037110359017E-012
 -0.62187499999999996         -3.9283394352382260E-012
 -0.61796874999999996          2.3766625528270234E-013
 -0.61406249999999996          4.7915554545669627E-012
 -0.61015624999999996          9.3790948867428476E-012
 -0.60624999999999996          1.3631721673216192E-011
 -0.60234374999999996          1.7199491678203826E-011
 -0.59843749999999996          1.9787274430526216E-011
 -0.59453124999999996          2.1180380336815620E-011
 -0.59062499999999996          2.1266154837276356E-011
 -0.58671874999999996          2.0043310830532381E-011
 -0.58281249999999996          1.7619758842080897E-011
 -0.57890624999999996          1.4201410301500594E-011
 -0.57499999999999996          1.0068090088705307E-011
 -0.57109374999999996          5.5490640869673467E-012
 -0.56718749999999996          9.9159233401262022E-013
 -0.56328124999999996         -3.2717434517078843E-012
 -0.55937499999999996         -6.9545274644213402E-012
 -0.55546874999999996         -9.8378455470400541E-012
 -0.55156249999999996         -1.1788485365087831E-011
 -0.54765624999999996         -1.2764043907857765E-011
 -0.54374999999999996         -1.2810970551833188E-011
 -0.53984374999999996         -1.2055331333183269E-011
 -0.53593749999999996         -1.0686886980117443E-011
 -0.53203124999999996         -8.9340560976621248E-012
 -0.52812499999999996         -7.0396408611898798E-012
 -0.52421874999999996         -5.2333602740188777E-012
 -0.52031249999999996         -3.7112257479842102E-012
 -0.51640624999999996         -2.6168662025171673E-012
 -0.51249999999999996         -2.0291319705409450E-012
 -0.50859374999999996         -1.9602618882274503E-012
 -0.50468749999999996         -2.3608851914273309E-012
 -0.50078124999999996         -3.1244318063193591E-012
 -0.49687499999999996         -4.1101198280904515E-012
 -0.49296874999999996         -5.1561616907197742E-012
 -0.48906249999999996         -6.1053773844072578E-012
 -0.48515624999999996         -6.8230356140641754E-012
 -0.48124999999999996         -7.2157128237472751E-012
 -0.47734374999999996         -7.2388856073391393E-012
 -0.47343749999999996         -6.9069474887602900E-012
 -0.46953124999999996         -6.2880757624377518E-012
 -0.46562499999999996         -5.4935561621591564E-012
 -0.46171874999999996         -4.6663516073669440E-012
 -0.45781249999999996         -3.9591861935667809E-012
 -0.45390624999999996         -3.5145004046832553E-012
 -0.44999999999999996         -3.4455617745456714E-012
 -0.44609374999999996         -3.8189633726259234E-012
 -0.44218749999999996         -4.6450081427458396E-012
 -0.43828124999999996         -5.8669384244109116E-012
 -0.43437499999999996         -7.3713319083472211E-012
 -0.43046874999999996         -8.9980744939761828E-012
 -0.42656249999999996         -1.0553648939507130E-011
 -0.42265624999999996         -1.1841244418271469E-011
 -0.41874999999999996         -1.2685311069749596E-011
 -0.41484374999999996         -1.2953749341881822E-011
 -0.41093749999999996         -1.2579710955766345E-011
 -0.40703124999999996         -1.1577757730023931E-011
 -0.40312499999999996         -1.0049701217242015E-011
 -0.39921874999999996         -8.1781105686336384E-012
 -0.39531249999999996         -6.2138942217714546E-012
 -0.39140624999999996         -4.4523654691881007E-012
 -0.38749999999999996         -3.2040320634169750E-012
 -0.38359374999999996         -2.7529266208139642E-012
 -0.37968749999999996         -3.3277513363387073E-012
 -0.37578124999999996         -5.0705761516468711E-012
 -0.37187499999999996         -8.0094827704085687E-012
 -0.36796874999999996         -1.2052831006716757E-011
 -0.36406249999999996         -1.6983556280640523E-011
 -0.36015624999999996         -2.2480216248337086E-011
 -0.35624999999999996         -2.8135634298346320E-011
 -0.35234374999999996         -3.3501331979227854E-011
 -0.34843749999999996         -3.8128894503416521E-011
 -0.34453124999999996         -4.1613826612626283E-011
 -0.34062499999999996         -4.3637211655995097E-011
 -0.33671874999999996         -4.3999466671640180E-011
 -0.33281249999999996         -4.2650420744130347E-011
 -0.32890624999999996         -3.9689222421784581E-011
 -0.32499999999999996         -3.5360457929154004E-011
 -0.32109374999999996         -3.0029164910525413E-011
 -0.31718749999999996         -2.4147215529970189E-011
 -0.31328124999999996         -1.8206573383126989E-011
 -0.30937499999999996         -1.2694629593860372E-011
 -0.30546874999999996         -8.0423627027120918E-012
 -0.30156249999999996         -4.5850399112532623E-012
 -0.29765624999999996         -2.5291845197395418E-012
 -0.29374999999999996         -1.9398011461592826E-012
 -0.28984374999999996         -2.7405294337989087E-012
 -0.28593749999999996         -4.7281576161061490E-012
 -0.28203124999999996         -7.6024765579685036E-012
 -0.27812499999999996         -1.1004356940053208E-011
 -0.27421874999999996         -1.4561875982937280E-011
 -0.27031249999999996         -1.7931354161861005E-011
 -0.26640624999999996         -2.0839394512718883E-011
 -0.26249999999999996         -2.3107418031758999E-011
 -0.25859374999999996         -2.4666003048272739E-011
 -0.25468749999999996         -2.5560057605142408E-011
 -0.25078124999999996         -2.5931546286609612E-011
 -0.24687499999999996         -2.5986360490167086E-011
 -0.24296874999999996         -2.5967099718623317E-011
 -0.23906249999999996         -2.6110429392744931E-011
 -0.23515624999999996         -2.6610258604276562E-011
 -0.23124999999999996         -2.7588127797555672E-011
 -0.22734374999999996         -2.9073823385580717E-011
 -0.22343749999999996         -3.0996681319669195E-011
 -0.21953124999999996         -3.3199169445223713E-011
 -0.21562499999999996         -3.5453091709051743E-011
 -0.21171874999999996         -3.7493035595006484E-011
 -0.20781249999999996         -3.9055792318225655E-011
 -0.20390624999999996         -3.9919991849531580E-011
 -0.19999999999999996         -3.9937995564534495E-011
 -0.19609374999999996         -3.9069900315499721E-011
 -0.19218749999999996         -3.7395787427386683E-011
 -0.18828124999999996         -3.5112488540663715E-011
 -0.18437499999999996         -3.2518066869247803E-011
 -0.18046874999999996         -2.9979660101169527E-011
 -0.17656249999999996         -2.7894200853756415E-011
 -0.17265624999999996         -2.6640626893546584E-011
 -0.16874999999999996         -2.6532453979219212E-011
 -0.16484374999999996         -2.7774743819158411E-011
 -0.16093749999999996         -3.0439377339954516E-011
 -0.15703124999999996         -3.4445169404824148E-011
 -0.15312499999999996         -3.9564704426706300E-011
 -0.14921874999999996         -4.5445526653314354E-011
 -0.14531249999999996         -5.1638953356531102E-011
 -0.14140624999999996         -5.7653589131168304E-011
 -0.13749999999999996         -6.3004777407160864E-011
 -0.13359374999999996         -6.7273055199393829E-011
 -0.12968749999999996         -7.0148612880943305E-011
 -0.12578124999999996         -7.1465023147955563E-011
 -0.12187499999999996         -7.1221926615766781E-011
 -0.11796874999999996         -6.9582639654777263E-011
 -0.11406249999999996         -6.6863157080997767E-011
 -0.11015624999999996         -6.3492690059731869E-011
 -0.10624999999999996         -5.9972210191676951E-011
 -0.10234374999999996         -5.6824208008641675E-011
  -9.8437499999999956E-002    -5.4536280938345646E-011
  -9.4531249999999956E-002    -5.3511007827870763E-011
  -9.0624999999999956E-002    -5.4026115350799407E-011
  -8.6718749999999956E-002    -5.6207345998174656E-011
  -8.2812499999999956E-002    -6.0030774273047453E-011
  -7.8906249999999956E-002    -6.5321488712316148E-011
  -7.4999999999999956E-002    -7.1782319911775415E-011
  -7.1093749999999956E-002    -7.9030470953722558E-011
  -6.7187499999999956E-002    -8.6640705915149446E-011
  -6.3281249999999956E-002    -9.4196450148121876E-011
  -5.9374999999999956E-002    -1.0132726724901032E-010
  -5.5468749999999956E-002    -1.0773915071602203E-010
  -5.1562499999999956E-002    -1.1324734073626445E-010
  -4.7656249999999956E-002    -1.1778165672853998E-010
  -4.3749999999999956E-002    -1.2138610357938278E-010
  -3.9843749999999956E-002    -1.2419519776347761E-010
  -3.5937499999999956E-002    -1.2640879286010044E-010
  -3.2031249999999956E-002    -1.2825966777150073E-010
  -2.8124999999999956E-002    -1.2997645282904652E-010
  -2.4218749999999956E-002    -1.3175282234967209E-010
  -2.0312499999999956E-002    -1.3372435183431951E-010
  -1.6406249999999956E-002    -1.3595554186439712E-010
  -1.2499999999999956E-002    -1.3844378448316380E-010
  -8.5937499999999556E-003    -1.4111953501912671E-010
  -4.6874999999999556E-003    -1.4386706838299572E-010
  -7.8124999999995559E-004    -1.4655380378406228E-010
   3.1250000000000444E-003    -1.4905613595121241E-010
   7.0312500000000444E-003    -1.5129043879209596E-010
   1.0937500000000044E-002    -1.5322937887057754E-010
   1.4843750000000044E-002    -1.5492110956781573E-010
   1.8750000000000044E-002    -1.5649453761625599E-010
   2.2656250000000044E-002    -1.5814840643745430E-010
   2.6562500000000044E-002    -1.6014291935043291E-010
   3.0468750000000044E-002    -1.6276816858478477E-010
   3.4375000000000044E-002    -1.6631721292360634E-010
   3.8281250000000044E-002    -1.7104311672791245E-010
   4.2187500000000044E-002    -1.7713341215701035E-010
   4.6093750000000044E-002    -1.8468780607968350E-010
   5.0000000000000044E-002    -1.9369456935472640E-010
   5.3906250000000044E-002    -2.0402749849954875E-010
   5.7812500000000044E-002    -2.1545070525278774E-010
   6.1718750000000044E-002    -2.2763724272679196E-010
   6.5625000000000044E-002    -2.4019957056939919E-010
   6.9531250000000044E-002    -2.5271915789559443E-010
   7.3437500000000044E-002    -2.6478557901639750E-010
   7.7343750000000044E-002    -2.7603758387031882E-010
   8.1250000000000044E-002    -2.8618699275971756E-010
   8.5156250000000044E-002    -2.9504504096798662E-010
   8.9062500000000044E-002    -3.0254080888214358E-010
   9.2968750000000044E-002    -3.0872288655602214E-010
   9.6875000000000044E-002    -3.1375204237216661E-010
  0.10078125000000004         -3.1788836454161929E-010
  0.10468750000000004         -3.2146248670258115E-010
  0.10859375000000004         -3.2483704596880200E-010
  0.11250000000000004         -3.2838946098838365E-010
  0.11640625000000004         -3.3246476701587507E-010
  0.12031250000000004         -3.3735184058466181E-010
  0.12421875000000004         -3.4325951848474806E-010
  0.12812500000000004         -3.5030577110542735E-010
  0.13203125000000004         -3.5851285876446132E-010
  0.13593750000000004         -3.6780578088613332E-010
  0.13984375000000004         -3.7802647929628351E-010
  0.14375000000000004         -3.8896051748655754E-010
  0.14765625000000004         -4.0035693078416032E-010
  0.15156250000000004         -4.1196467474826292E-010
  0.15546875000000004         -4.2354433839070561E-010
  0.15937500000000004         -4.3490140448865604E-010
  0.16328125000000004         -4.4589857732524166E-010
  0.16718750000000004         -4.5647648403749307E-010
  0.17109375000000004         -4.6665213334969499E-010
  0.17500000000000004         -4.7651918355790440E-010
  0.17890625000000004         -4.8622402709309042E-010
  0.18281250000000004         -4.9596092872201073E-010
  0.18671875000000004         -5.0594245477739793E-010
  0.19062500000000004         -5.1637317307795912E-010
  0.19453125000000004         -5.2742896057968055E-010
  0.19843750000000004         -5.3923696301645720E-010
  0.20234375000000004         -5.5185335704471113E-010
  0.20625000000000004         -5.6526142745333209E-010
  0.21015625000000004         -5.7935994619436083E-010
  0.21406250000000004         -5.9398298823779679E-010
  0.21796875000000004         -6.0890140109307748E-010
  0.22187500000000004         -6.2385133146539802E-010
  0.22578125000000004         -6.3856530258275230E-010
  0.22968750000000004         -6.5279260982182232E-010
  0.23359375000000004         -6.6633096135573729E-010
  0.23750000000000004         -6.7904613928109052E-010
  0.24140625000000004         -6.9088986978366541E-010
  0.24531250000000004         -7.0189719397627253E-010
  0.24921875000000004         -7.1219370000701526E-010
  0.25312500000000004         -7.2198285044884009E-010
  0.25703125000000004         -7.3152926405280415E-010
  0.26093750000000004         -7.4112640148756635E-010
  0.26484375000000004         -7.5107298300071214E-010
  0.26875000000000004         -7.6163889041897617E-010
  0.27265625000000004         -7.7303883543644079E-010
  0.27656250000000004         -7.8541748382289131E-010
  0.28046875000000004         -7.9882984653480349E-010
  0.28437500000000004         -8.1325033353829555E-010
  0.28828125000000004         -8.2857596742755441E-010
  0.29218750000000004         -8.4464929381728831E-010
  0.29609375000000004         -8.6127567720090863E-010
  0.30000000000000004         -8.7825871440836360E-010
  0.30390625000000004         -8.9542619468969869E-010
  0.30781250000000004         -9.1265797386551332E-010
  0.31171875000000004         -9.2990141599912940E-010
  0.31562500000000004         -9.4718204843387792E-010
  0.31953125000000004         -9.6459645553867551E-010
  0.32343750000000004         -9.8230570492933550E-010
  0.32734375000000004         -1.0005114979958245E-009
  0.33125000000000004         -1.0194205809479941E-009
  0.33515625000000004         -1.0392184645298778E-009
  0.33906250000000004         -1.0600366738579570E-009
  0.34296875000000004         -1.0819338276183767E-009
  0.34687500000000004         -1.1048727637747844E-009
  0.35078125000000004         -1.1287088776544536E-009
  0.35468750000000004         -1.1532090000111778E-009
  0.35859375000000004         -1.1780668094034472E-009
  0.36250000000000004         -1.2029338864877984E-009
  0.36640625000000004         -1.2274606481050825E-009
  0.37031250000000004         -1.2513394063236971E-009
  0.37421875000000004         -1.2743448685907255E-009
  0.37812500000000004         -1.2963686742601963E-009
  0.38203125000000004         -1.3174413963344606E-009
  0.38593750000000004         -1.3377390367126960E-009
  0.38984375000000004         -1.3575720708466731E-009
  0.39375000000000004         -1.3773728097006368E-009
  0.39765625000000004         -1.3976428230969806E-009
  0.40156250000000004         -1.4189079252629514E-009
  0.40546875000000004         -1.4416661367279310E-009
  0.40937500000000004         -1.4663268636681470E-009
  0.41328125000000004         -1.4931748953005980E-009
  0.41718750000000004         -1.5223271285424619E-009
  0.42109375000000004         -1.5537361562974944E-009
  0.42500000000000004         -1.5871801703426974E-009
  0.42890625000000004         -1.6222817903534971E-009
  0.43281250000000004         -1.6585558664797035E-009
  0.43671875000000004         -1.6954637421828953E-009
  0.44062500000000004         -1.7324555476375422E-009
  0.44453125000000004         -1.7690360638431375E-009
  0.44843750000000004         -1.8048243477959844E-009
  0.45234375000000004         -1.8395741591011880E-009
  0.45625000000000004         -1.8732025141101016E-009
  0.46015625000000004         -1.9057912713427565E-009
  0.46406250000000004         -1.9375783738653280E-009
  0.46796875000000004         -1.9689158576701921E-009
  0.47187500000000004         -2.0002288165760301E-009
  0.47578125000000004         -2.0319593087637071E-009
  0.47968750000000004         -2.0645255050484581E-009
  0.48359375000000004         -2.0982649782323179E-009
  0.48750000000000004         -2.1334021859792505E-009
  0.49140625000000004         -2.1700217479944279E-009
  0.49531250000000004         -2.2080642652439035E-009
  0.49921875000000004         -2.2473469254176467E-009
  0.50312500000000004         -2.2875856596110668E-009
  0.50703125000000004         -2.3284401668319620E-009
  0.51093750000000004         -2.3695565779347288E-009
  0.51484375000000004         -2.4106128175799123E-009
  0.51875000000000004         -2.4513662491464878E-009
  0.52265625000000004         -2.4916821244290684E-009
  0.52656250000000004         -2.5315537038496286E-009
  0.53046875000000004         -2.5710915958887591E-009
  0.53437500000000004         -2.6104934506824211E-009
  0.53828125000000004         -2.6500312094588539E-009
  0.54218750000000004         -2.6900002624247579E-009
  0.54609375000000004         -2.7306756873541486E-009
  0.55000000000000004         -2.7722708690707518E-009
  0.55390625000000004         -2.8149000940012265E-009
  0.55781250000000004         -2.8585572757550836E-009
  0.56171875000000004         -2.9031161696675440E-009
  0.56562500000000004         -2.9483416308395844E-009
  0.56953125000000004         -2.9939158829345289E-009
  0.57343750000000004         -3.0394676931777519E-009
  0.57734375000000004         -3.0846388816114196E-009
  0.58125000000000004         -3.1291182125724305E-009
  0.58515625000000004         -3.1726871147644167E-009
  0.58906250000000004         -3.2152556610284291E-009
  0.59296875000000004         -3.2568824379717144E-009
  0.59687500000000004         -3.2977758688572866E-009
  0.60078125000000004         -3.3382646304352651E-009
  0.60468750000000004         -3.3787701853483942E-009
  0.60859375000000004         -3.4197631751738299E-009
  0.61250000000000004         -3.4617086037208400E-009
  0.61640625000000004         -3.5050170030135921E-009
  0.62031250000000004         -3.5499920541603333E-009
  0.62421875000000004         -3.5967971987307225E-009
  0.62812500000000004         -3.6454297440775037E-009
  0.63203125000000004         -3.6957233583132387E-009
  0.63593750000000004         -3.7473663514873077E-009
  0.63984375000000004         -3.7999187417763009E-009
  0.64375000000000004         -3.8528711534492763E-009
  0.64765625000000004         -3.9056849344899698E-009
  0.65156250000000004         -3.9578577661317573E-009
  0.65546875000000004         -4.0089727197004859E-009
  0.65937500000000004         -4.0587330818851345E-009
  0.66328125000000004         -4.1069969544774557E-009
  0.66718750000000004         -4.1537726637908898E-009
  0.67109375000000004         -4.1992261813782878E-009
  0.67500000000000004         -4.2436472050544754E-009
  0.67890625000000004         -4.2874202431387764E-009
  0.68281250000000004         -4.3309911127173962E-009
  0.68671875000000004         -4.3748097398518530E-009
  0.69062500000000004         -4.4192876145950101E-009
  0.69453125000000004         -4.4647648191733461E-009
  0.69843750000000004         -4.5114874312757450E-009
  0.70234375000000004         -4.5595953207576301E-009
  0.70625000000000004         -4.6091228437529513E-009
  0.71015625000000004         -4.6599971221671210E-009
  0.71406250000000004         -4.7120720005241985E-009
  0.71796875000000004         -4.7651465412275812E-009
  0.72187500000000004         -4.8189963822286603E-009
  0.72578125000000004         -4.8733979348954160E-009
  0.72968750000000004         -4.9281464720599241E-009
  0.73359375000000004         -4.9830900053584177E-009
  0.73750000000000004         -5.0381175990655502E-009
  0.74140625000000004         -5.0931641269093358E-009
  0.74531250000000004         -5.1482037304615336E-009
  0.74921875000000004         -5.2032315658930534E-009
  0.75312500000000004         -5.2582501603529406E-009
  0.75703125000000004         -5.3132423623669413E-009
  0.76093750000000004         -5.3681865887174405E-009
  0.76484375000000004         -5.4230289505956595E-009
  0.76875000000000004         -5.4776863152714345E-009
  0.77265625000000004         -5.5320587882572316E-009
  0.77656250000000004         -5.5860460240109332E-009
  0.78046875000000004         -5.6395515819590963E-009
  0.78437500000000004         -5.6925102417409261E-009
  0.78828125000000004         -5.7449038640623511E-009
  0.79218750000000004         -5.7967717438093329E-009
  0.79609375000000004         -5.8482086857287695E-009
  0.80000000000000004         -5.8993821617895362E-009
  0.80390625000000004         -5.9505071939322024E-009
  0.80781250000000004         -6.0018440810443172E-009
  0.81171875000000004         -6.0536795496806251E-009
  0.81562500000000004         -6.1063106291547706E-009
  0.81953125000000004         -6.1600040648875345E-009
  0.82343750000000004         -6.2149938784425932E-009
  0.82734375000000004         -6.2714512345882383E-009
  0.83125000000000004         -6.3294674169824647E-009
  0.83515625000000004         -6.3890545077270400E-009
  0.83906250000000004         -6.4501418039409783E-009
  0.84296875000000004         -6.5125757395655911E-009
  0.84687500000000004         -6.5761217146285224E-009
  0.85078125000000004         -6.6404876389704657E-009
  0.85468750000000004         -6.7053408563791770E-009
  0.85859375000000004         -6.7703296795716246E-009
  0.86250000000000004         -6.8350991260033455E-009
  0.86640625000000004         -6.8993256780322178E-009
  0.87031250000000004         -6.9627351096887905E-009
  0.87421875000000004         -7.0251204514976150E-009
  0.87812500000000004         -7.0863548106453433E-009
  0.88203125000000004         -7.1463995267574547E-009
  0.88593750000000004         -7.2053073383583330E-009
  0.88984375000000004         -7.2632157252413977E-009
  0.89375000000000004         -7.3203459306981000E-009
  0.89765625000000004         -7.3769904592994506E-009
  0.90156250000000004         -7.4334881680020859E-009
  0.90546875000000004         -7.4901923227352358E-009
  0.90937500000000004         -7.5474600711059235E-009
  0.91328125000000004         -7.6056221102424009E-009
  0.91718750000000004         -7.6649523956436409E-009
  0.92109375000000004         -7.7256487949676794E-009
  0.92500000000000004         -7.7878270614460028E-009