 -0.1200000        0.0000000E+00
 -0.1194000        2.4438163E-16
 -0.1188000        7.5770300E-16
 -0.1182000        1.5584127E-15
 -0.1176000        2.6587875E-15
 -0.1170000        4.0652326E-15
 -0.1164000        5.7789348E-15
 -0.1158000        7.7968400E-15
 -0.1152000        1.0112915E-14
 -0.1146000        1.2719635E-14
 -0.1140000        1.5609636E-14
 -0.1134000        1.8777465E-14
 -0.1128000        2.2221344E-14
 -0.1122000        2.5944909E-14
 -0.1116000        2.9958820E-14
 -0.1110000        3.4282236E-14
 -0.1104000        3.8944081E-14
 -0.1098000        4.3984097E-14
 -0.1092000        4.9453653E-14
 -0.1086000        5.5416341E-14
 -0.1080000        6.1948364E-14
 -0.1074000        6.9138705E-14
 -0.1068000        7.7089227E-14
 -0.1062000        8.5914565E-14
 -0.1056000        9.5742106E-14
 -0.1050000        1.0671181E-13
 -0.1044000        1.1897620E-13
 -0.1038000        1.3270042E-13
 -0.1032000        1.4806239E-13
 -0.1026000        1.6525308E-13
 -0.1020000        1.8447716E-13
 -0.1014000        2.0595365E-13
 -0.1008000        2.2991694E-13
 -0.1002000        2.5661802E-13
 -9.9600002E-02    2.8632592E-13
 -9.8999999E-02    3.1932939E-13
 -9.8399997E-02    3.5593880E-13
 -9.7800002E-02    3.9648837E-13
 -9.7199999E-02    4.4133843E-13
 -9.6600004E-02    4.9087768E-13
 -9.6000001E-02    5.4552624E-13
 -9.5399998E-02    6.0573801E-13
 -9.4800003E-02    6.7200347E-13
 -9.4200000E-02    7.4485253E-13
 -9.3599997E-02    8.2485738E-13
 -9.3000002E-02    9.1263509E-13
 -9.2399999E-02    1.0088504E-12
 -9.1799997E-02    1.1142185E-12
 -9.1200002E-02    1.2295072E-12
 -9.0599999E-02    1.3555395E-12
 -9.0000004E-02    1.4931963E-12
 -8.9400001E-02    1.6434181E-12
 -8.8799998E-02    1.8072082E-12
 -8.8200003E-02    1.9856334E-12
 -8.7600000E-02    2.1798275E-12
 -8.6999997E-02    2.3909926E-12
 -8.6400002E-02    2.6204015E-12
 -8.5800000E-02    2.8693998E-12
 -8.5199997E-02    3.1394078E-12
 -8.4600002E-02    3.4319214E-12
 -8.3999999E-02    3.7485167E-12
 -8.3400004E-02    4.0908475E-12
 -8.2800001E-02    4.4606497E-12
 -8.2199998E-02    4.8597419E-12
 -8.1600003E-02    5.2900254E-12
 -8.1000000E-02    5.7534828E-12
 -8.0399998E-02    6.2521819E-12
 -7.9800002E-02    6.7882713E-12
 -7.9200000E-02    7.3639810E-12
 -7.8599997E-02    7.9816171E-12
 -7.8000002E-02    8.6435642E-12
 -7.7399999E-02    9.3522776E-12
 -7.6800004E-02    1.0110280E-11
 -7.6200001E-02    1.0920158E-11
 -7.5599998E-02    1.1784552E-11
 -7.5000003E-02    1.2706155E-11
 -7.4400000E-02    1.3687700E-11
 -7.3799998E-02    1.4731955E-11
 -7.3200002E-02    1.5841712E-11
 -7.2600000E-02    1.7019771E-11
 -7.1999997E-02    1.8268942E-11
 -7.1400002E-02    1.9592017E-11
 -7.0799999E-02    2.0991764E-11
 -7.0200004E-02    2.2470911E-11
 -6.9600001E-02    2.4032132E-11
 -6.8999998E-02    2.5678026E-11
 -6.8400003E-02    2.7411098E-11
 -6.7800000E-02    2.9233744E-11
 -6.7199998E-02    3.1148226E-11
 -6.6600002E-02    3.3156658E-11
 -6.6000000E-02    3.5260961E-11
 -6.5399997E-02    3.7462870E-11
 -6.4800002E-02    3.9763883E-11
 -6.4199999E-02    4.2165250E-11
 -6.3600004E-02    4.4667939E-11
 -6.3000001E-02    4.7272609E-11
 -6.2399998E-02    4.9979580E-11
 -6.1799999E-02    5.2788808E-11
 -6.1200000E-02    5.5699854E-11
 -6.0600001E-02    5.8711855E-11
 -5.9999999E-02    6.1823484E-11
 -5.9400000E-02    6.5032930E-11
 -5.8800001E-02    6.8337877E-11
 -5.8200002E-02    7.1735458E-11
 -5.7599999E-02    7.5222224E-11
 -5.7000000E-02    7.8794131E-11
 -5.6400001E-02    8.2446515E-11
 -5.5799998E-02    8.6174033E-11
 -5.5199999E-02    8.9970691E-11
 -5.4600000E-02    9.3829784E-11
 -5.4000001E-02    9.7743889E-11
 -5.3399999E-02    1.0170485E-10
 -5.2800000E-02    1.0570375E-10
 -5.2200001E-02    1.0973093E-10
 -5.1600002E-02    1.1377595E-10
 -5.0999999E-02    1.1782759E-10
 -5.0400000E-02    1.2187390E-10
 -4.9800001E-02    1.2590209E-10
 -4.9199998E-02    1.2989868E-10
 -4.8599999E-02    1.3384940E-10
 -4.8000000E-02    1.3773928E-10
 -4.7400001E-02    1.4155262E-10
 -4.6799999E-02    1.4527306E-10
 -4.6200000E-02    1.4888356E-10
 -4.5600001E-02    1.5236654E-10
 -4.5000002E-02    1.5570378E-10
 -4.4399999E-02    1.5887663E-10
 -4.3800000E-02    1.6186594E-10
 -4.3200001E-02    1.6465214E-10
 -4.2599998E-02    1.6721537E-10
 -4.1999999E-02    1.6953551E-10
 -4.1400000E-02    1.7159227E-10
 -4.0800001E-02    1.7336525E-10
 -4.0199999E-02    1.7483406E-10
 -3.9600000E-02    1.7597840E-10
 -3.9000001E-02    1.7677815E-10
 -3.8400002E-02    1.7721347E-10
 -3.7799999E-02    1.7726492E-10
 -3.7200000E-02    1.7691359E-10
 -3.6600001E-02    1.7614117E-10
 -3.5999998E-02    1.7493007E-10
 -3.5399999E-02    1.7326356E-10
 -3.4800000E-02    1.7112586E-10
 -3.4200002E-02    1.6850230E-10
 -3.3599999E-02    1.6537936E-10
 -3.3000000E-02    1.6174487E-10
 -3.2400001E-02    1.5758805E-10
 -3.1800002E-02    1.5289972E-10
 -3.1199999E-02    1.4767228E-10
 -3.0600000E-02    1.4189988E-10
 -2.9999999E-02    1.3557855E-10
 -2.9400000E-02    1.2870623E-10
 -2.8800000E-02    1.2128287E-10
 -2.8200001E-02    1.1331057E-10
 -2.7600000E-02    1.0479353E-10
 -2.7000001E-02    9.5738209E-11
 -2.6400000E-02    8.6153355E-11
 -2.5800001E-02    7.6050027E-11
 -2.5200000E-02    6.5441617E-11
 -2.4599999E-02    5.4343911E-11
 -2.4000000E-02    4.2775047E-11
 -2.3399999E-02    3.0755530E-11
 -2.2800000E-02    1.8308213E-11
 -2.2200000E-02    5.4582688E-12
 -2.1600001E-02   -7.7668696E-12
 -2.1000000E-02   -2.1337558E-11
 -2.0400001E-02   -3.5222023E-11
 -1.9800000E-02   -4.9386426E-11
 -1.9200001E-02   -6.3795004E-11
 -1.8600000E-02   -7.8410133E-11
 -1.7999999E-02   -9.3192488E-11
 -1.7400000E-02   -1.0810118E-10
 -1.6799999E-02   -1.2309388E-10
 -1.6200000E-02   -1.3812701E-10
 -1.5600000E-02   -1.5315588E-10
 -1.5000000E-02   -1.6813489E-10
 -1.4400000E-02   -1.8301775E-10
 -1.3800000E-02   -1.9775762E-10
 -1.3200000E-02   -2.1230732E-10
 -1.2600000E-02   -2.2661958E-10
 -1.2000000E-02   -2.4064725E-10
 -1.1400000E-02   -2.5434346E-10
 -1.0800000E-02   -2.6766189E-10
 -1.0200000E-02   -2.8055697E-10
 -9.6000005E-03   -2.9298414E-10
 -8.9999996E-03   -3.0489997E-10
 -8.3999997E-03   -3.1626246E-10
 -7.7999998E-03   -3.2703129E-10
 -7.1999999E-03   -3.3716782E-10
 -6.6000000E-03   -3.4663547E-10
 -6.0000001E-03   -3.5539993E-10
 -5.4000001E-03   -3.6342918E-10
 -4.8000002E-03   -3.7069370E-10
 -4.1999999E-03   -3.7716674E-10
 -3.5999999E-03   -3.8282433E-10
 -3.0000000E-03   -3.8764544E-10
 -2.4000001E-03   -3.9161213E-10
 -1.8000000E-03   -3.9470957E-10
 -1.2000001E-03   -3.9692619E-10
 -6.0000003E-04   -3.9825371E-10
  0.0000000E+00   -3.9868719E-10
  6.0000003E-04   -3.9822501E-10
  1.2000001E-03   -3.9686901E-10
  1.8000000E-03   -3.9462425E-10
  2.4000001E-03   -3.9149928E-10
  3.0000000E-03   -3.8750583E-10
  3.5999999E-03   -3.8265888E-10
  4.1999999E-03   -3.7697659E-10
  4.8000002E-03   -3.7048012E-10
  5.4000001E-03   -3.6319361E-10
  6.0000001E-03   -3.5514400E-10
  6.6000000E-03   -3.4636086E-10
  7.1999999E-03   -3.3687639E-10
  7.7999998E-03   -3.2672506E-10
  8.3999997E-03   -3.1594349E-10
  8.9999996E-03   -3.0457040E-10
  9.6000005E-03   -2.9264621E-10
  1.0200000E-02   -2.8021296E-10
  1.0800000E-02   -2.6731406E-10
  1.1400000E-02   -2.5399413E-10
  1.2000000E-02   -2.4029875E-10
  1.2600000E-02   -2.2627421E-10
  1.3200000E-02   -2.1196730E-10
  1.3800000E-02   -1.9742516E-10
  1.4400000E-02   -1.8269498E-10
  1.5000000E-02   -1.6782385E-10
  1.5600000E-02   -1.5285848E-10
  1.6200000E-02   -1.3784508E-10
  1.6799999E-02   -1.2282912E-10
  1.7400000E-02   -1.0785513E-10
  1.7999999E-02   -9.2966537E-11
  1.8600000E-02   -7.8205512E-11
  1.9200001E-02   -6.3612782E-11
  1.9800000E-02   -4.9227483E-11
  2.0400001E-02   -3.5087058E-11
  2.1000000E-02   -2.1227096E-11
  2.1600001E-02   -7.6812315E-12
  2.2200000E-02    5.5189468E-12
  2.2800000E-02    1.8343981E-11
  2.3399999E-02    3.0766625E-11
  2.4000000E-02    4.2761895E-11
  2.4599999E-02    5.4307111E-11
  2.5200000E-02    6.5381936E-11
  2.5800001E-02    7.5968391E-11
  2.6400000E-02    8.6050854E-11
  2.7000001E-02    9.5616064E-11
  2.7600000E-02    1.0465308E-10
  2.8200001E-02    1.1315331E-10
  2.8800000E-02    1.2111036E-10
  2.9400000E-02    1.2852011E-10
  2.9999999E-02    1.3538055E-10
  3.0600000E-02    1.4169177E-10
  3.1199999E-02    1.4745587E-10
  3.1800002E-02    1.5267684E-10
  3.2400001E-02    1.5736054E-10
  3.3000000E-02    1.6151451E-10
  3.3599999E-02    1.6514795E-10
  3.4200002E-02    1.6827158E-10
  3.4800000E-02    1.7089749E-10
  3.5399999E-02    1.7303914E-10
  3.5999998E-02    1.7471111E-10
  3.6600001E-02    1.7592906E-10
  3.7200000E-02    1.7670963E-10
  3.7799999E-02    1.7707028E-10
  3.8400002E-02    1.7702917E-10
  3.9000001E-02    1.7660513E-10
  3.9600000E-02    1.7581744E-10
  4.0199999E-02    1.7468579E-10
  4.0800001E-02    1.7323017E-10
  4.1400000E-02    1.7147074E-10
  4.1999999E-02    1.6942776E-10
  4.2599998E-02    1.6712150E-10
  4.3200001E-02    1.6457212E-10
  4.3800000E-02    1.6179966E-10
  4.4399999E-02    1.5882383E-10
  4.5000002E-02    1.5566411E-10
  4.5600001E-02    1.5233954E-10
  4.6200000E-02    1.4886872E-10
  4.6799999E-02    1.4526977E-10
  4.7400001E-02    1.4156025E-10
  4.8000000E-02    1.3775710E-10
  4.8599999E-02    1.3387665E-10
  4.9199998E-02    1.2993456E-10
  4.9800001E-02    1.2594580E-10
  5.0400000E-02    1.2192458E-10
  5.0999999E-02    1.1788444E-10
  5.1600002E-02    1.1383810E-10
  5.2200001E-02    1.0979758E-10
  5.2800000E-02    1.0577409E-10
  5.3399999E-02    1.0177812E-10
  5.4000001E-02    9.7819343E-11
  5.4600000E-02    9.3906716E-11
  5.5199999E-02    9.0048441E-11
  5.5799998E-02    8.6251985E-11
  5.6400001E-02    8.2524106E-11
  5.7000000E-02    7.8870861E-11
  5.7599999E-02    7.5297629E-11
  5.8200002E-02    7.1809135E-11
  5.8800001E-02    6.8409486E-11
  5.9400000E-02    6.5102181E-11
  5.9999999E-02    6.1890125E-11
  6.0600001E-02    5.8775700E-11
  6.1200000E-02    5.5760754E-11
  6.1799999E-02    5.2846647E-11
  6.2399998E-02    5.0034282E-11
  6.3000001E-02    4.7324131E-11
  6.3600004E-02    4.4716262E-11
  6.4199999E-02    4.2210381E-11
  6.4800002E-02    3.9805850E-11
  6.5399997E-02    3.7501707E-11
  6.6000000E-02    3.5296724E-11
  6.6600002E-02    3.3189410E-11
  6.7199998E-02    3.1178036E-11
  6.7800000E-02    2.9260677E-11
  6.8400003E-02    2.7435226E-11
  6.8999998E-02    2.5699420E-11
  6.9600001E-02    2.4050862E-11
  7.0200004E-02    2.2487047E-11
  7.0799999E-02    2.1005369E-11
  7.1400002E-02    1.9603156E-11
  7.1999997E-02    1.8277680E-11
  7.2600000E-02    1.7026172E-11
  7.3200002E-02    1.5845837E-11
  7.3799998E-02    1.4733877E-11
  7.4400000E-02    1.3687493E-11
  7.5000003E-02    1.2703898E-11
  7.5599998E-02    1.1780333E-11
  7.6200001E-02    1.0914072E-11
  7.6800004E-02    1.0102433E-11
  7.7399999E-02    9.3427844E-12
  7.8000002E-02    8.6325504E-12
  7.8599997E-02    7.9692182E-12
  7.9200000E-02    7.3503408E-12
  7.9800002E-02    6.7735431E-12
  8.0399998E-02    6.2365243E-12
  8.1000000E-02    5.7370584E-12
  8.1600003E-02    5.2730008E-12
  8.2199998E-02    4.8422859E-12
  8.2800001E-02    4.4429278E-12
  8.3400004E-02    4.0730232E-12
  8.3999999E-02    3.7307497E-12
  8.4600002E-02    3.4143651E-12
  8.5199997E-02    3.1222078E-12
  8.5800000E-02    2.8526951E-12
  8.6400002E-02    2.6043202E-12
  8.6999997E-02    2.3756552E-12
  8.7600000E-02    2.1653439E-12
  8.8200003E-02    1.9721030E-12
  8.8799998E-02    1.7947194E-12
  8.9400001E-02    1.6320478E-12
  9.0000004E-02    1.4830089E-12
  9.0599999E-02    1.3465864E-12
  9.1200002E-02    1.2218254E-12
  9.1799997E-02    1.1078290E-12
  9.2399999E-02    1.0037575E-12
  9.3000002E-02    9.0882499E-13
  9.3599997E-02    8.2229736E-13
  9.4200000E-02    7.4348942E-13
  9.4800003E-02    6.7176413E-13
  9.5399998E-02    6.0652866E-13
  9.6000001E-02    5.4723337E-13
  9.6600004E-02    4.9336923E-13
  9.7199999E-02    4.4446586E-13
  9.7800002E-02    4.0008949E-13
  9.8399997E-02    3.5984095E-13
  9.8999999E-02    3.2335330E-13
  9.9600002E-02    2.9029082E-13
  0.1002000        2.6034605E-13
  0.1008000        2.3323842E-13
  0.1014000        2.0871239E-13
  0.1020000        1.8653540E-13
  0.1026000        1.6649628E-13
  0.1032000        1.4840340E-13
  0.1038000        1.3208320E-13
  0.1044000        1.1737810E-13
  0.1050000        1.0414533E-13
  0.1056000        9.2255352E-14
  0.1062000        8.1590367E-14
  0.1068000        7.2043195E-14
  0.1074000        6.3516094E-14
  0.1080000        5.5919435E-14
  0.1086000        4.9170964E-14
  0.1092000        4.3194848E-14
  0.1098000        3.7920933E-14
  0.1104000        3.3284173E-14
  0.1110000        2.9224050E-14
  0.1116000        2.5684165E-14
  0.1122000        2.2611858E-14
  0.1128000        1.9957933E-14
  0.1134000        1.7676465E-14
  0.1140000        1.5724609E-14
  0.1146000        1.4062515E-14
  0.1152000        1.2653101E-14
  0.1158000        1.1462172E-14
  0.1164000        1.0458153E-14
  0.1170000        9.6122171E-15
  0.1176000        8.8979447E-15
  0.1182000        8.2915598E-15
  0.1188000        7.7715510E-15
  0.1194000        7.3187585E-15
  0.1200000        6.9161663E-15
  0.1206000        6.5490296E-15
  0.1212000        6.2043393E-15
  0.1218000        5.8714045E-15
  0.1224000        5.5409647E-15
  0.1230000        5.2056870E-15
  0.1236000        4.8598138E-15
  0.1242000        4.4992823E-15
  0.1248000        4.1212642E-15
  0.1254000        3.7247152E-15
  0.1260000        3.3094988E-15
  0.1266000        2.8773631E-15
  0.1272000        2.4305875E-15
  0.1278000        1.9729570E-15
  0.1284000        1.5091211E-15
  0.1290000        1.0444316E-15
  0.1296000        5.8509150E-16
  0.1302000        1.3732707E-16
  0.1308000       -2.9155793E-16
  0.1314000       -6.9474860E-16
  0.1320000       -1.0655602E-15
  0.1326000       -1.3970304E-15
  0.1332000       -1.6831242E-15
  0.1338000       -1.9188115E-15
  0.1344000       -2.0992056E-15
  0.1350000       -2.2216865E-15
  0.1356000       -2.2834960E-15
  0.1362000       -2.2841808E-15
  0.1368000       -2.2245658E-15
  0.1374000       -2.1068253E-15
  0.1380000       -1.9348536E-15
  0.1386000       -1.7132814E-15
  0.1392000       -1.4489913E-15
  0.1398000       -1.1491683E-15
  0.1404000       -8.2269483E-16
  0.1410000       -4.7880501E-16
  0.1416000       -1.2713501E-16
  0.1422000        2.2265918E-16
  0.1428000        5.6061024E-16
  0.1434000        8.7755451E-16
  0.1440000        1.1650193E-15
  0.1446000        1.4155192E-15
  0.1452000        1.6224119E-15
  0.1458000        1.7811100E-15
  0.1464000        1.8877885E-15
  0.1470000        1.9408248E-15
  0.1476000        1.9398696E-15
  0.1482000        1.8862812E-15
  0.1488000        1.7829044E-15
  0.1494000        1.6339771E-15
  0.1500000        1.4448197E-15
  0.1506000        1.2217539E-15
  0.1512000        9.7183129E-16
  0.1518000        7.0258974E-16
  0.1524000        4.2197538E-16
  0.1530000        1.3783566E-16
  0.1536000       -1.4221835E-16
  0.1542000       -4.1093420E-16
  0.1548000       -6.6170404E-16
  0.1554000       -8.8855090E-16
  0.1560000       -1.0865295E-15
  0.1566000       -1.2515808E-15
  0.1572000       -1.3807162E-15
  0.1578000       -1.4719892E-15
  0.1584000       -1.5244855E-15
  0.1590000       -1.5383102E-15
  0.1596000       -1.5145464E-15
  0.1602000       -1.4550856E-15
  0.1608000       -1.3625640E-15
  0.1614000       -1.2403081E-15
  0.1620000       -1.0920779E-15
  0.1626000       -9.2208155E-16
  0.1632000       -7.3466577E-16
  0.1638000       -5.3439409E-16
  0.1644000       -3.2570090E-16
  0.1650000       -1.1315046E-16
  0.1656000        9.9226628E-17
  0.1662000        3.0740649E-16
  0.1668000        5.0763172E-16
  0.1674000        6.9674289E-16
  0.1680000        8.7173963E-16
  0.1686000        1.0300108E-15
  0.1692000        1.1693823E-15
  0.1698000        1.2881105E-15
  0.1704000        1.3846258E-15
  0.1710000        1.4578097E-15
  0.1716000        1.5068901E-15
  0.1722000        1.5313274E-15
  0.1728000        1.5310064E-15
  0.1734000        1.5060136E-15
  0.1740000        1.4569457E-15
  0.1746000        1.3846430E-15
  0.1752000        1.2902637E-15
  0.1758000        1.1754582E-15
  0.1764000        1.0422002E-15
  0.1770000        8.9288623E-16
  0.1776000        7.3020577E-16
  0.1782000        5.5718288E-16
  0.1788000        3.7714047E-16
  0.1794000        1.9360342E-16
  0.1800000        1.0259468E-17
  0.1806000       -1.6907867E-16
  0.1812000       -3.4085154E-16
  0.1818000       -5.0152736E-16
  0.1824000       -6.4790260E-16
  0.1830000       -7.7718566E-16
  0.1836000       -8.8698543E-16
  0.1842000       -9.7548031E-16
  0.1848000       -1.0415283E-15
  0.1854000       -1.0845540E-15
  0.1860000       -1.1046277E-15
  0.1866000       -1.1024318E-15
  0.1872000       -1.0792753E-15
  0.1878000       -1.0368428E-15
  0.1884000       -9.7739248E-16
  0.1890000       -9.0334126E-16
  0.1896000       -8.1741745E-16
  0.1902000       -7.2243324E-16
  0.1908000       -6.2122556E-16
  0.1914000       -5.1652646E-16
  0.1920000       -4.1089838E-16
  0.1926000       -3.0660827E-16
  0.1932000       -2.0573234E-16
  0.1938000       -1.0991302E-16
  0.1944000       -2.0495393E-17
  0.1950000        6.1482191E-17
  0.1956000        1.3543235E-16
  0.1962000        2.0089328E-16
  0.1968000        2.5769373E-16
  0.1974000        3.0588946E-16
  0.1980000        3.4560003E-16
  0.1986000        3.7696487E-16
  0.1992000        4.0018474E-16
  0.1998000        4.1533631E-16
  0.2004000        4.2243203E-16
  0.2010000        4.2134238E-16
  0.2016000        4.1183292E-16
  0.2022000        3.9358701E-16
  0.2028000        3.6617295E-16
  0.2034000        3.2921169E-16
  0.2040000        2.8236391E-16
  0.2046000        2.2543215E-16
  0.2052000        1.5852020E-16
  0.2058000        8.2026704E-17
  0.2064000       -3.2541548E-18
  0.2070000       -9.6047375E-17
  0.2076000       -1.9459702E-16
  0.2082000       -2.9665217E-16
  0.2088000       -3.9948078E-16
  0.2094000       -4.9992631E-16
  0.2100000       -5.9451406E-16
  0.2106000       -6.7958189E-16
  0.2112000       -7.5137889E-16
  0.2118000       -8.0627632E-16
  0.2124000       -8.4090366E-16
  0.2130000       -8.5233850E-16
  0.2136000       -8.3827060E-16
  0.2142000       -7.9712333E-16
  0.2148000       -7.2820174E-16
  0.2154000       -6.3175878E-16
  0.2160000       -5.0906410E-16
  0.2166000       -3.6239751E-16
  0.2172000       -1.9501437E-16
  0.2178000       -1.1064819E-17
  0.2184000        1.8451619E-16
  0.2190000        3.8618178E-16
  0.2196000        5.8794293E-16
  0.2202000        7.8359764E-16
  0.2208000        9.6696222E-16
  0.2214000        1.1320907E-15
  0.2220000        1.2735129E-15
  0.2226000        1.3864494E-15
  0.2232000        1.4669902E-15
  0.2238000        1.5122630E-15
  0.2244000        1.5205400E-15
  0.2250000        1.4913072E-15
  0.2256000        1.4252805E-15
  0.2262000        1.3243725E-15
  0.2268000        1.1916139E-15
  0.2274000        1.0310285E-15
  0.2280000        8.4746456E-16
  0.2286000        6.4640224E-16
  0.2292000        4.3375596E-16
  0.2298000        2.1563356E-16
  0.2304000       -1.8695692E-18
  0.2310000       -2.1288479E-16
  0.2316000       -4.1196122E-16
  0.2322000       -5.9423618E-16
  0.2328000       -7.5556419E-16
  0.2334000       -8.9262301E-16
  0.2340000       -1.0029854E-15
  0.2346000       -1.0851433E-15
  0.2352000       -1.1385186E-15
  0.2358000       -1.1634175E-15
  0.2364000       -1.1609735E-15
  0.2370000       -1.1330696E-15
  0.2376000       -1.0822232E-15
  0.2382000       -1.0114587E-15
  0.2388000       -9.2418283E-16
  0.2394000       -8.2403743E-16
  0.2400000       -7.1476113E-16
  0.2406000       -6.0004857E-16
  0.2412000       -4.8341886E-16
  0.2418000       -3.6810570E-16
  0.2424000       -2.5696507E-16
  0.2430000       -1.5240326E-16
  0.2436000       -5.6333806E-17
  0.2442000        2.9841014E-17
  0.2448000        1.0521512E-16
  0.2454000        1.6934482E-16
  0.2460000        2.2219350E-16
  0.2466000        2.6405606E-16
  0.2472000        2.9547826E-16
  0.2478000        3.1716580E-16
  0.2484000        3.2991033E-16
  0.2490000        3.3451144E-16
  0.2496000        3.3172185E-16
  0.2502000        3.2220922E-16
  0.2508000        3.0654030E-16
  0.2514000        2.8518093E-16
  0.2520000        2.5851800E-16
  0.2526000        2.2689911E-16
  0.2532000        1.9067219E-16
  0.2538000        1.5023936E-16
  0.2544000        1.0610116E-16
  0.2550000        5.8903088E-17
  0.2556000        9.4621091E-18
  0.2562000       -4.1216127E-17
  0.2568000       -9.1940093E-17
  0.2574000       -1.4135294E-16
  0.2580000       -1.8796145E-16
  0.2586000       -2.3019274E-16
  0.2592000       -2.6644605E-16
  0.2598000       -2.9516515E-16
  0.2604000       -3.1490904E-16
  0.2610000       -3.2441706E-16
  0.2616000       -3.2267834E-16
  0.2622000       -3.0898843E-16
  0.2628000       -2.8299749E-16
  0.2634000       -2.4474286E-16
  0.2640000       -1.9467260E-16
  0.2646000       -1.3364822E-16
  0.2652000       -6.2933906E-17
  0.2658000        1.5827138E-17
  0.2664000        1.0065940E-16
  0.2670000        1.8931270E-16
  0.2676000        2.7933032E-16
  0.2682000        3.6813378E-16
  0.2688000        4.5311202E-16
  0.2694000        5.3171720E-16
  0.2700000        6.0156052E-16
  0.2706000        6.6050173E-16
  0.2712000        7.0673337E-16
  0.2718000        7.3885228E-16
  0.2724000        7.5591089E-16
  0.2730000        7.5745254E-16
  0.2736000        7.4352070E-16
  0.2742000        7.1465170E-16
  0.2748000        6.7183641E-16
  0.2754000        6.1646941E-16
  0.2760000        5.5027935E-16
  0.2766000        4.7523795E-16
  0.2772000        3.9347282E-16
  0.2778000        3.0716798E-16
  0.2784000        2.1846874E-16
  0.2790000        1.2939424E-16
  0.2796000        4.1763006E-17
  0.2802000       -4.2870511E-17
  0.2808000       -1.2325262E-16
  0.2814000       -1.9845533E-16
  0.2820000       -2.6787433E-16
  0.2826000       -3.3120539E-16
  0.2832000       -3.8840624E-16
  0.2838000       -4.3964202E-16
  0.2844000       -4.8521700E-16
  0.2850000       -5.2549935E-16
  0.2856000       -5.6085493E-16
  0.2862000       -5.9157337E-16
  0.2868000       -6.1781434E-16
  0.2874000       -6.3956398E-16
  0.2880000       -6.5662116E-16
  0.2886000       -6.6858841E-16
  0.2892000       -6.7490341E-16
  0.2898000       -6.7488266E-16
  0.2904000       -6.6778230E-16
  0.2910000       -6.5287468E-16
  0.2916000       -6.2953167E-16
  0.2922000       -5.9730445E-16
  0.2928000       -5.5599772E-16
  0.2934000       -5.0573055E-16
  0.2940000       -4.4697770E-16
  0.2946000       -3.8058199E-16
  0.2952000       -3.0774650E-16
  0.2958000       -2.2999989E-16
  0.2964000       -1.4913467E-16
  0.2970000       -6.7134508E-17
  0.2976000        1.3921446E-17
  0.2982000        9.1953831E-17
  0.2988000        1.6497675E-16
  0.2994000        2.3119346E-16
  0.3000000        2.8906945E-16
  0.3006000        3.3739493E-16
  0.3012000        3.7532408E-16
  0.3018000        4.0239589E-16
  0.3024000        4.1853431E-16
  0.3030000        4.2403203E-16
  0.3036000        4.1951596E-16
  0.3042000        4.0590565E-16
  0.3048000        3.8436081E-16
  0.3054000        3.5622587E-16
  0.3060000        3.2297401E-16
  0.3066000        2.8615010E-16
  0.3072000        2.4731890E-16
  0.3078000        2.0801237E-16
  0.3084000        1.6968397E-16
  0.3090000        1.3366659E-16
  0.3096000        1.0113245E-16
  0.3102000        7.3060291E-17
  0.3108000        5.0207825E-17
  0.3114000        3.3089905E-17
  0.3120000        2.1968706E-17
  0.3126000        1.6850005E-17
  0.3132000        1.7495077E-17
  0.3138000        2.3443425E-17
  0.3144000        3.4046228E-17
  0.3150000        4.8512631E-17
  0.3156000        6.5961003E-17
  0.3162000        8.5478859E-17
  0.3168000        1.0617830E-16
  0.3174000        1.2725066E-16
  0.3180000        1.4800847E-16
  0.3186000        1.6791645E-16
  0.3192000        1.8660401E-16
  0.3198000        2.0386155E-16
  0.3204000        2.1961854E-16
  0.3210000        2.3390600E-16
  0.3216000        2.4680775E-16
  0.3222000        2.5840651E-16
  0.3228000        2.6872663E-16
  0.3234000        2.7768485E-16
  0.3240000        2.8505054E-16
  0.3246000        2.9042200E-16
  0.3252000        2.9322248E-16
  0.3258000        2.9271354E-16
  0.3264000        2.8802966E-16
  0.3270000        2.7822936E-16
  0.3276000        2.6235729E-16
  0.3282000        2.3951985E-16
  0.3288000        2.0895407E-16
  0.3294000        1.7010180E-16
  0.3300000        1.2267246E-16
  0.3306000        6.6689743E-17
  0.3312000        2.5255995E-18
  0.3318000       -6.9084854E-17
  0.3324000       -1.4704726E-16
  0.3330000       -2.2993143E-16
  0.3336000       -3.1601103E-16
  0.3342000       -4.0331461E-16
  0.3348000       -4.8969198E-16
  0.3354000       -5.7288491E-16
  0.3360000       -6.5060241E-16
  0.3366000       -7.2059750E-16
  0.3372000       -7.8074076E-16
  0.3378000       -8.2909284E-16
  0.3384000       -8.6396477E-16
  0.3390000       -8.8397629E-16
  0.3396000       -8.8810272E-16
  0.3402000       -8.7571242E-16
  0.3408000       -8.4659318E-16
  0.3414000       -8.0096706E-16
  0.3420000       -7.3949841E-16
  0.3426000       -6.6328408E-16
  0.3432000       -5.7383650E-16
  0.3438000       -4.7304980E-16
  0.3444000       -3.6315619E-16
  0.3450000       -2.4666986E-16
  0.3456000       -1.2631651E-16
  0.3462000       -4.9560729E-18
  0.3468000        1.1450657E-16
  0.3474000        2.2921506E-16
  0.3480000        3.3645628E-16
  0.3486000        4.3375498E-16
  0.3492000        5.1896062E-16
  0.3498000        5.9032500E-16
  0.3504000        6.4656397E-16
  0.3510000        6.8690036E-16
  0.3516000        7.1108559E-16
  0.3522000        7.1939821E-16
  0.3528000        7.1261829E-16
  0.3534000        6.9197944E-16
  0.3540000        6.5910053E-16
  0.3546000        6.1590206E-16
  0.3552000        5.6451014E-16
  0.3558000        5.0715521E-16
  0.3564000        4.4606989E-16
  0.3570000        3.8339430E-16
  0.3576000        3.2109089E-16
  0.3582000        2.6087545E-16
  0.3588000        2.0416833E-16
  0.3594000        1.5206381E-16
  0.3600000        1.0532368E-16
  0.3606000        6.4388877E-17
  0.3612000        2.9411674E-17
  0.3618000        2.9972217E-19
  0.3624000       -2.3227230E-17
  0.3630000       -4.1577833E-17
  0.3636000       -5.5226581E-17
  0.3642000       -6.4658928E-17
  0.3648000       -7.0321966E-17
  0.3654000       -7.2590413E-17
  0.3660000       -7.1745716E-17
  0.3666000       -6.7971218E-17
  0.3672000       -6.1361760E-17
  0.3678000       -5.1948233E-17
  0.3684000       -3.9733419E-17
  0.3690000       -2.4733571E-17
  0.3696000       -7.0259588E-18
  0.3702000        1.3206781E-17
  0.3708000        3.5635295E-17
  0.3714000        5.9753357E-17
  0.3720000        8.4858606E-17
  0.3726000        1.1005017E-16
  0.3732000        1.3423949E-16
  0.3738000        1.5617946E-16
  0.3744000        1.7451109E-16
  0.3750000        1.8781757E-16
  0.3756000        1.9469537E-16
  0.3762000        1.9382740E-16
  0.3768000        1.8405902E-16
  0.3774000        1.6447446E-16
  0.3780000        1.3446373E-16
  0.3786000        9.3780616E-17
  0.3792000        4.2581451E-17
  0.3798000       -1.8544453E-17
  0.3804000       -8.8574037E-17
  0.3810000       -1.6606185E-16
  0.3816000       -2.4917436E-16
  0.3822000       -3.3574194E-16
  0.3828000       -4.2332600E-16
  0.3834000       -5.0930085E-16
  0.3840000       -5.9094334E-16
  0.3846000       -6.6552835E-16
  0.3852000       -7.3042579E-16
  0.3858000       -7.8319811E-16
  0.3864000       -8.2169110E-16
  0.3870000       -8.4411550E-16
  0.3876000       -8.4911988E-16
  0.3882000       -8.3584925E-16
  0.3888000       -8.0398679E-16
  0.3894000       -7.5377981E-16
  0.3900000       -6.8604682E-16
  0.3906000       -6.0216372E-16
  0.3912000       -5.0402801E-16
  0.3918000       -3.9400341E-16
  0.3924000       -2.7484401E-16
  0.3930000       -1.4960050E-16
  0.3936000       -2.1511715E-17
  0.3942000        1.0611430E-16
  0.3948000        2.3002389E-16
  0.3954000        3.4713996E-16
  0.3960000        4.5467532E-16
  0.3966000        5.5023123E-16
  0.3972000        6.3187530E-16
  0.3978000        6.9819343E-16
  0.3984000        7.4831417E-16
  0.3990000        7.8190490E-16
  0.3996000        7.9913863E-16
  0.4002000        8.0064053E-16
  0.4008000        7.8741591E-16
  0.4014000        7.6076825E-16
  0.4020000        7.2221285E-16
  0.4026000        6.7339527E-16
  0.4032000        6.1602276E-16
  0.4038000        5.5180464E-16
  0.4044000        4.8241687E-16
  0.4050000        4.0947651E-16
  0.4056000        3.3453894E-16
  0.4062000        2.5909766E-16
  0.4068000        1.8459803E-16
  0.4074000        1.1244532E-16
  0.4080000        4.4010125E-17
  0.4086000       -1.9377839E-17
  0.4092000       -7.6446404E-17
  0.4098000       -1.2601354E-16
  0.4104000       -1.6702988E-16
  0.4110000       -1.9863178E-16
  0.4116000       -2.2019662E-16
  0.4122000       -2.3139590E-16
  0.4128000       -2.3223968E-16
  0.4134000       -2.2310610E-16
  0.4140000       -2.0475114E-16
  0.4146000       -1.7829568E-16
  0.4152000       -1.4518969E-16
  0.4158000       -1.0715419E-16
  0.4164000       -6.6105482E-17
  0.4170000       -2.4065796E-17
  0.4176000        1.6931689E-17
  0.4182000        5.4936956E-17
  0.4188000        8.8171220E-17
  0.4194000        1.1509981E-16
  0.4200000        1.3448910E-16
  0.4206000        1.4544319E-16
  0.4212000        1.4741940E-16
  0.4218000        1.4022621E-16
  0.4224000        1.2400327E-16
  0.4230000        9.9190417E-17
  0.4236000        6.6488725E-17
  0.4242000        2.6816469E-17
  0.4248000       -1.8732278E-17