 -0.1200000        0.0000000E+00
 -0.1194000        0.0000000E+00
 -0.1188000        0.0000000E+00
 -0.1182000       -2.7179350E-16
 -0.1176000       -2.6749846E-16
 -0.1170000       -1.0699938E-15
 -0.1164000       -1.0699938E-15
 -0.1158000       -9.7673859E-15
 -0.1152000       -1.7394784E-14
 -0.1146000       -1.7394784E-14
 -0.1140000       -3.2649580E-14
 -0.1134000       -3.4789568E-14
 -0.1128000       -6.9579135E-14
 -0.1122000       -7.3859111E-14
 -0.1116000       -1.7119901E-14
 -0.1110000       -2.1399876E-14
 -0.1104000       -1.7119901E-14
 -0.1098000       -8.5599506E-15
 -0.1092000        2.6749845E-15
 -0.1086000        1.3909919E-14
 -0.1080000        2.5679850E-14
 -0.1074000        3.4239803E-14
 -0.1068000        5.1359700E-14
 -0.1062000        6.8479605E-14
 -0.1056000        6.8479605E-14
 -0.1050000        5.1359700E-14
 -0.1044000        5.1359700E-14
 -0.1038000        0.0000000E+00
 -0.1032000       -3.4239803E-14
 -0.1026000       -6.8479605E-14
 -0.1020000       -1.0271940E-13
 -0.1014000       -1.3695921E-13
 -0.1008000       -1.3695921E-13
 -0.1002000       -1.3695921E-13
 -9.9600002E-02   -1.0271940E-13
 -9.8999999E-02   -6.8479605E-14
 -9.8399997E-02    0.0000000E+00
 -9.7800002E-02    6.8479605E-14
 -9.7199999E-02    1.3695921E-13
 -9.6600004E-02    2.7391842E-13
 -9.6000001E-02    3.4239801E-13
 -9.5399998E-02    3.4239801E-13
 -9.4800003E-02    2.0543880E-13
 -9.4200000E-02    0.0000000E+00
 -9.3599997E-02   -1.3695921E-13
 -9.3000002E-02    0.0000000E+00
 -9.2399999E-02    0.0000000E+00
 -9.1799997E-02    0.0000000E+00
 -9.1200002E-02   -2.7391842E-13
 -9.0599999E-02   -5.4783684E-13
 -9.0000004E-02   -8.2175521E-13
 -8.9400001E-02   -8.2175521E-13
 -8.8799998E-02   -8.2175521E-13
 -8.8200003E-02   -8.2175521E-13
 -8.7600000E-02   -5.4783684E-13
 -8.6999997E-02   -5.4783684E-13
 -8.6400002E-02    0.0000000E+00
 -8.5800000E-02    0.0000000E+00
 -8.5199997E-02    5.4783684E-13
 -8.4600002E-02    5.4783684E-13
 -8.3999999E-02    5.4783684E-13
 -8.3400004E-02    0.0000000E+00
 -8.2800001E-02    0.0000000E+00
 -8.2199998E-02    0.0000000E+00
 -8.1600003E-02   -3.1241822E-11
 -8.1000000E-02   -3.0146149E-11
 -8.0399998E-02   -2.7954802E-11
 -7.9800002E-02   -2.6859130E-11
 -7.9200000E-02   -2.4667782E-11
 -7.8599997E-02   -2.4667782E-11
 -7.8000002E-02   -2.2476434E-11
 -7.7399999E-02    6.5740417E-12
 -7.6800004E-02    6.5740417E-12
 -7.6200001E-02    6.5740417E-12
 -7.5599998E-02    6.5740417E-12
 -7.5000003E-02    6.5740417E-12
 -7.4400000E-02    8.7653895E-12
 -7.3799998E-02    8.7653895E-12
 -7.3200002E-02    4.3826947E-12
 -7.2600000E-02    8.7653895E-12
 -7.1999997E-02    4.3826947E-12
 -7.1400002E-02    0.0000000E+00
 -7.0799999E-02   -4.3826947E-12
 -7.0200004E-02   -1.3148083E-11
 -6.9600001E-02   -2.6296167E-11
 -6.8999998E-02   -3.5061558E-11
 -6.8400003E-02   -4.3826946E-11
 -6.7800000E-02   -5.2592333E-11
 -6.7199998E-02   -5.2592333E-11
 -6.6600002E-02   -5.2592333E-11
 -6.6000000E-02   -4.3826946E-11
 -6.5399997E-02   -3.5061558E-11
 -6.4800002E-02   -2.6296167E-11
 -6.4199999E-02   -1.7530779E-11
 -6.3600004E-02   -1.7530779E-11
 -6.3000001E-02    1.7530779E-11
 -6.2399998E-02    3.5061558E-11
 -6.1799999E-02    3.5061558E-11
 -6.1200000E-02    5.2592333E-11
 -6.0600001E-02    7.0123116E-11
 -5.9999999E-02   -1.6228070E-10
 -5.9400000E-02   -4.1221529E-10
 -5.8800001E-02   -4.1221529E-10
 -5.8200002E-02   -4.1221529E-10
 -5.7599999E-02   -3.9468451E-10
 -5.7000000E-02    1.4024623E-10
 -5.6400001E-02    1.4024623E-10
 -5.5799998E-02    1.0518467E-10
 -5.5199999E-02    7.0123116E-11
 -5.4600000E-02    3.5061558E-11
 -5.4000001E-02    0.0000000E+00
 -5.3399999E-02    0.0000000E+00
 -5.2800000E-02    0.0000000E+00
 -5.2200001E-02    0.0000000E+00
 -5.1600002E-02    4.9986915E-10
 -5.0999999E-02    4.6480761E-10
 -5.0400000E-02   -7.0123116E-11
 -4.9800001E-02   -1.4024623E-10
 -4.9199998E-02   -1.4024623E-10
 -4.8599999E-02   -1.4024623E-10
 -4.8000000E-02   -7.0123116E-11
 -4.7400001E-02    0.0000000E+00
 -4.6799999E-02    0.0000000E+00
 -4.6200000E-02    0.0000000E+00
 -4.5600001E-02    0.0000000E+00
 -4.5000002E-02    0.0000000E+00
 -4.4399999E-02    0.0000000E+00
 -4.3800000E-02    0.0000000E+00
 -4.3200001E-02    0.0000000E+00
 -4.2599998E-02    0.0000000E+00
 -4.1999999E-02    0.0000000E+00
 -4.1400000E-02    0.0000000E+00
 -4.0800001E-02    0.0000000E+00
 -4.0199999E-02    0.0000000E+00
 -3.9600000E-02    0.0000000E+00
 -3.9000001E-02    0.0000000E+00
 -3.8400002E-02    0.0000000E+00
 -3.7799999E-02    0.0000000E+00
 -3.7200000E-02    0.0000000E+00
 -3.6600001E-02    0.0000000E+00
 -3.5999998E-02    0.0000000E+00
 -3.5399999E-02    0.0000000E+00
 -3.4800000E-02    0.0000000E+00
 -3.4200002E-02    0.0000000E+00
 -3.3599999E-02   -1.4024623E-10
 -3.3000000E-02   -2.8049246E-10
 -3.2400001E-02   -2.8049246E-10
 -3.1800002E-02   -1.4024623E-10
 -3.1199999E-02   -1.4024623E-10
 -3.0600000E-02    0.0000000E+00
 -2.9999999E-02    1.4024623E-10
 -2.9400000E-02    2.8049246E-10
 -2.8800000E-02    4.2073867E-10
 -2.8200001E-02    4.2073867E-10
 -2.7600000E-02    4.2073867E-10
 -2.7000001E-02    4.2073867E-10
 -2.6400000E-02   -7.1924589E-10
 -2.5800001E-02   -7.1924589E-10
 -2.5200000E-02   -8.5949214E-10
 -2.4599999E-02   -9.9973829E-10
 -2.4000000E-02   -1.0698614E-09
 -2.3399999E-02   -1.2101077E-09
 -2.2800000E-02   -1.2101077E-09
 -2.2200000E-02   -7.1023853E-10
 -2.1600001E-02   -2.1036933E-10
 -2.1000000E-02    2.8949984E-10
 -2.0400001E-02    9.1433633E-10
 -1.9800000E-02    1.4843285E-09
 -1.9200001E-02    1.9841977E-09
 -1.8600000E-02    2.3590996E-09
 -1.7999999E-02    2.8239073E-09
 -1.7400000E-02    3.0037188E-09
 -1.6799999E-02    3.2185918E-09
 -1.6200000E-02    2.6485996E-09
 -1.5600000E-02    2.5784763E-09
 -1.5000000E-02    2.4908224E-09
 -1.4400000E-02    1.4165783E-09
 -1.3800000E-02    1.3683686E-09
 -1.3200000E-02    3.6863035E-10
 -1.2600000E-02   -5.9604643E-10
 -1.2000000E-02   -4.9086180E-10
 -1.1400000E-02   -1.3503539E-09
 -1.0800000E-02   -2.1397228E-09
 -1.0200000E-02   -1.9994766E-09
 -9.6000005E-03   -1.8592304E-09
 -8.9999996E-03   -1.7189843E-09
 -8.3999997E-03   -1.5787380E-09
 -7.7999998E-03    5.6098493E-10
 -7.1999999E-03    5.6098493E-10
 -6.6000000E-03    5.6098493E-10
 -6.0000001E-03    4.2073867E-10
 -5.4000001E-03    1.4024623E-10
 -4.8000002E-03    0.0000000E+00
 -4.1999999E-03    1.8592304E-09
 -3.5999999E-03    1.7189843E-09
 -3.0000000E-03    1.7189843E-09
 -2.4000001E-03    1.8592304E-09
 -1.8000000E-03    1.9994766E-09
 -1.2000001E-03    2.2799691E-09
 -6.0000003E-04    5.6098493E-10
  0.0000000E+00   -8.7750690E-10
  6.0000003E-04   -3.1652200E-10
  1.2000001E-03    2.4446289E-10
  1.8000000E-03    1.0859402E-09
  2.4000001E-03    1.9274176E-09
  3.0000000E-03    3.0493874E-09
  3.5999999E-03    2.1718805E-09
  4.1999999E-03    3.5743428E-09
  4.8000002E-03    2.6968359E-09
  5.4000001E-03    3.8188057E-09
  6.0000001E-03    2.9412988E-09
  6.6000000E-03    3.4480763E-10
  7.1999999E-03   -5.3269927E-10
  7.7999998E-03   -8.4922125E-10
  8.3999997E-03   -8.8525082E-10
  8.9999996E-03   -2.9207570E-09
  9.6000005E-03   -6.6752475E-09
  1.0200000E-02   -8.1497689E-09
  1.0800000E-02   -1.1062782E-08
  1.1400000E-02   -1.3695303E-08
  1.2000000E-02   -1.6047331E-08
  1.2600000E-02   -1.9557358E-08
  1.3200000E-02   -2.2506400E-08
  1.3800000E-02   -2.4894460E-08
  1.4400000E-02   -2.6721532E-08
  1.5000000E-02   -2.7707127E-08
  1.5600000E-02   -3.0131215E-08
  1.6200000E-02   -3.3713302E-08
  1.6799999E-02   -3.7453649E-08
  1.7400000E-02   -4.2211749E-08
  1.7999999E-02   -4.8127848E-08
  1.8600000E-02   -5.4921458E-08
  1.9200001E-02   -6.2452322E-08
  1.9800000E-02   -6.9580466E-08
  2.0400001E-02   -7.8165115E-08
  2.1000000E-02   -8.8066031E-08
  2.1600001E-02   -9.9502579E-08
  2.2200000E-02   -1.1269414E-07
  2.2800000E-02   -1.2714085E-07
  2.3399999E-02   -1.4317176E-07
  2.4000000E-02   -1.6066191E-07
  2.4599999E-02   -1.7981542E-07
  2.5200000E-02   -2.0097626E-07
  2.5800001E-02   -2.2441068E-07
  2.6400000E-02   -2.5023635E-07
  2.7000001E-02   -2.7913330E-07
  2.7600000E-02   -3.1100083E-07
  2.8200001E-02   -3.4662835E-07
  2.8800000E-02   -3.8620013E-07
  2.9400000E-02   -4.3058017E-07
  2.9999999E-02   -4.7983013E-07
  3.0600000E-02   -5.3505505E-07
  3.1199999E-02   -5.9576422E-07
  3.1800002E-02   -6.6334565E-07
  3.2400001E-02   -7.3724050E-07
  3.3000000E-02   -8.1782406E-07
  3.3599999E-02   -9.0645369E-07
  3.4200002E-02   -1.0034192E-06
  3.4800000E-02   -1.1090716E-06
  3.5399999E-02   -1.2247092E-06
  3.5999998E-02   -1.3515952E-06
  3.6600001E-02   -1.4889931E-06
  3.7200000E-02   -1.6382015E-06
  3.7799999E-02   -1.8004482E-06
  3.8400002E-02   -1.9769616E-06
  3.9000001E-02   -2.1698993E-06
  3.9600000E-02   -2.3794894E-06
  4.0199999E-02   -2.6067503E-06
  4.0800001E-02   -2.8539794E-06
  4.1400000E-02   -3.1211950E-06
  4.1999999E-02   -3.4104144E-06
  4.2599998E-02   -3.7225855E-06
  4.3200001E-02   -4.0607956E-06
  4.3800000E-02   -4.4259218E-06
  4.4399999E-02   -4.8189122E-06
  4.5000002E-02   -5.2416440E-06
  4.5600001E-02   -5.6949943E-06
  4.6200000E-02   -6.1819810E-06
  4.6799999E-02   -6.7027618E-06
  4.7400001E-02   -7.2609332E-06
  4.8000000E-02   -7.8579333E-06
  4.8599999E-02   -8.4943595E-06
  4.9199998E-02   -9.1737902E-06
  4.9800001E-02   -9.8973833E-06
  5.0400000E-02   -1.0668155E-05
  5.0999999E-02   -1.1488265E-05
  5.1600002E-02   -1.2359151E-05
  5.2200001E-02   -1.3282250E-05
  5.2800000E-02   -1.4260002E-05
  5.3399999E-02   -1.5293845E-05
  5.4000001E-02   -1.6384498E-05
  5.4600000E-02   -1.7534680E-05
  5.5199999E-02   -1.8745110E-05
  5.5799998E-02   -2.0017857E-05
  5.6400001E-02   -2.1352991E-05
  5.7000000E-02   -2.2752865E-05
  5.7599999E-02   -2.4218398E-05
  5.8200002E-02   -2.5750360E-05
  5.8800001E-02   -2.7349162E-05
  5.9400000E-02   -2.9015790E-05
  5.9999999E-02   -3.0749714E-05
  6.0600001E-02   -3.2552045E-05
  6.1200000E-02   -3.4421682E-05
  6.1799999E-02   -3.6358295E-05
  6.2399998E-02   -3.8360202E-05
  6.3000001E-02   -4.0426570E-05
  6.3600004E-02   -4.2555410E-05
  6.4199999E-02   -4.4744454E-05
  6.4800002E-02   -4.6990710E-05
  6.5399997E-02   -4.9290960E-05
  6.6000000E-02   -5.1640851E-05
  6.6600002E-02   -5.4035980E-05
  6.7199998E-02   -5.6471119E-05
  6.7800000E-02   -5.8940997E-05
  6.8400003E-02   -6.1439088E-05
  6.8999998E-02   -6.3958440E-05
  6.9600001E-02   -6.6491899E-05
  7.0200004E-02   -6.9030924E-05
  7.0799999E-02   -7.1566945E-05
  7.1400002E-02   -7.4090538E-05
  7.1999997E-02   -7.6591328E-05
  7.2600000E-02   -7.9058969E-05
  7.3200002E-02   -8.1482081E-05
  7.3799998E-02   -8.3848761E-05
  7.4400000E-02   -8.6146894E-05
  7.5000003E-02   -8.8363435E-05
  7.5599998E-02   -9.0485104E-05
  7.6200001E-02   -9.2498049E-05
  7.6800004E-02   -9.4387753E-05
  7.7399999E-02   -9.6139527E-05
  7.8000002E-02   -9.7738419E-05
  7.8599997E-02   -9.9168734E-05
  7.9200000E-02   -1.0041497E-04
  7.9800002E-02   -1.0146108E-04
  8.0399998E-02   -1.0229088E-04
  8.1000000E-02   -1.0288832E-04
  8.1600003E-02   -1.0323688E-04
  8.2199998E-02   -1.0332031E-04
  8.2800001E-02   -1.0312242E-04
  8.3400004E-02   -1.0262714E-04
  8.3999999E-02   -1.0181869E-04
  8.4600002E-02   -1.0068154E-04
  8.5199997E-02   -9.9200690E-05
  8.5800000E-02   -9.7361641E-05
  8.6400002E-02   -9.5150492E-05
  8.6999997E-02   -9.2554248E-05
  8.7600000E-02   -8.9560708E-05
  8.8200003E-02   -8.6158732E-05
  8.8799998E-02   -8.2338367E-05
  8.9400001E-02   -7.8091078E-05
  9.0000004E-02   -7.3409683E-05
  9.0599999E-02   -6.8288726E-05
  9.1200002E-02   -6.2724386E-05
  9.1799997E-02   -5.6714707E-05
  9.2399999E-02   -5.0259765E-05
  9.3000002E-02   -4.3361608E-05
  9.3599997E-02   -3.6024281E-05
  9.4200000E-02   -2.8254100E-05
  9.4800003E-02   -2.0059504E-05
  9.5399998E-02   -1.1451103E-05
  9.6000001E-02   -2.4417441E-06
  9.6600004E-02    6.9535167E-06
  9.7199999E-02    1.6717493E-05
  9.7800002E-02    2.6830805E-05
  9.8399997E-02    3.7271915E-05
  9.8999999E-02    4.8017180E-05
  9.9600002E-02    5.9040845E-05
  0.1002000        7.0315189E-05
  0.1008000        8.1810380E-05
  0.1014000        9.3494687E-05
  0.1020000        1.0533449E-04
  0.1026000        1.1729431E-04
  0.1032000        1.2933691E-04
  0.1038000        1.4142350E-04
  0.1044000        1.5351361E-04
  0.1050000        1.6556549E-04
  0.1056000        1.7753607E-04
  0.1062000        1.8938117E-04
  0.1068000        2.0105568E-04
  0.1074000        2.1251374E-04
  0.1080000        2.2370894E-04
  0.1086000        2.3459452E-04
  0.1092000        2.4512358E-04
  0.1098000        2.5524938E-04
  0.1104000        2.6492545E-04
  0.1110000        2.7410590E-04
  0.1116000        2.8274587E-04
  0.1122000        2.9080143E-04
  0.1128000        2.9823015E-04
  0.1134000        3.0499123E-04
  0.1140000        3.1104585E-04
  0.1146000        3.1635739E-04
  0.1152000        3.2089173E-04
  0.1158000        3.2461758E-04
  0.1164000        3.2750642E-04
  0.1170000        3.2953307E-04
  0.1176000        3.3067568E-04
  0.1182000        3.3091594E-04
  0.1188000        3.3023913E-04
  0.1194000        3.2863437E-04
  0.1200000        3.2609454E-04
  0.1206000        3.2261640E-04
  0.1212000        3.1820062E-04
  0.1218000        3.1285168E-04
  0.1224000        3.0657803E-04
  0.1230000        2.9939186E-04
  0.1236000        2.9130909E-04
  0.1242000        2.8234939E-04
  0.1248000        2.7253610E-04
  0.1254000        2.6189600E-04
  0.1260000        2.5045947E-04
  0.1266000        2.3826015E-04
  0.1272000        2.2533500E-04
  0.1278000        2.1172401E-04
  0.1284000        1.9747039E-04
  0.1290000        1.8262006E-04
  0.1296000        1.6722183E-04
  0.1302000        1.5132704E-04
  0.1308000        1.3498927E-04
  0.1314000        1.1826447E-04
  0.1320000        1.0121037E-04
  0.1326000        8.3886400E-05
  0.1332000        6.6353365E-05
  0.1338000        4.8673202E-05
  0.1344000        3.0908548E-05
  0.1350000        1.3122561E-05
  0.1356000       -4.6216592E-06
  0.1362000       -2.2261127E-05
  0.1368000       -3.9733601E-05
  0.1374000       -5.6977773E-05
  0.1380000       -7.3933646E-05
  0.1386000       -9.0542882E-05
  0.1392000       -1.0674918E-04
  0.1398000       -1.2249846E-04
  0.1404000       -1.3773917E-04
  0.1410000       -1.5242264E-04
  0.1416000       -1.6650317E-04
  0.1422000       -1.7993839E-04
  0.1428000       -1.9268926E-04
  0.1434000       -2.0472036E-04
  0.1440000       -2.1599993E-04
  0.1446000       -2.2649991E-04
  0.1452000       -2.3619612E-04
  0.1458000       -2.4506813E-04
  0.1464000       -2.5309948E-04
  0.1470000       -2.6027733E-04
  0.1476000       -2.6659269E-04
  0.1482000       -2.7204031E-04
  0.1488000       -2.7661843E-04
  0.1494000       -2.8032882E-04
  0.1500000       -2.8317663E-04
  0.1506000       -2.8517033E-04
  0.1512000       -2.8632148E-04
  0.1518000       -2.8664467E-04
  0.1524000       -2.8615739E-04
  0.1530000       -2.8487976E-04
  0.1536000       -2.8283460E-04
  0.1542000       -2.8004721E-04
  0.1548000       -2.7654524E-04
  0.1554000       -2.7235845E-04
  0.1560000       -2.6751868E-04
  0.1566000       -2.6205974E-04
  0.1572000       -2.5601717E-04
  0.1578000       -2.4942806E-04
  0.1584000       -2.4233098E-04
  0.1590000       -2.3476563E-04
  0.1596000       -2.2677281E-04
  0.1602000       -2.1839405E-04
  0.1608000       -2.0967152E-04
  0.1614000       -2.0064769E-04
  0.1620000       -1.9136514E-04
  0.1626000       -1.8186631E-04
  0.1632000       -1.7219331E-04
  0.1638000       -1.6238753E-04
  0.1644000       -1.5248959E-04
  0.1650000       -1.4253904E-04
  0.1656000       -1.3257413E-04
  0.1662000       -1.2263173E-04
  0.1668000       -1.1274707E-04
  0.1674000       -1.0295363E-04
  0.1680000       -9.3283052E-05
  0.1686000       -8.3764979E-05
  0.1692000       -7.4427000E-05
  0.1698000       -6.5294596E-05
  0.1704000       -5.6391116E-05
  0.1710000       -4.7737696E-05
  0.1716000       -3.9353316E-05
  0.1722000       -3.1254793E-05
  0.1728000       -2.3456852E-05
  0.1734000       -1.5972082E-05
  0.1740000       -8.8110946E-06
  0.1746000       -1.9825502E-06
  0.1752000        4.5067763E-06
  0.1758000        1.0651827E-05
  0.1764000        1.6449270E-05
  0.1770000        2.1897313E-05
  0.1776000        2.6995638E-05
  0.1782000        3.1745283E-05
  0.1788000        3.6148584E-05
  0.1794000        4.0209023E-05
  0.1800000        4.3931148E-05
  0.1806000        4.7320515E-05
  0.1812000        5.0383569E-05
  0.1818000        5.3127598E-05
  0.1824000        5.5560653E-05
  0.1830000        5.7691450E-05
  0.1836000        5.9529400E-05
  0.1842000        6.1084465E-05
  0.1848000        6.2367144E-05
  0.1854000        6.3388441E-05
  0.1860000        6.4159816E-05
  0.1866000        6.4693115E-05
  0.1872000        6.5000509E-05
  0.1878000        6.5094493E-05
  0.1884000        6.4987747E-05
  0.1890000        6.4693173E-05
  0.1896000        6.4223736E-05
  0.1902000        6.3592452E-05
  0.1908000        6.2812302E-05
  0.1914000        6.1896179E-05
  0.1920000        6.0856779E-05
  0.1926000        5.9706625E-05
  0.1932000        5.8457892E-05
  0.1938000        5.7122466E-05
  0.1944000        5.5711807E-05
  0.1950000        5.4236949E-05
  0.1956000        5.2708470E-05
  0.1962000        5.1136427E-05
  0.1968000        4.9530339E-05
  0.1974000        4.7899171E-05
  0.1980000        4.6251305E-05
  0.1986000        4.4594515E-05
  0.1992000        4.2935968E-05
  0.1998000        4.1282234E-05
  0.2004000        3.9639232E-05
  0.2010000        3.8012280E-05
  0.2016000        3.6406102E-05
  0.2022000        3.4824814E-05
  0.2028000        3.3271972E-05
  0.2034000        3.1750580E-05
  0.2040000        3.0263138E-05
  0.2046000        2.8811688E-05
  0.2052000        2.7397848E-05
  0.2058000        2.6022848E-05
  0.2064000        2.4687604E-05
  0.2070000        2.3392769E-05
  0.2076000        2.2138771E-05
  0.2082000        2.0925867E-05
  0.2088000        1.9754199E-05
  0.2094000        1.8623809E-05
  0.2100000        1.7534692E-05
  0.2106000        1.6486802E-05
  0.2112000        1.5480065E-05
  0.2118000        1.4514399E-05
  0.2124000        1.3589689E-05
  0.2130000        1.2705792E-05
  0.2136000        1.1862524E-05
  0.2142000        1.1059644E-05
  0.2148000        1.0296836E-05
  0.2154000        9.5737014E-06
  0.2160000        8.8897468E-06
  0.2166000        8.2443703E-06
  0.2172000        7.6368615E-06
  0.2178000        7.0663987E-06
  0.2184000        6.5320455E-06
  0.2190000        6.0327543E-06
  0.2196000        5.5673704E-06
  0.2202000        5.1346365E-06
  0.2208000        4.7331969E-06
  0.2214000        4.3616028E-06
  0.2220000        4.0183213E-06
  0.2226000        3.7017435E-06
  0.2232000        3.4101986E-06
  0.2238000        3.1419668E-06
  0.2244000        2.8952975E-06
  0.2250000        2.6684324E-06
  0.2256000        2.4596238E-06
  0.2262000        2.2671670E-06
  0.2268000        2.0894242E-06
  0.2274000        1.9248523E-06
  0.2280000        1.7720301E-06
  0.2286000        1.6296805E-06
  0.2292000        1.4966889E-06
  0.2298000        1.3721152E-06
  0.2304000        1.2552001E-06
  0.2310000        1.1453625E-06
  0.2316000        1.0421871E-06
  0.2322000        9.4540917E-07
  0.2328000        8.5488750E-07
  0.2334000        7.7057450E-07
  0.2340000        6.9248267E-07
  0.2346000        6.2065021E-07
  0.2352000        5.5510827E-07
  0.2358000        4.9585071E-07
  0.2364000        4.4281296E-07
  0.2370000        3.9585311E-07
  0.2376000        3.5474585E-07
  0.2382000        3.1918174E-07
  0.2388000        2.8877793E-07
  0.2394000        2.6309010E-07
  0.2400000        2.4163407E-07
  0.2406000        2.2390708E-07
  0.2412000        2.0941087E-07
  0.2418000        1.9767083E-07
  0.2424000        1.8825364E-07
  0.2430000        1.8078039E-07
  0.2436000        1.7493390E-07
  0.2442000        1.7045804E-07
  0.2448000        1.6715815E-07
  0.2454000        1.6489092E-07
  0.2460000        1.6355587E-07
  0.2466000        1.6308339E-07
  0.2472000        1.6342375E-07
  0.2478000        1.6453269E-07
  0.2484000        1.6636314E-07
  0.2490000        1.6885471E-07
  0.2496000        1.7192897E-07
  0.2502000        1.7548204E-07
  0.2508000        1.7938319E-07
  0.2514000        1.8347454E-07
  0.2520000        1.8757166E-07
  0.2526000        1.9146782E-07
  0.2532000        1.9493918E-07
  0.2538000        1.9775250E-07
  0.2544000        1.9967418E-07
  0.2550000        2.0047975E-07
  0.2556000        1.9996550E-07
  0.2562000        1.9795904E-07
  0.2568000        1.9433065E-07
  0.2574000        1.8900194E-07
  0.2580000        1.8195344E-07
  0.2586000        1.7323019E-07
  0.2592000        1.6294361E-07
  0.2598000        1.5127100E-07
  0.2604000        1.3845056E-07
  0.2610000        1.2477501E-07
  0.2616000        1.1058048E-07
  0.2622000        9.6233670E-08
  0.2628000        8.2116365E-08
  0.2634000        6.8608607E-08
  0.2640000        5.6070814E-08
  0.2646000        4.4825132E-08
  0.2652000        3.5137894E-08
  0.2658000        2.7203576E-08
  0.2664000        2.1130489E-08
  0.2670000        1.6931057E-08
  0.2676000        1.4515609E-08
  0.2682000        1.3691786E-08
  0.2688000        1.4169532E-08
  0.2694000        1.5572189E-08
  0.2700000        1.7453624E-08
  0.2706000        1.9320462E-08
  0.2712000        2.0659021E-08
  0.2718000        2.0965013E-08
  0.2724000        1.9774834E-08
  0.2730000        1.6695946E-08
  0.2736000        1.1435163E-08
  0.2742000        3.8220320E-09
  0.2748000       -6.1739782E-09
  0.2754000       -1.8434028E-08
  0.2760000       -3.2689293E-08
  0.2766000       -4.8528914E-08
  0.2772000       -6.5418241E-08
  0.2778000       -8.2724299E-08
  0.2784000       -9.9748988E-08
  0.2790000       -1.1576596E-07
  0.2796000       -1.3006216E-07
  0.2802000       -1.4197711E-07
  0.2808000       -1.5094075E-07
  0.2814000       -1.5650491E-07
  0.2820000       -1.5836741E-07
  0.2826000       -1.5638604E-07
  0.2832000       -1.5058158E-07
  0.2838000       -1.4112985E-07
  0.2844000       -1.2834350E-07
  0.2850000       -1.1264647E-07
  0.2856000       -9.4539736E-08
  0.2862000       -7.4566408E-08
  0.2868000       -5.3275411E-08
  0.2874000       -3.1189270E-08
  0.2880000       -8.7762082E-09
  0.2886000        1.3567528E-08
  0.2892000        3.5528910E-08
  0.2898000        5.6879049E-08
  0.2904000        7.7467426E-08
  0.2910000        9.7208009E-08
  0.2916000        1.1606407E-07
  0.2922000        1.3402912E-07
  0.2928000        1.5111199E-07
  0.2934000        1.6732272E-07
  0.2940000        1.8266346E-07
  0.2946000        1.9712576E-07
  0.2952000        2.1069185E-07
  0.2958000        2.2333950E-07
  0.2964000        2.3504992E-07
  0.2970000        2.4581510E-07
  0.2976000        2.5564512E-07
  0.2982000        2.6457175E-07
  0.2988000        2.7264807E-07
  0.2994000        2.7994287E-07
  0.3000000        2.8653344E-07
  0.3006000        2.9249262E-07
  0.3012000        2.9787606E-07
  0.3018000        3.0270874E-07
  0.3024000        3.0697387E-07
  0.3030000        3.1060478E-07
  0.3036000        3.1348273E-07
  0.3042000        3.1543851E-07
  0.3048000        3.1626149E-07
  0.3054000        3.1571221E-07
  0.3060000        3.1353932E-07
  0.3066000        3.0949857E-07
  0.3072000        3.0337202E-07
  0.3078000        2.9498571E-07
  0.3084000        2.8422372E-07
  0.3090000        2.7103749E-07
  0.3096000        2.5544935E-07
  0.3102000        2.3755007E-07
  0.3108000        2.1749065E-07
  0.3114000        1.9546984E-07
  0.3120000        1.7171818E-07
  0.3126000        1.4648143E-07
  0.3132000        1.2000420E-07
  0.3138000        9.2516864E-08
  0.3144000        6.4226747E-08
  0.3150000        3.5314294E-08
  0.3156000        5.9350707E-09
  0.3162000       -2.3772730E-08
  0.3168000       -5.3677113E-08
  0.3174000       -8.3638433E-08
  0.3180000       -1.1349554E-07
  0.3186000       -1.4305321E-07
  0.3192000       -1.7207384E-07
  0.3198000       -2.0027427E-07
  0.3204000       -2.2732885E-07
  0.3210000       -2.5287898E-07
  0.3216000       -2.7654792E-07
  0.3222000       -2.9795984E-07
  0.3228000       -3.1676089E-07
  0.3234000       -3.3263979E-07
  0.3240000       -3.4534597E-07
  0.3246000       -3.5470296E-07
  0.3252000       -3.6061513E-07
  0.3258000       -3.6306756E-07
  0.3264000       -3.6211898E-07
  0.3270000       -3.5788835E-07
  0.3276000       -3.5053668E-07
  0.3282000       -3.4024708E-07
  0.3288000       -3.2720402E-07
  0.3294000       -3.1157541E-07
  0.3300000       -2.9349908E-07
  0.3306000       -2.7307595E-07
  0.3312000       -2.5036979E-07
  0.3318000       -2.2541469E-07
  0.3324000       -1.9822808E-07
  0.3330000       -1.6883112E-07
  0.3336000       -1.3726940E-07
  0.3342000       -1.0363652E-07
  0.3348000       -6.8093811E-08
  0.3354000       -3.0885655E-08
  0.3360000        7.6506641E-09
  0.3366000        4.7086370E-08
  0.3372000        8.6908400E-08
  0.3378000        1.2653847E-07
  0.3384000        1.6535878E-07
  0.3390000        2.0274391E-07
  0.3396000        2.3809515E-07
  0.3402000        2.7087614E-07
  0.3408000        3.0064447E-07
  0.3414000        3.2707695E-07
  0.3420000        3.4998612E-07
  0.3426000        3.6932639E-07
  0.3432000        3.8518886E-07
  0.3438000        3.9778485E-07
  0.3444000        4.0742083E-07
  0.3450000        4.1446629E-07
  0.3456000        4.1931733E-07
  0.3462000        4.2236036E-07
  0.3468000        4.2393890E-07
  0.3474000        4.2432532E-07
  0.3480000        4.2370149E-07
  0.3486000        4.2214822E-07
  0.3492000        4.1964458E-07
  0.3498000        4.1607575E-07
  0.3504000        4.1124864E-07
  0.3510000        4.0491275E-07
  0.3516000        3.9678403E-07
  0.3522000        3.8656970E-07
  0.3528000        3.7399127E-07
  0.3534000        3.5880498E-07
  0.3540000        3.4081813E-07
  0.3546000        3.1990061E-07
  0.3552000        2.9599218E-07
  0.3558000        2.6910556E-07
  0.3564000        2.3932637E-07
  0.3570000        2.0681020E-07
  0.3576000        1.7177817E-07
  0.3582000        1.3451127E-07
  0.3588000        9.5343864E-08
  0.3594000        5.4656564E-08
  0.3600000        1.2869243E-08
  0.3606000       -2.9567337E-08
  0.3612000       -7.2180292E-08
  0.3618000       -1.1448370E-07
  0.3624000       -1.5598913E-07
  0.3630000       -1.9621645E-07
  0.3636000       -2.3470503E-07
  0.3642000       -2.7102487E-07
  0.3648000       -3.0478753E-07
  0.3654000       -3.3565453E-07
  0.3660000       -3.6334558E-07
  0.3666000       -3.8764284E-07
  0.3672000       -4.0839288E-07
  0.3678000       -4.2550499E-07
  0.3684000       -4.3894659E-07
  0.3690000       -4.4873482E-07
  0.3696000       -4.5492610E-07
  0.3702000       -4.5760336E-07
  0.3708000       -4.5686292E-07
  0.3714000       -4.5280126E-07
  0.3720000       -4.4550387E-07
  0.3726000       -4.3503704E-07
  0.3732000       -4.2144285E-07
  0.3738000       -4.0473981E-07
  0.3744000       -3.8492749E-07
  0.3750000       -3.6199546E-07
  0.3756000       -3.3593747E-07
  0.3762000       -3.0676716E-07
  0.3768000       -2.7453547E-07
  0.3774000       -2.3934780E-07
  0.3780000       -2.0137912E-07
  0.3786000       -1.6088495E-07
  0.3792000       -1.1820810E-07
  0.3798000       -7.3779169E-08
  0.3804000       -2.8111133E-08
  0.3810000        1.8212225E-08
  0.3816000        6.4553653E-08
  0.3822000        1.1024415E-07
  0.3828000        1.5460783E-07
  0.3834000        1.9698879E-07
  0.3840000        2.3677811E-07
  0.3846000        2.7343930E-07
  0.3852000        3.0653069E-07
  0.3858000        3.3572314E-07
  0.3864000        3.6081173E-07
  0.3870000        3.8172129E-07
  0.3876000        3.9850394E-07
  0.3882000        4.1132895E-07
  0.3888000        4.2046648E-07
  0.3894000        4.2626394E-07
  0.3900000        4.2911824E-07
  0.3906000        4.2944538E-07
  0.3912000        4.2764955E-07
  0.3918000        4.2409397E-07
  0.3924000        4.1907674E-07
  0.3930000        4.1281248E-07
  0.3936000        4.0542287E-07
  0.3942000        3.9693552E-07
  0.3948000        3.8729203E-07
  0.3954000        3.7636360E-07
  0.3960000        3.6397267E-07
  0.3966000        3.4991854E-07
  0.3972000        3.3400369E-07
  0.3978000        3.1605859E-07
  0.3984000        2.9596220E-07
  0.3990000        2.7365672E-07
  0.3996000        2.4915531E-07
  0.4002000        2.2254243E-07
  0.4008000        1.9396843E-07
  0.4014000        1.6363835E-07
  0.4020000        1.3179803E-07
  0.4026000        9.8719035E-08
  0.4032000        6.4684549E-08
  0.4038000        2.9977542E-08
  0.4044000       -5.1267004E-09
  0.4050000       -4.0364952E-08
  0.4056000       -7.5485403E-08
  0.4062000       -1.1024399E-07
  0.4068000       -1.4439901E-07
  0.4074000       -1.7770458E-07
  0.4080000       -2.0990421E-07
  0.4086000       -2.4072662E-07
  0.4092000       -2.6988448E-07
  0.4098000       -2.9707570E-07
  0.4104000       -3.2198815E-07
  0.4110000       -3.4430818E-07
  0.4116000       -3.6373078E-07
  0.4122000       -3.7997202E-07
  0.4128000       -3.9278169E-07
  0.4134000       -4.0195530E-07
  0.4140000       -4.0734471E-07
  0.4146000       -4.0886613E-07
  0.4152000       -4.0650482E-07
  0.4158000       -4.0031597E-07
  0.4164000       -3.9042175E-07
  0.4170000       -3.7700477E-07
  0.4176000       -3.6029823E-07
  0.4182000       -3.4057399E-07
  0.4188000       -3.1812934E-07
  0.4194000       -2.9327398E-07
  0.4200000       -2.6631795E-07
  0.4206000       -2.3756253E-07
  0.4212000       -2.0729377E-07
  0.4218000       -1.7577982E-07
  0.4224000       -1.4327203E-07
  0.4230000       -1.1000925E-07
  0.4236000       -7.6223834E-08
  0.4242000       -4.2149257E-08
  0.4248000       -8.0274667E-09