 -0.1200000        0.0000000E+00
 -0.1194000        2.4438166E-16
 -0.1188000        7.5770311E-16
 -0.1182000        1.5584130E-15
 -0.1176000        2.6587881E-15
 -0.1170000        4.0652334E-15
 -0.1164000        5.7789361E-15
 -0.1158000        7.7968417E-15
 -0.1152000        1.0112918E-14
 -0.1146000        1.2719637E-14
 -0.1140000        1.5609638E-14
 -0.1134000        1.8777467E-14
 -0.1128000        2.2221347E-14
 -0.1122000        2.5944911E-14
 -0.1116000        2.9958824E-14
 -0.1110000        3.4282239E-14
 -0.1104000        3.8944085E-14
 -0.1098000        4.3984100E-14
 -0.1092000        4.9453656E-14
 -0.1086000        5.5416348E-14
 -0.1080000        6.1948371E-14
 -0.1074000        6.9138712E-14
 -0.1068000        7.7089234E-14
 -0.1062000        8.5914579E-14
 -0.1056000        9.5742113E-14
 -0.1050000        1.0671181E-13
 -0.1044000        1.1897621E-13
 -0.1038000        1.3270044E-13
 -0.1032000        1.4806240E-13
 -0.1026000        1.6525309E-13
 -0.1020000        1.8447718E-13
 -0.1014000        2.0595368E-13
 -0.1008000        2.2991697E-13
 -0.1002000        2.5661808E-13
 -9.9600002E-02    2.8632598E-13
 -9.8999999E-02    3.1932942E-13
 -9.8399997E-02    3.5593886E-13
 -9.7800002E-02    3.9648842E-13
 -9.7199999E-02    4.4133845E-13
 -9.6600004E-02    4.9087774E-13
 -9.6000001E-02    5.4552630E-13
 -9.5399998E-02    6.0573806E-13
 -9.4800003E-02    6.7200352E-13
 -9.4200000E-02    7.4485264E-13
 -9.3599997E-02    8.2485749E-13
 -9.3000002E-02    9.1263520E-13
 -9.2399999E-02    1.0088506E-12
 -9.1799997E-02    1.1142186E-12
 -9.1200002E-02    1.2295073E-12
 -9.0599999E-02    1.3555396E-12
 -9.0000004E-02    1.4931964E-12
 -8.9400001E-02    1.6434184E-12
 -8.8799998E-02    1.8072085E-12
 -8.8200003E-02    1.9856337E-12
 -8.7600000E-02    2.1798277E-12
 -8.6999997E-02    2.3909928E-12
 -8.6400002E-02    2.6204019E-12
 -8.5800000E-02    2.8694002E-12
 -8.5199997E-02    3.1394082E-12
 -8.4600002E-02    3.4319223E-12
 -8.3999999E-02    3.7485171E-12
 -8.3400004E-02    4.0908483E-12
 -8.2800001E-02    4.4606506E-12
 -8.2199998E-02    4.8597428E-12
 -8.1600003E-02    5.2900258E-12
 -8.1000000E-02    5.7534836E-12
 -8.0399998E-02    6.2521828E-12
 -7.9800002E-02    6.7882726E-12
 -7.9200000E-02    7.3639818E-12
 -7.8599997E-02    7.9816188E-12
 -7.8000002E-02    8.6435659E-12
 -7.7399999E-02    9.3522794E-12
 -7.6800004E-02    1.0110282E-11
 -7.6200001E-02    1.0920160E-11
 -7.5599998E-02    1.1784553E-11
 -7.5000003E-02    1.2706156E-11
 -7.4400000E-02    1.3687702E-11
 -7.3799998E-02    1.4731957E-11
 -7.3200002E-02    1.5841713E-11
 -7.2600000E-02    1.7019773E-11
 -7.1999997E-02    1.8268944E-11
 -7.1400002E-02    1.9592017E-11
 -7.0799999E-02    2.0991764E-11
 -7.0200004E-02    2.2470911E-11
 -6.9600001E-02    2.4032132E-11
 -6.8999998E-02    2.5678027E-11
 -6.8400003E-02    2.7411101E-11
 -6.7800000E-02    2.9233747E-11
 -6.7199998E-02    3.1148233E-11
 -6.6600002E-02    3.3156665E-11
 -6.6000000E-02    3.5260971E-11
 -6.5399997E-02    3.7462880E-11
 -6.4800002E-02    3.9763897E-11
 -6.4199999E-02    4.2165264E-11
 -6.3600004E-02    4.4667953E-11
 -6.3000001E-02    4.7272620E-11
 -6.2399998E-02    4.9979590E-11
 -6.1799999E-02    5.2788818E-11
 -6.1200000E-02    5.5699865E-11
 -6.0600001E-02    5.8711862E-11
 -5.9999999E-02    6.1823491E-11
 -5.9400000E-02    6.5032937E-11
 -5.8800001E-02    6.8337884E-11
 -5.8200002E-02    7.1735465E-11
 -5.7599999E-02    7.5222231E-11
 -5.7000000E-02    7.8794145E-11
 -5.6400001E-02    8.2446529E-11
 -5.5799998E-02    8.6174047E-11
 -5.5199999E-02    8.9970711E-11
 -5.4600000E-02    9.3829805E-11
 -5.4000001E-02    9.7743910E-11
 -5.3399999E-02    1.0170487E-10
 -5.2800000E-02    1.0570377E-10
 -5.2200001E-02    1.0973094E-10
 -5.1600002E-02    1.1377596E-10
 -5.0999999E-02    1.1782761E-10
 -5.0400000E-02    1.2187390E-10
 -4.9800001E-02    1.2590209E-10
 -4.9199998E-02    1.2989869E-10
 -4.8599999E-02    1.3384940E-10
 -4.8000000E-02    1.3773929E-10
 -4.7400001E-02    1.4155263E-10
 -4.6799999E-02    1.4527306E-10
 -4.6200000E-02    1.4888357E-10
 -4.5600001E-02    1.5236655E-10
 -4.5000002E-02    1.5570381E-10
 -4.4399999E-02    1.5887666E-10
 -4.3800000E-02    1.6186597E-10
 -4.3200001E-02    1.6465217E-10
 -4.2599998E-02    1.6721541E-10
 -4.1999999E-02    1.6953555E-10
 -4.1400000E-02    1.7159232E-10
 -4.0800001E-02    1.7336531E-10
 -4.0199999E-02    1.7483412E-10
 -3.9600000E-02    1.7597845E-10
 -3.9000001E-02    1.7677819E-10
 -3.8400002E-02    1.7721349E-10
 -3.7799999E-02    1.7726495E-10
 -3.7200000E-02    1.7691362E-10
 -3.6600001E-02    1.7614120E-10
 -3.5999998E-02    1.7493008E-10
 -3.5399999E-02    1.7326357E-10
 -3.4800000E-02    1.7112586E-10
 -3.4200002E-02    1.6850230E-10
 -3.3599999E-02    1.6537935E-10
 -3.3000000E-02    1.6174485E-10
 -3.2400001E-02    1.5758805E-10
 -3.1800002E-02    1.5289972E-10
 -3.1199999E-02    1.4767226E-10
 -3.0600000E-02    1.4189988E-10
 -2.9999999E-02    1.3557855E-10
 -2.9400000E-02    1.2870623E-10
 -2.8800000E-02    1.2128289E-10
 -2.8200001E-02    1.1331057E-10
 -2.7600000E-02    1.0479353E-10
 -2.7000001E-02    9.5738216E-11
 -2.6400000E-02    8.6153369E-11
 -2.5800001E-02    7.6050041E-11
 -2.5200000E-02    6.5441638E-11
 -2.4599999E-02    5.4343929E-11
 -2.4000000E-02    4.2775061E-11
 -2.3399999E-02    3.0755544E-11
 -2.2800000E-02    1.8308226E-11
 -2.2200000E-02    5.4582792E-12
 -2.1600001E-02   -7.7668618E-12
 -2.1000000E-02   -2.1337553E-11
 -2.0400001E-02   -3.5222020E-11
 -1.9800000E-02   -4.9386429E-11
 -1.9200001E-02   -6.3795004E-11
 -1.8600000E-02   -7.8410139E-11
 -1.7999999E-02   -9.3192502E-11
 -1.7400000E-02   -1.0810119E-10
 -1.6799999E-02   -1.2309390E-10
 -1.6200000E-02   -1.3812702E-10
 -1.5600000E-02   -1.5315589E-10
 -1.5000000E-02   -1.6813491E-10
 -1.4400000E-02   -1.8301777E-10
 -1.3800000E-02   -1.9775764E-10
 -1.3200000E-02   -2.1230734E-10
 -1.2600000E-02   -2.2661961E-10
 -1.2000000E-02   -2.4064728E-10
 -1.1400000E-02   -2.5434349E-10
 -1.0800000E-02   -2.6766192E-10
 -1.0200000E-02   -2.8055702E-10
 -9.6000005E-03   -2.9298416E-10
 -8.9999996E-03   -3.0489999E-10
 -8.3999997E-03   -3.1626252E-10
 -7.7999998E-03   -3.2703132E-10
 -7.1999999E-03   -3.3716785E-10
 -6.6000000E-03   -3.4663553E-10
 -6.0000001E-03   -3.5539999E-10
 -5.4000001E-03   -3.6342923E-10
 -4.8000002E-03   -3.7069375E-10
 -4.1999999E-03   -3.7716680E-10
 -3.5999999E-03   -3.8282438E-10
 -3.0000000E-03   -3.8764553E-10
 -2.4000001E-03   -3.9161219E-10
 -1.8000000E-03   -3.9470965E-10
 -1.2000001E-03   -3.9692627E-10
 -6.0000003E-04   -3.9825379E-10
  0.0000000E+00   -3.9868728E-10
  6.0000003E-04   -3.9822509E-10
  1.2000001E-03   -3.9686907E-10
  1.8000000E-03   -3.9462433E-10
  2.4000001E-03   -3.9149936E-10
  3.0000000E-03   -3.8750589E-10
  3.5999999E-03   -3.8265896E-10
  4.1999999E-03   -3.7697664E-10
  4.8000002E-03   -3.7048017E-10
  5.4000001E-03   -3.6319367E-10
  6.0000001E-03   -3.5514405E-10
  6.6000000E-03   -3.4636094E-10
  7.1999999E-03   -3.3687647E-10
  7.7999998E-03   -3.2672512E-10
  8.3999997E-03   -3.1594358E-10
  8.9999996E-03   -3.0457045E-10
  9.6000005E-03   -2.9264624E-10
  1.0200000E-02   -2.8021299E-10
  1.0800000E-02   -2.6731409E-10
  1.1400000E-02   -2.5399416E-10
  1.2000000E-02   -2.4029878E-10
  1.2600000E-02   -2.2627421E-10
  1.3200000E-02   -2.1196729E-10
  1.3800000E-02   -1.9742515E-10
  1.4400000E-02   -1.8269497E-10
  1.5000000E-02   -1.6782382E-10
  1.5600000E-02   -1.5285846E-10
  1.6200000E-02   -1.3784507E-10
  1.6799999E-02   -1.2282911E-10
  1.7400000E-02   -1.0785512E-10
  1.7999999E-02   -9.2966537E-11
  1.8600000E-02   -7.8205518E-11
  1.9200001E-02   -6.3612789E-11
  1.9800000E-02   -4.9227497E-11
  2.0400001E-02   -3.5087079E-11
  2.1000000E-02   -2.1227117E-11
  2.1600001E-02   -7.6812549E-12
  2.2200000E-02    5.5189200E-12
  2.2800000E-02    1.8343953E-11
  2.3399999E-02    3.0766598E-11
  2.4000000E-02    4.2761867E-11
  2.4599999E-02    5.4307087E-11
  2.5200000E-02    6.5381915E-11
  2.5800001E-02    7.5968370E-11
  2.6400000E-02    8.6050833E-11
  2.7000001E-02    9.5616043E-11
  2.7600000E-02    1.0465308E-10
  2.8200001E-02    1.1315330E-10
  2.8800000E-02    1.2111036E-10
  2.9400000E-02    1.2852011E-10
  2.9999999E-02    1.3538055E-10
  3.0600000E-02    1.4169177E-10
  3.1199999E-02    1.4745587E-10
  3.1800002E-02    1.5267686E-10
  3.2400001E-02    1.5736054E-10
  3.3000000E-02    1.6151452E-10
  3.3599999E-02    1.6514796E-10
  3.4200002E-02    1.6827159E-10
  3.4800000E-02    1.7089753E-10
  3.5399999E-02    1.7303918E-10
  3.5999998E-02    1.7471115E-10
  3.6600001E-02    1.7592910E-10
  3.7200000E-02    1.7670967E-10
  3.7799999E-02    1.7707032E-10
  3.8400002E-02    1.7702922E-10
  3.9000001E-02    1.7660519E-10
  3.9600000E-02    1.7581750E-10
  4.0199999E-02    1.7468585E-10
  4.0800001E-02    1.7323022E-10
  4.1400000E-02    1.7147078E-10
  4.1999999E-02    1.6942781E-10
  4.2599998E-02    1.6712154E-10
  4.3200001E-02    1.6457216E-10
  4.3800000E-02    1.6179968E-10
  4.4399999E-02    1.5882386E-10
  4.5000002E-02    1.5566413E-10
  4.5600001E-02    1.5233954E-10
  4.6200000E-02    1.4886872E-10
  4.6799999E-02    1.4526977E-10
  4.7400001E-02    1.4156024E-10
  4.8000000E-02    1.3775708E-10
  4.8599999E-02    1.3387663E-10
  4.9199998E-02    1.2993454E-10
  4.9800001E-02    1.2594577E-10
  5.0400000E-02    1.2192455E-10
  5.0999999E-02    1.1788441E-10
  5.1600002E-02    1.1383808E-10
  5.2200001E-02    1.0979757E-10
  5.2800000E-02    1.0577408E-10
  5.3399999E-02    1.0177811E-10
  5.4000001E-02    9.7819336E-11
  5.4600000E-02    9.3906709E-11
  5.5199999E-02    9.0048434E-11
  5.5799998E-02    8.6251978E-11
  5.6400001E-02    8.2524099E-11
  5.7000000E-02    7.8870861E-11
  5.7599999E-02    7.5297629E-11
  5.8200002E-02    7.1809149E-11
  5.8800001E-02    6.8409507E-11
  5.9400000E-02    6.5102201E-11
  5.9999999E-02    6.1890153E-11
  6.0600001E-02    5.8775727E-11
  6.1200000E-02    5.5760781E-11
  6.1799999E-02    5.2846678E-11
  6.2399998E-02    5.0034313E-11
  6.3000001E-02    4.7324162E-11
  6.3600004E-02    4.4716297E-11
  6.4199999E-02    4.2210416E-11
  6.4800002E-02    3.9805884E-11
  6.5399997E-02    3.7501741E-11
  6.6000000E-02    3.5296759E-11
  6.6600002E-02    3.3189441E-11
  6.7199998E-02    3.1178064E-11
  6.7800000E-02    2.9260702E-11
  6.8400003E-02    2.7435245E-11
  6.8999998E-02    2.5699434E-11
  6.9600001E-02    2.4050872E-11
  7.0200004E-02    2.2487049E-11
  7.0799999E-02    2.1005366E-11
  7.1400002E-02    1.9603149E-11
  7.1999997E-02    1.8277668E-11
  7.2600000E-02    1.7026155E-11
  7.3200002E-02    1.5845818E-11
  7.3799998E-02    1.4733856E-11
  7.4400000E-02    1.3687470E-11
  7.5000003E-02    1.2703873E-11
  7.5599998E-02    1.1780307E-11
  7.6200001E-02    1.0914047E-11
  7.6800004E-02    1.0102409E-11
  7.7399999E-02    9.3427635E-12
  7.8000002E-02    8.6325331E-12
  7.8599997E-02    7.9692043E-12
  7.9200000E-02    7.3503313E-12
  7.9800002E-02    6.7735379E-12
  8.0399998E-02    6.2365230E-12
  8.1000000E-02    5.7370614E-12
  8.1600003E-02    5.2730077E-12
  8.2199998E-02    4.8422958E-12
  8.2800001E-02    4.4429404E-12
  8.3400004E-02    4.0730379E-12
  8.3999999E-02    3.7307657E-12
  8.4600002E-02    3.4143816E-12
  8.5199997E-02    3.1222245E-12
  8.5800000E-02    2.8527107E-12
  8.6400002E-02    2.6043354E-12
  8.6999997E-02    2.3756689E-12
  8.7600000E-02    2.1653558E-12
  8.8200003E-02    1.9721128E-12
  8.8799998E-02    1.7947270E-12
  8.9400001E-02    1.6320533E-12
  9.0000004E-02    1.4830123E-12
  9.0599999E-02    1.3465878E-12
  9.1200002E-02    1.2218247E-12
  9.1799997E-02    1.1078268E-12
  9.2399999E-02    1.0037543E-12
  9.3000002E-02    9.0882103E-13
  9.3599997E-02    8.2229297E-13
  9.4200000E-02    7.4348524E-13
  9.4800003E-02    6.7176028E-13
  9.5399998E-02    6.0652552E-13
  9.6000001E-02    5.4723115E-13
  9.6600004E-02    4.9336810E-13
  9.7199999E-02    4.4446586E-13
  9.7800002E-02    4.0009055E-13
  9.8399997E-02    3.5984283E-13
  9.8999999E-02    3.2335587E-13
  9.9600002E-02    2.9029361E-13
  0.1002000        2.6034860E-13
  0.1008000        2.3324027E-13
  0.1014000        2.0871302E-13
  0.1020000        1.8653440E-13
  0.1026000        1.6649328E-13
  0.1032000        1.4839818E-13
  0.1038000        1.3207552E-13
  0.1044000        1.1736793E-13
  0.1050000        1.0413283E-13
  0.1056000        9.2240783E-14
  0.1062000        8.1574219E-14
  0.1068000        7.2026044E-14
  0.1074000        6.3498523E-14
  0.1080000        5.5902128E-14
  0.1086000        4.9154620E-14
  0.1092000        4.3180171E-14
  0.1098000        3.7908624E-14
  0.1104000        3.3274869E-14
  0.1110000        2.9218303E-14
  0.1116000        2.5682400E-14
  0.1122000        2.2614372E-14
  0.1128000        1.9964882E-14
  0.1134000        1.7687835E-14
  0.1140000        1.5740220E-14
  0.1146000        1.4081989E-14
  0.1152000        1.2675955E-14
  0.1158000        1.1487722E-14
  0.1164000        1.0485617E-14
  0.1170000        9.6406249E-15
  0.1176000        8.9263170E-15
  0.1182000        8.3187851E-15
  0.1188000        7.7965588E-15
  0.1194000        7.3405146E-15
  0.1200000        6.9337842E-15
  0.1206000        6.5616563E-15
  0.1212000        6.2114709E-15
  0.1218000        5.8725192E-15
  0.1224000        5.5359422E-15
  0.1230000        5.1946316E-15
  0.1236000        4.8431353E-15
  0.1242000        4.4775665E-15
  0.1248000        4.0955153E-15
  0.1254000        3.6959613E-15
  0.1260000        3.2791856E-15
  0.1266000        2.8466800E-15
  0.1272000        2.4010481E-15
  0.1278000        1.9459009E-15
  0.1284000        1.4857377E-15
  0.1290000        1.0258169E-15
  0.1296000        5.7201098E-16
  0.1302000        1.3064784E-16
  0.1308000       -2.9166238E-16
  0.1314000       -6.8821226E-16
  0.1320000       -1.0523917E-15
  0.1326000       -1.3778885E-15
  0.1332000       -1.6588891E-15
  0.1338000       -1.8902758E-15
  0.1344000       -2.0678124E-15
  0.1350000       -2.1883134E-15
  0.1356000       -2.2497883E-15
  0.1362000       -2.2515576E-15
  0.1368000       -2.1943295E-15
  0.1374000       -2.0802397E-15
  0.1380000       -1.9128435E-15
  0.1386000       -1.6970632E-15
  0.1392000       -1.4390870E-15
  0.1398000       -1.1462228E-15
  0.1404000       -8.2671003E-16
  0.1410000       -4.8949468E-16
  0.1416000       -1.4397424E-16
  0.1422000        2.0027716E-16
  0.1428000        5.3379498E-16
  0.1434000        8.4751009E-16
  0.1440000        1.1330231E-15
  0.1446000        1.3828575E-15
  0.1452000        1.5906798E-15
  0.1458000        1.7514804E-15
  0.1464000        1.8617071E-15
  0.1470000        1.9193457E-15
  0.1476000        1.9239502E-15
  0.1482000        1.8766153E-15
  0.1488000        1.7799008E-15
  0.1494000        1.6377098E-15
  0.1500000        1.4551258E-15
  0.1506000        1.2382186E-15
  0.1512000        9.9382598E-16
  0.1518000        7.2932205E-16
  0.1524000        4.5237870E-16
  0.1530000        1.7072999E-16
  0.1536000       -1.0805272E-16
  0.1542000       -3.7676886E-16
  0.1548000       -6.2877389E-16
  0.1554000       -8.5813766E-16
  0.1560000       -1.0597720E-15
  0.1566000       -1.2295267E-15
  0.1572000       -1.3642504E-15
  0.1578000       -1.4618215E-15
  0.1584000       -1.5211437E-15
  0.1590000       -1.5421145E-15
  0.1596000       -1.5255656E-15
  0.1602000       -1.4731811E-15
  0.1608000       -1.3873969E-15
  0.1614000       -1.2712862E-15
  0.1620000       -1.1284370E-15
  0.1626000       -9.6282489E-16
  0.1632000       -7.7868803E-16
  0.1638000       -5.8040709E-16
  0.1644000       -3.7239502E-16
  0.1650000       -1.5899886E-16
  0.1656000        5.5583222E-17
  0.1662000        2.6736936E-16
  0.1668000        4.7264528E-16
  0.1674000        6.6799983E-16
  0.1680000        8.5034707E-16
  0.1686000        1.0169361E-15
  0.1692000        1.1653528E-15
  0.1698000        1.2935150E-15
  0.1704000        1.3996657E-15
  0.1710000        1.4823673E-15
  0.1716000        1.5404979E-15
  0.1722000        1.5732543E-15
  0.1728000        1.5801612E-15
  0.1734000        1.5610866E-15
  0.1740000        1.5162635E-15
  0.1746000        1.4463159E-15
  0.1752000        1.3522843E-15
  0.1758000        1.2356493E-15
  0.1764000        1.0983480E-15
  0.1770000        9.4277763E-16
  0.1776000        7.7178429E-16
  0.1782000        5.8863326E-16
  0.1788000        3.9695738E-16
  0.1794000        2.0068431E-16
  0.1800000        3.9432639E-18
  0.1806000       -1.8904601E-16
  0.1812000       -3.7409769E-16
  0.1818000       -5.4719181E-16
  0.1824000       -7.0460759E-16
  0.1830000       -8.4304999E-16
  0.1836000       -9.5976403E-16
  0.1842000       -1.0526286E-15
  0.1848000       -1.1202266E-15
  0.1854000       -1.1618855E-15
  0.1860000       -1.1776872E-15
  0.1866000       -1.1684476E-15
  0.1872000       -1.1356657E-15
  0.1878000       -1.0814467E-15
  0.1884000       -1.0084027E-15
  0.1890000       -9.1953791E-16
  0.1896000       -8.1812202E-16
  0.1902000       -7.0756082E-16
  0.1908000       -5.9126807E-16
  0.1914000       -4.7254597E-16
  0.1920000       -3.5447781E-16
  0.1926000       -2.3983836E-16
  0.1932000       -1.3102398E-16
  0.1938000       -3.0005080E-17
  0.1944000        6.1698330E-17
  0.1950000        1.4301823E-16
  0.1956000        2.1331848E-16
  0.1962000        2.7235532E-16
  0.1968000        3.2022131E-16
  0.1974000        3.5727701E-16
  0.1980000        3.8407449E-16
  0.1986000        4.0127754E-16
  0.1992000        4.0958442E-16
  0.1998000        4.0965721E-16
  0.2004000        4.0206380E-16
  0.2010000        3.8723559E-16
  0.2016000        3.6544519E-16
  0.2022000        3.3680571E-16
  0.2028000        3.0129235E-16
  0.2034000        2.5878559E-16
  0.2040000        2.0913310E-16
  0.2046000        1.5222656E-16
  0.2052000        8.8087271E-17
  0.2058000        1.6954334E-17
  0.2064000       -6.0632081E-17
  0.2070000       -1.4375991E-16
  0.2076000       -2.3109367E-16
  0.2082000       -3.2084827E-16
  0.2088000       -4.1079277E-16
  0.2094000       -4.9828635E-16
  0.2100000       -5.8034743E-16
  0.2106000       -6.5375348E-16
  0.2112000       -7.1516792E-16
  0.2118000       -7.6128807E-16
  0.2124000       -7.8900606E-16
  0.2130000       -7.9557495E-16
  0.2136000       -7.7876972E-16
  0.2142000       -7.3703487E-16
  0.2148000       -6.6960914E-16
  0.2154000       -5.7662038E-16
  0.2160000       -4.5914400E-16
  0.2166000       -3.1922086E-16
  0.2172000       -1.5983181E-16
  0.2178000        1.5170977E-17
  0.2184000        2.0117444E-16
  0.2190000        3.9295275E-16
  0.2196000        5.8484750E-16
  0.2202000        7.7097251E-16
  0.2208000        9.4543456E-16
  0.2214000        1.1025597E-15
  0.2220000        1.2371165E-15
  0.2226000        1.3445230E-15
  0.2232000        1.4210311E-15
  0.2238000        1.4638764E-15
  0.2244000        1.4713888E-15
  0.2250000        1.4430563E-15
  0.2256000        1.3795417E-15
  0.2262000        1.2826498E-15
  0.2268000        1.1552482E-15
  0.2274000        1.0011467E-15
  0.2280000        8.2494100E-16
  0.2286000        6.3182999E-16
  0.2292000        4.2741534E-16
  0.2298000        2.1749339E-16
  0.2304000        7.8483939E-18
  0.2310000       -1.9594379E-16
  0.2316000       -3.8869429E-16
  0.2322000       -5.6575612E-16
  0.2328000       -7.2315120E-16
  0.2334000       -8.5766644E-16
  0.2340000       -9.6691828E-16
  0.2346000       -1.0493850E-15
  0.2352000       -1.1044093E-15
  0.2358000       -1.1321710E-15
  0.2364000       -1.1336348E-15
  0.2370000       -1.1104740E-15
  0.2376000       -1.0649751E-15
  0.2382000       -9.9992568E-16
  0.2388000       -9.1849140E-16
  0.2394000       -8.2408402E-16
  0.2400000       -7.2022777E-16
  0.2406000       -6.1042816E-16
  0.2412000       -4.9804865E-16
  0.2418000       -3.8620004E-16
  0.2424000       -2.7764869E-16
  0.2430000       -1.7474618E-16
  0.2436000       -7.9384530E-17
  0.2442000        7.0218866E-18
  0.2448000        8.3527851E-17
  0.2454000        1.4962403E-16
  0.2460000        2.0518263E-16
  0.2466000        2.5038709E-16
  0.2472000        2.8565217E-16
  0.2478000        3.1154123E-16
  0.2484000        3.2868788E-16
  0.2490000        3.3772810E-16
  0.2496000        3.3924832E-16
  0.2502000        3.3375292E-16
  0.2508000        3.2165285E-16
  0.2514000        3.0327480E-16
  0.2520000        2.7888899E-16
  0.2526000        2.4875084E-16
  0.2532000        2.1315178E-16
  0.2538000        1.7247269E-16
  0.2544000        1.2723402E-16
  0.2550000        7.8136963E-17
  0.2556000        2.6090732E-17
  0.2562000       -2.7776943E-17
  0.2568000       -8.2128090E-17
  0.2574000       -1.3544135E-16
  0.2580000       -1.8605592E-16
  0.2586000       -2.3222973E-16
  0.2592000       -2.7220801E-16
  0.2598000       -3.0429817E-16
  0.2604000       -3.2694596E-16
  0.2610000       -3.3880934E-16
  0.2616000       -3.3882575E-16
  0.2622000       -3.2626952E-16
  0.2628000       -3.0079736E-16
  0.2634000       -2.6247968E-16
  0.2640000       -2.1181666E-16
  0.2646000       -1.4973841E-16
  0.2652000       -7.7589171E-17
  0.2658000        2.9044330E-18
  0.2664000        8.9680427E-17
  0.2670000        1.8040253E-16
  0.2676000        2.7253388E-16
  0.2682000        3.6342102E-16
  0.2688000        4.5038552E-16
  0.2694000        5.3081998E-16
  0.2700000        6.0228394E-16
  0.2706000        6.6259629E-16
  0.2712000        7.0991875E-16
  0.2718000        7.4282661E-16
  0.2724000        7.6036284E-16
  0.2730000        7.6207210E-16
  0.2736000        7.4801247E-16
  0.2742000        7.1874414E-16
  0.2748000        6.7529548E-16
  0.2754000        6.1910787E-16
  0.2760000        5.5196235E-16
  0.2766000        4.7589281E-16
  0.2772000        3.9308957E-16
  0.2778000        3.0579922E-16
  0.2784000        2.1622685E-16
  0.2790000        1.2644497E-16
  0.2796000        3.8314841E-17
  0.2802000       -4.6575854E-17
  0.2808000       -1.2695593E-16
  0.2814000       -2.0189217E-16
  0.2820000       -2.7078855E-16
  0.2826000       -3.3336419E-16
  0.2832000       -3.8961168E-16
  0.2838000       -4.3973948E-16
  0.2844000       -4.8410252E-16
  0.2850000       -5.2312628E-16
  0.2856000       -5.5723052E-16
  0.2862000       -5.8675820E-16
  0.2868000       -6.1191587E-16
  0.2874000       -6.3273022E-16
  0.2880000       -6.4902497E-16
  0.2886000       -6.6042010E-16
  0.2892000       -6.6635516E-16
  0.2898000       -6.6613360E-16
  0.2904000       -6.5898692E-16
  0.2910000       -6.4415199E-16
  0.2916000       -6.2095625E-16
  0.2922000       -5.8890315E-16
  0.2928000       -5.4775090E-16
  0.2934000       -4.9757669E-16
  0.2940000       -4.3882138E-16
  0.2946000       -3.7230952E-16
  0.2952000       -2.9924266E-16
  0.2958000       -2.2116569E-16
  0.2964000       -1.3990851E-16
  0.2970000       -5.7506807E-17
  0.2976000        2.3891990E-17
  0.2982000        1.0213099E-16
  0.2988000        1.7514681E-16
  0.2994000        2.4106634E-16
  0.3000000        2.9829091E-16
  0.3006000        3.4556311E-16
  0.3012000        3.8201257E-16
  0.3018000        4.0717986E-16
  0.3024000        4.2101823E-16
  0.3030000        4.2387532E-16
  0.3036000        4.1645802E-16
  0.3042000        3.9978396E-16
  0.3048000        3.7512403E-16
  0.3054000        3.4393990E-16
  0.3060000        3.0781977E-16
  0.3066000        2.6841556E-16
  0.3072000        2.2738311E-16
  0.3078000        1.8632709E-16
  0.3084000        1.4675126E-16
  0.3090000        1.1001417E-16
  0.3096000        7.7291035E-17
  0.3102000        4.9542004E-17
  0.3108000        2.7487399E-17
  0.3114000        1.1591039E-17
  0.3120000        2.0527209E-18
  0.3126000       -1.1889849E-18
  0.3132000        1.5573174E-18
  0.3138000        9.7615179E-18
  0.3144000        2.2708874E-17
  0.3150000        3.9546678E-17
  0.3156000        5.9338271E-17
  0.3162000        8.1120934E-17
  0.3168000        1.0396355E-16
  0.3174000        1.2701934E-16
  0.3180000        1.4956936E-16
  0.3186000        1.7105265E-16
  0.3192000        1.9108036E-16
  0.3198000        2.0943219E-16
  0.3204000        2.2603556E-16
  0.3210000        2.4092931E-16
  0.3216000        2.5421566E-16
  0.3222000        2.6600498E-16
  0.3228000        2.7635940E-16
  0.3234000        2.8524073E-16
  0.3240000        2.9246886E-16
  0.3246000        2.9769444E-16
  0.3252000        3.0039028E-16
  0.3258000        2.9986181E-16
  0.3264000        2.9527775E-16
  0.3270000        2.8571774E-16
  0.3276000        2.7023432E-16
  0.3282000        2.4792419E-16
  0.3288000        2.1800304E-16
  0.3294000        1.7987864E-16
  0.3300000        1.3321647E-16
  0.3306000        7.7993053E-17
  0.3312000        1.4533431E-17
  0.3318000       -5.6469807E-17
  0.3324000       -1.3395707E-16
  0.3330000       -2.1652161E-16
  0.3336000       -3.0244720E-16
  0.3342000       -3.8976139E-16
  0.3348000       -4.7630076E-16
  0.3354000       -5.5978528E-16
  0.3360000       -6.3789697E-16
  0.3366000       -7.0836058E-16
  0.3372000       -7.6902169E-16
  0.3378000       -8.1792021E-16
  0.3384000       -8.5335674E-16
  0.3390000       -8.7394985E-16
  0.3396000       -8.7868350E-16
  0.3402000       -8.6694314E-16
  0.3408000       -8.3854065E-16
  0.3414000       -7.9372758E-16
  0.3420000       -7.3319638E-16
  0.3426000       -6.5806990E-16
  0.3432000       -5.6987879E-16
  0.3438000       -4.7052707E-16
  0.3444000       -3.6224568E-16
  0.3450000       -2.4753511E-16
  0.3456000       -1.2909678E-16
  0.3462000       -9.7554447E-18
  0.3468000        1.0762614E-16
  0.3474000        2.2023757E-16
  0.3480000        3.2541312E-16
  0.3486000        4.2072246E-16
  0.3492000        5.0405528E-16
  0.3498000        5.7369632E-16
  0.3504000        6.2838574E-16
  0.3510000        6.6736212E-16
  0.3516000        6.9038432E-16
  0.3522000        6.9773127E-16
  0.3528000        6.9017801E-16
  0.3534000        6.6895009E-16
  0.3540000        6.3565720E-16
  0.3546000        5.9221081E-16
  0.3552000        5.4072995E-16
  0.3558000        4.8344072E-16
  0.3564000        4.2257526E-16
  0.3570000        3.6027644E-16
  0.3576000        2.9851344E-16
  0.3582000        2.3901292E-16
  0.3588000        1.8320878E-16
  0.3594000        1.3221309E-16
  0.3600000        8.6807973E-17
  0.3606000        4.7457555E-17
  0.3612000        1.4337637E-17
  0.3618000       -1.2620927E-17
  0.3624000       -3.3679317E-17
  0.3630000       -4.9233297E-17
  0.3636000       -5.9756077E-17
  0.3642000       -6.5746003E-17
  0.3648000       -6.7682882E-17
  0.3654000       -6.5995758E-17
  0.3660000       -6.1043871E-17
  0.3666000       -5.3111305E-17
  0.3672000       -4.2414741E-17
  0.3678000       -2.9122584E-17
  0.3684000       -1.3383055E-17
  0.3690000        4.6419014E-18
  0.3696000        2.4740284E-17
  0.3702000        4.6614837E-17
  0.3708000        6.9852319E-17
  0.3714000        9.3900299E-17
  0.3720000        1.1805385E-16
  0.3726000        1.4145411E-16
  0.3732000        1.6309952E-16
  0.3738000        1.8187027E-16
  0.3744000        1.9656515E-16
  0.3750000        2.0594942E-16
  0.3756000        2.0881170E-16
  0.3762000        2.0402692E-16
  0.3768000        1.9062204E-16
  0.3774000        1.6784086E-16
  0.3780000        1.3520405E-16
  0.3786000        9.2560518E-17
  0.3792000        4.0126882E-17
  0.3798000       -2.1488157E-17
  0.3804000       -9.1276462E-17
  0.3810000       -1.6784146E-16
  0.3816000       -2.4942764E-16
  0.3822000       -3.3396781E-16
  0.3828000       -4.1914597E-16
  0.3834000       -5.0247371E-16
  0.3840000       -5.8137599E-16
  0.3846000       -6.5328327E-16
  0.3852000       -7.1572537E-16
  0.3858000       -7.6642400E-16
  0.3864000       -8.0337893E-16
  0.3870000       -8.2494614E-16
  0.3876000       -8.2990351E-16
  0.3882000       -8.1750257E-16
  0.3888000       -7.8750432E-16
  0.3894000       -7.4019732E-16
  0.3900000       -6.7639758E-16
  0.3906000       -5.9742938E-16
  0.3912000       -5.0508733E-16
  0.3918000       -4.0158057E-16
  0.3924000       -2.8946017E-16
  0.3930000       -1.7153217E-16
  0.3936000       -5.0759478E-17
  0.3942000        6.9843498E-17
  0.3948000        1.8731887E-16
  0.3954000        2.9887055E-16
  0.3960000        4.0196131E-16
  0.3966000        4.9439661E-16
  0.3972000        5.7439019E-16
  0.3978000        6.4060800E-16
  0.3984000        6.9218865E-16
  0.3990000        7.2873940E-16
  0.3996000        7.5030988E-16
  0.4002000        7.5734640E-16
  0.4008000        7.5063149E-16
  0.4014000        7.3121490E-16
  0.4020000        7.0034241E-16
  0.4026000        6.5938778E-16
  0.4032000        6.0979427E-16
  0.4038000        5.5302845E-16
  0.4044000        4.9054934E-16
  0.4050000        4.2379213E-16
  0.4056000        3.5416499E-16
  0.4062000        2.8305504E-16
  0.4068000        2.1183890E-16
  0.4074000        1.4189218E-16
  0.4080000        7.4592924E-17
  0.4086000        1.1314670E-17
  0.4092000       -4.6593744E-17
  0.4098000       -9.7842351E-17
  0.4104000       -1.4124702E-16
  0.4110000       -1.7578590E-16
  0.4116000       -2.0066038E-16
  0.4122000       -2.1535450E-16
  0.4128000       -2.1968624E-16
  0.4134000       -2.1384462E-16
  0.4140000       -1.9840758E-16
  0.4146000       -1.7433716E-16
  0.4152000       -1.4295096E-16
  0.4158000       -1.0587088E-16
  0.4164000       -6.4952319E-17
  0.4170000       -2.2198864E-17
  0.4176000        2.0331039E-17
  0.4182000        6.0618866E-17
  0.4188000        9.6775387E-17
  0.4194000        1.2711897E-16
  0.4200000        1.5023830E-16
  0.4206000        1.6503697E-16
  0.4212000        1.7075917E-16
  0.4218000        1.6699726E-16
  0.4224000        1.5368392E-16
  0.4230000        1.3107185E-16
  0.4236000        9.9704943E-17
  0.4242000        6.0384430E-17
  0.4248000        1.4132927E-17