 -0.1200000        4.6737990E-04
 -0.1194000        1.4491072E-03
 -0.1188000        2.5130850E-03
 -0.1182000        3.6358249E-03
 -0.1176000        4.7942940E-03
 -0.1170000        5.9672832E-03
 -0.1164000        7.1367011E-03
 -0.1158000        8.2887392E-03
 -0.1152000        9.4148461E-03
 -0.1146000        1.0512480E-02
 -0.1140000        1.1585599E-02
 -0.1134000        1.2644891E-02
 -0.1128000        1.3707737E-02
 -0.1122000        1.4797922E-02
 -0.1116000        1.5945140E-02
 -0.1110000        1.7184315E-02
 -0.1104000        1.8554810E-02
 -0.1098000        2.0099554E-02
 -0.1092000        2.1864172E-02
 -0.1086000        2.3896135E-02
 -0.1080000        2.6244026E-02
 -0.1074000        2.8956901E-02
 -0.1068000        3.2083835E-02
 -0.1062000        3.5673629E-02
 -0.1056000        3.9774708E-02
 -0.1050000        4.4435214E-02
 -0.1044000        4.9703252E-02
 -0.1038000        5.5627339E-02
 -0.1032000        6.2256958E-02
 -0.1026000        6.9643266E-02
 -0.1020000        7.7839851E-02
 -0.1014000        8.6903617E-02
 -0.1008000        9.6895657E-02
 -0.1002000        0.1078822    
 -9.9600002E-02    0.1199355    
 -9.8999999E-02    0.1331346    
 -9.8399997E-02    0.1475666    
 -9.7800002E-02    0.1633267    
 -9.7199999E-02    0.1805196    
 -9.6600004E-02    0.1992593    
 -9.6000001E-02    0.2196704    
 -9.5399998E-02    0.2418877    
 -9.4800003E-02    0.2660565    
 -9.4200000E-02    0.2923332    
 -9.3599997E-02    0.3208842    
 -9.3000002E-02    0.3518868    
 -9.2399999E-02    0.3855284    
 -9.1799997E-02    0.4220060    
 -9.1200002E-02    0.4615264    
 -9.0599999E-02    0.5043055    
 -9.0000004E-02    0.5505682    
 -8.9400001E-02    0.6005480    
 -8.8799998E-02    0.6544867    
 -8.8200003E-02    0.7126344    
 -8.7600000E-02    0.7752495    
 -8.6999997E-02    0.8425980    
 -8.6400002E-02    0.9149541    
 -8.5800000E-02    0.9925995    
 -8.5199997E-02     1.075823    
 -8.4600002E-02     1.164921    
 -8.3999999E-02     1.260196    
 -8.3400004E-02     1.361955    
 -8.2800001E-02     1.470511    
 -8.2199998E-02     1.586180    
 -8.1600003E-02     1.709279    
 -8.1000000E-02     1.840125    
 -8.0399998E-02     1.979034    
 -7.9800002E-02     2.126315    
 -7.9200000E-02     2.282274    
 -7.8599997E-02     2.447205    
 -7.8000002E-02     2.621389    
 -7.7399999E-02     2.805094    
 -7.6800004E-02     2.998570    
 -7.6200001E-02     3.202044    
 -7.5599998E-02     3.415720    
 -7.5000003E-02     3.639771    
 -7.4400000E-02     3.874344    
 -7.3799998E-02     4.119546    
 -7.3200002E-02     4.375448    
 -7.2600000E-02     4.642078    
 -7.1999997E-02     4.919416    
 -7.1400002E-02     5.207394    
 -7.0799999E-02     5.505885    
 -7.0200004E-02     5.814706    
 -6.9600001E-02     6.133608    
 -6.8999998E-02     6.462276    
 -6.8400003E-02     6.800318    
 -6.7800000E-02     7.147268    
 -6.7199998E-02     7.502577    
 -6.6600002E-02     7.865609    
 -6.6000000E-02     8.235639    
 -6.5399997E-02     8.611845    
 -6.4800002E-02     8.993308    
 -6.4199999E-02     9.379009    
 -6.3600004E-02     9.767820    
 -6.3000001E-02     10.15851    
 -6.2399998E-02     10.54973    
 -6.1799999E-02     10.94002    
 -6.1200000E-02     11.32782    
 -6.0600001E-02     11.71143    
 -5.9999999E-02     12.08906    
 -5.9400000E-02     12.45879    
 -5.8800001E-02     12.81859    
 -5.8200002E-02     13.16631    
 -5.7599999E-02     13.49972    
 -5.7000000E-02     13.81646    
 -5.6400001E-02     14.11407    
 -5.5799998E-02     14.39000    
 -5.5199999E-02     14.64163    
 -5.4600000E-02     14.86624    
 -5.4000001E-02     15.06106    
 -5.3399999E-02     15.22323    
 -5.2800000E-02     15.34987    
 -5.2200001E-02     15.43807    
 -5.1600002E-02     15.48487    
 -5.0999999E-02     15.48731    
 -5.0400000E-02     15.44247    
 -4.9800001E-02     15.34740    
 -4.9199998E-02     15.19924    
 -4.8599999E-02     14.99515    
 -4.8000000E-02     14.73240    
 -4.7400001E-02     14.40834    
 -4.6799999E-02     14.02044    
 -4.6200000E-02     13.56631    
 -4.5600001E-02     13.04371    
 -4.5000002E-02     12.45059    
 -4.4399999E-02     11.78511    
 -4.3800000E-02     11.04564    
 -4.3200001E-02     10.23080    
 -4.2599998E-02     9.339477    
 -4.1999999E-02     8.370846    
 -4.1400000E-02     7.324395    
 -4.0800001E-02     6.199939    
 -4.0199999E-02     4.997643    
 -3.9600000E-02     3.718036    
 -3.9000001E-02     2.362031    
 -3.8400002E-02    0.9309400    
 -3.7799999E-02   -0.5735162    
 -3.7200000E-02    -2.149192    
 -3.6600001E-02    -3.793511    
 -3.5999998E-02    -5.503457    
 -3.5399999E-02    -7.275568    
 -3.4800000E-02    -9.105938    
 -3.4200002E-02    -10.99021    
 -3.3599999E-02    -12.92360    
 -3.3000000E-02    -14.90086    
 -3.2400001E-02    -16.91633    
 -3.1800002E-02    -18.96394    
 -3.1199999E-02    -21.03719    
 -3.0600000E-02    -23.12924    
 -2.9999999E-02    -25.23285    
 -2.9400000E-02    -27.34046    
 -2.8800000E-02    -29.44419    
 -2.8200001E-02    -31.53588    
 -2.7600000E-02    -33.60713    
 -2.7000001E-02    -35.64931    
 -2.6400000E-02    -37.65364    
 -2.5800001E-02    -39.61119    
 -2.5200000E-02    -41.51294    
 -2.4599999E-02    -43.34982    
 -2.4000000E-02    -45.11279    
 -2.3399999E-02    -46.79282    
 -2.2800000E-02    -48.38102    
 -2.2200000E-02    -49.86861    
 -2.1600001E-02    -51.24703    
 -2.1000000E-02    -52.50799    
 -2.0400001E-02    -53.64347    
 -1.9800000E-02    -54.64584    
 -1.9200001E-02    -55.50784    
 -1.8600000E-02    -56.22271    
 -1.7999999E-02    -56.78414    
 -1.7400000E-02    -57.18642    
 -1.6799999E-02    -57.42439    
 -1.6200000E-02    -57.49356    
 -1.5600000E-02    -57.39009    
 -1.5000000E-02    -57.11086    
 -1.4400000E-02    -56.65347    
 -1.3800000E-02    -56.01630    
 -1.3200000E-02    -55.19853    
 -1.2600000E-02    -54.20013    
 -1.2000000E-02    -53.02191    
 -1.1400000E-02    -51.66549    
 -1.0800000E-02    -50.13336    
 -1.0200000E-02    -48.42881    
 -9.6000005E-03    -46.55598    
 -8.9999996E-03    -44.51984    
 -8.3999997E-03    -42.32614    
 -7.7999998E-03    -39.98144    
 -7.1999999E-03    -37.49304    
 -6.6000000E-03    -34.86897    
 -6.0000001E-03    -32.11794    
 -5.4000001E-03    -29.24934    
 -4.8000002E-03    -26.27313    
 -4.1999999E-03    -23.19984    
 -3.5999999E-03    -20.04053    
 -3.0000000E-03    -16.80667    
 -2.4000001E-03    -13.51015    
 -1.8000000E-03    -10.16316    
 -1.2000001E-03    -6.778191    
 -6.0000003E-04    -3.367910    
  0.0000000E+00    5.4874115E-02
  6.0000003E-04     3.477288    
  1.2000001E-03     6.886461    
  1.8000000E-03     10.26959    
  2.4000001E-03     13.61402    
  3.0000000E-03     16.90728    
  3.5999999E-03     20.13719    
  4.1999999E-03     23.29191    
  4.8000002E-03     26.35996    
  5.4000001E-03     29.33035    
  6.0000001E-03     32.19259    
  6.6000000E-03     34.93674    
  7.1999999E-03     37.55349    
  7.7999998E-03     40.03416    
  8.3999997E-03     42.37078    
  8.9999996E-03     44.55612    
  9.6000005E-03     46.58368    
  1.0200000E-02     48.44777    
  1.0800000E-02     50.14350    
  1.1400000E-02     51.66679    
  1.2000000E-02     53.01440    
  1.2600000E-02     54.18394    
  1.3200000E-02     55.17383    
  1.3800000E-02     55.98333    
  1.4400000E-02     56.61253    
  1.5000000E-02     57.06232    
  1.5600000E-02     57.33437    
  1.6200000E-02     57.43113    
  1.6799999E-02     57.35577    
  1.7400000E-02     57.11217    
  1.7999999E-02     56.70487    
  1.8600000E-02     56.13905    
  1.9200001E-02     55.42046    
  1.9800000E-02     54.55542    
  2.0400001E-02     53.55073    
  2.1000000E-02     52.41364    
  2.1600001E-02     51.15179    
  2.2200000E-02     49.77321    
  2.2800000E-02     48.28618    
  2.3399999E-02     46.69926    
  2.4000000E-02     45.02118    
  2.4599999E-02     43.26084    
  2.5200000E-02     41.42720    
  2.5800001E-02     39.52931    
  2.6400000E-02     37.57618    
  2.7000001E-02     35.57678    
  2.7600000E-02     33.53999    
  2.8200001E-02     31.47455    
  2.8800000E-02     29.38902    
  2.9400000E-02     27.29174    
  2.9999999E-02     25.19082    
  3.0600000E-02     23.09406    
  3.1199999E-02     21.00896    
  3.1800002E-02     18.94269    
  3.2400001E-02     16.90205    
  3.3000000E-02     14.89345    
  3.3599999E-02     12.92290    
  3.4200002E-02     10.99603    
  3.4800000E-02     9.117990    
  3.5399999E-02     7.293542    
  3.5999998E-02     5.526988    
  3.6600001E-02     3.822192    
  3.7200000E-02     2.182582    
  3.7799999E-02    0.6111416    
  3.8400002E-02   -0.8895739    
  3.9000001E-02    -2.317437    
  3.9600000E-02    -3.670736    
  4.0199999E-02    -4.948164    
  4.0800001E-02    -6.148805    
  4.1400000E-02    -7.272122    
  4.1999999E-02    -8.317937    
  4.2599998E-02    -9.286415    
  4.3200001E-02    -10.17805    
  4.3800000E-02    -10.99363    
  4.4399999E-02    -11.73425    
  4.5000002E-02    -12.40124    
  4.5600001E-02    -12.99620    
  4.6200000E-02    -13.52095    
  4.6799999E-02    -13.97749    
  4.7400001E-02    -14.36802    
  4.8000000E-02    -14.69490    
  4.8599999E-02    -14.96062    
  4.9199998E-02    -15.16778    
  4.9800001E-02    -15.31909    
  5.0400000E-02    -15.41734    
  5.0999999E-02    -15.46538    
  5.1600002E-02    -15.46609    
  5.2200001E-02    -15.42239    
  5.2800000E-02    -15.33721    
  5.3399999E-02    -15.21347    
  5.4000001E-02    -15.05406    
  5.4600000E-02    -14.86185    
  5.5199999E-02    -14.63967    
  5.5799998E-02    -14.39028    
  5.6400001E-02    -14.11639    
  5.7000000E-02    -13.82062    
  5.7599999E-02    -13.50552    
  5.8200002E-02    -13.17354    
  5.8800001E-02    -12.82704    
  5.9400000E-02    -12.46827    
  5.9999999E-02    -12.09938    
  6.0600001E-02    -11.72242    
  6.1200000E-02    -11.33931    
  6.1799999E-02    -10.95187    
  6.2399998E-02    -10.56181    
  6.3000001E-02    -10.17071    
  6.3600004E-02    -9.780039    
  6.4199999E-02    -9.391167    
  6.4800002E-02    -9.005340    
  6.5399997E-02    -8.623698    
  6.6000000E-02    -8.247276    
  6.6600002E-02    -7.877005    
  6.7199998E-02    -7.513715    
  6.7800000E-02    -7.158140    
  6.8400003E-02    -6.810922    
  6.8999998E-02    -6.472614    
  6.9600001E-02    -6.143686    
  7.0200004E-02    -5.824530    
  7.0799999E-02    -5.515460    
  7.1400002E-02    -5.216723    
  7.1999997E-02    -4.928501    
  7.2600000E-02    -4.650912    
  7.3200002E-02    -4.384022    
  7.3799998E-02    -4.127844    
  7.4400000E-02    -3.882344    
  7.5000003E-02    -3.647449    
  7.5599998E-02    -3.423043    
  7.6200001E-02    -3.208979    
  7.6800004E-02    -3.005079    
  7.7399999E-02    -2.811139    
  7.8000002E-02    -2.626932    
  7.8599997E-02    -2.452211    
  7.9200000E-02    -2.286712    
  7.9800002E-02    -2.130158    
  8.0399998E-02    -1.982260    
  8.1000000E-02    -1.842721    
  8.1600003E-02    -1.711238    
  8.2199998E-02    -1.587502    
  8.2800001E-02    -1.471204    
  8.3400004E-02    -1.362033    
  8.3999999E-02    -1.259678    
  8.4600002E-02    -1.163833    
  8.5199997E-02    -1.074194    
  8.5800000E-02   -0.9904614    
  8.6400002E-02   -0.9123417    
  8.6999997E-02   -0.8395481    
  8.7600000E-02   -0.7718007    
  8.8200003E-02   -0.7088274    
  8.8799998E-02   -0.6503643    
  8.9400001E-02   -0.5961556    
  9.0000004E-02   -0.5459546    
  9.0599999E-02   -0.4995232    
  9.1200002E-02   -0.4566324    
  9.1799997E-02   -0.4170622    
  9.2399999E-02   -0.3806013    
  9.3000002E-02   -0.3470475    
  9.3599997E-02   -0.3162074    
  9.4200000E-02   -0.2878962    
  9.4800003E-02   -0.2619376    
  9.5399998E-02   -0.2381637    
  9.6000001E-02   -0.2164148    
  9.6600004E-02   -0.1965392    
  9.7199999E-02   -0.1783932    
  9.7800002E-02   -0.1618407    
  9.8399997E-02   -0.1467535    
  9.8999999E-02   -0.1330105    
  9.9600002E-02   -0.1204984    
  0.1002000       -0.1091108    
  0.1008000       -9.8748848E-02
  0.1014000       -8.9320421E-02
  0.1020000       -8.0740474E-02
  0.1026000       -7.2930701E-02
  0.1032000       -6.5819368E-02
  0.1038000       -5.9341121E-02
  0.1044000       -5.3436723E-02
  0.1050000       -4.8052777E-02
  0.1056000       -4.3141391E-02
  0.1062000       -3.8659830E-02
  0.1068000       -3.4570113E-02
  0.1074000       -3.0838618E-02
  0.1080000       -2.7435634E-02
  0.1086000       -2.4334943E-02
  0.1092000       -2.1513371E-02
  0.1098000       -1.8950371E-02
  0.1104000       -1.6627621E-02
  0.1110000       -1.4528642E-02
  0.1116000       -1.2638461E-02
  0.1122000       -1.0943301E-02
  0.1128000       -9.4303275E-03
  0.1134000       -8.0874320E-03
  0.1140000       -6.9030579E-03
  0.1146000       -5.8660805E-03
  0.1152000       -4.9657146E-03
  0.1158000       -4.1914629E-03
  0.1164000       -3.5330947E-03
  0.1170000       -2.9806402E-03
  0.1176000       -2.5244083E-03
  0.1182000       -2.1550066E-03
  0.1188000       -1.8633674E-03
  0.1194000       -1.6407722E-03
  0.1200000       -1.4788694E-03
  0.1206000       -1.3696852E-03
  0.1212000       -1.3056261E-03
  0.1218000       -1.2794741E-03
  0.1224000       -1.2843749E-03
  0.1230000       -1.3138234E-03
  0.1236000       -1.3616484E-03
  0.1242000       -1.4219999E-03
  0.1248000       -1.4893406E-03
  0.1254000       -1.5584476E-03
  0.1260000       -1.6244224E-03
  0.1266000       -1.6827114E-03
  0.1272000       -1.7291395E-03
  0.1278000       -1.7599515E-03
  0.1284000       -1.7718641E-03
  0.1290000       -1.7621237E-03
  0.1296000       -1.7285659E-03
  0.1302000       -1.6696766E-03
  0.1308000       -1.5846466E-03
  0.1314000       -1.4734175E-03
  0.1320000       -1.3367146E-03
  0.1326000       -1.1760619E-03
  0.1332000       -9.9377718E-04
  0.1338000       -7.9294166E-04
  0.1344000       -5.7734584E-04
  0.1350000       -3.5140751E-04
  0.1356000       -1.2006440E-04
  0.1362000        1.1135803E-04
  0.1368000        3.3730001E-04
  0.1374000        5.5213796E-04
  0.1380000        7.5036648E-04
  0.1386000        9.2678564E-04
  0.1392000        1.0766855E-03
  0.1398000        1.1960210E-03
  0.1404000        1.2815684E-03
  0.1410000        1.3310572E-03
  0.1416000        1.3432686E-03
  0.1422000        1.3180975E-03
  0.1428000        1.2565729E-03
  0.1434000        1.1608339E-03
  0.1440000        1.0340627E-03
  0.1446000        8.8037725E-04
  0.1452000        7.0468662E-04
  0.1458000        5.1251630E-04
  0.1464000        3.0981129E-04
  0.1470000        1.0272648E-04
  0.1476000       -1.0258734E-04
  0.1482000       -3.0019134E-04
  0.1488000       -4.8455200E-04
  0.1494000       -6.5071258E-04
  0.1500000       -7.9443591E-04
  0.1506000       -9.1231515E-04
  0.1512000       -1.0018488E-03
  0.1518000       -1.0614806E-03
  0.1524000       -1.0906040E-03
  0.1530000       -1.0895346E-03
  0.1536000       -1.0594531E-03
  0.1542000       -1.0023235E-03
  0.1548000       -9.2079025E-04
  0.1554000       -8.1806129E-04
  0.1560000       -6.9777865E-04
  0.1566000       -5.6388415E-04
  0.1572000       -4.2048373E-04
  0.1578000       -2.7171476E-04
  0.1584000       -1.2162040E-04
  0.1590000        2.5964828E-05
  0.1596000        1.6751548E-04
  0.1602000        2.9989862E-04
  0.1608000        4.2043821E-04
  0.1614000        5.2695919E-04
  0.1620000        6.1781053E-04
  0.1626000        6.9186778E-04
  0.1632000        7.4851670E-04
  0.1638000        7.8761880E-04
  0.1644000        8.0946350E-04
  0.1650000        8.1470824E-04
  0.1656000        8.0431189E-04
  0.1662000        7.7946432E-04
  0.1668000        7.4151700E-04
  0.1674000        6.9191708E-04
  0.1680000        6.3214992E-04
  0.1686000        5.6369114E-04
  0.1692000        4.8797135E-04
  0.1698000        4.0635435E-04
  0.1704000        3.2012851E-04
  0.1710000        2.3051130E-04
  0.1716000        1.3866463E-04
  0.1722000        4.5718214E-05
  0.1728000       -4.7202364E-05
  0.1734000       -1.3894698E-04
  0.1740000       -2.2831619E-04
  0.1746000       -3.1404430E-04
  0.1752000       -3.9479410E-04
  0.1758000       -4.6916577E-04
  0.1764000       -5.3572154E-04
  0.1770000       -5.9302605E-04
  0.1776000       -6.3970056E-04
  0.1782000       -6.7448796E-04
  0.1788000       -6.9632387E-04
  0.1794000       -7.0440827E-04
  0.1800000       -6.9827156E-04
  0.1806000       -6.7782926E-04
  0.1812000       -6.4341963E-04
  0.1818000       -5.9582054E-04
  0.1824000       -5.3624273E-04
  0.1830000       -4.6629849E-04
  0.1836000       -3.8794760E-04
  0.1842000       -3.0342280E-04
  0.1848000       -2.1513992E-04
  0.1854000       -1.2559784E-04
  0.1860000       -3.7274676E-05
  0.1866000        4.7473273E-05
  0.1872000        1.2650427E-04
  0.1878000        1.9797021E-04
  0.1884000        2.6037832E-04
  0.1890000        3.1263274E-04
  0.1896000        3.5405491E-04
  0.1902000        3.8438302E-04
  0.1908000        4.0375162E-04
  0.1914000        4.1265396E-04
  0.1920000        4.1189001E-04
  0.1926000        4.0250336E-04
  0.1932000        3.8571126E-04
  0.1938000        3.6283094E-04
  0.1944000        3.3520622E-04
  0.1950000        3.0413800E-04
  0.1956000        2.7082121E-04
  0.1962000        2.3629185E-04
  0.1968000        2.0138601E-04
  0.1974000        1.6671336E-04
  0.1980000        1.3264630E-04
  0.1986000        9.9325829E-05
  0.1992000        6.6684224E-05
  0.1998000        3.4483655E-05
  0.2004000        2.3690689E-06
  0.2010000       -3.0067540E-05
  0.2016000       -6.3215273E-05
  0.2022000       -9.7369593E-05
  0.2028000       -1.3266009E-04
  0.2034000       -1.6898652E-04
  0.2040000       -2.0596862E-04
  0.2046000       -2.4291518E-04
  0.2052000       -2.7881606E-04
  0.2058000       -3.1236029E-04
  0.2064000       -3.4198089E-04
  0.2070000       -3.6592563E-04
  0.2076000       -3.8235020E-04
  0.2082000       -3.8942930E-04
  0.2088000       -3.8547843E-04
  0.2094000       -3.6907897E-04
  0.2100000       -3.3919810E-04
  0.2106000       -2.9529480E-04
  0.2112000       -2.3740494E-04
  0.2118000       -1.6619841E-04
  0.2124000       -8.3003892E-05
  0.2130000        1.0201639E-05
  0.2136000        1.1083918E-04
  0.2142000        2.1580831E-04
  0.2148000        3.2159858E-04
  0.2154000        4.2442669E-04
  0.2160000        5.2039279E-04
  0.2166000        6.0564850E-04
  0.2172000        6.7656895E-04
  0.2178000        7.2991982E-04
  0.2184000        7.6301239E-04
  0.2190000        7.7383802E-04
  0.2196000        7.6117605E-04
  0.2202000        7.2466856E-04
  0.2208000        6.6485844E-04
  0.2214000        5.8318733E-04
  0.2220000        4.8195329E-04
  0.2226000        3.6422801E-04
  0.2232000        2.3373861E-04
  0.2238000        9.4717681E-05
  0.2244000       -4.8270307E-05
  0.2250000       -1.9051798E-04
  0.2256000       -3.2736963E-04
  0.2262000       -4.5441126E-04
  0.2268000       -5.6764658E-04
  0.2274000       -6.6364987E-04
  0.2280000       -7.3968846E-04
  0.2286000       -7.9381029E-04
  0.2292000       -8.2489313E-04
  0.2298000       -8.3265494E-04
  0.2304000       -8.1762840E-04
  0.2310000       -7.8110257E-04
  0.2316000       -7.2503730E-04
  0.2322000       -6.5195671E-04
  0.2328000       -5.6482834E-04
  0.2334000       -4.6693443E-04
  0.2340000       -3.6174050E-04
  0.2346000       -2.5276691E-04
  0.2352000       -1.4346653E-04
  0.2358000       -3.7112051E-05
  0.2364000        6.3304928E-05
  0.2370000        1.5516112E-04
  0.2376000        2.3627347E-04
  0.2382000        3.0495430E-04
  0.2388000        3.6004788E-04
  0.2394000        4.0094729E-04
  0.2400000        4.2759025E-04
  0.2406000        4.4043284E-04
  0.2412000        4.4040201E-04
  0.2418000        4.2882745E-04
  0.2424000        4.0735563E-04
  0.2430000        3.7785029E-04
  0.2436000        3.4228427E-04
  0.2442000        3.0262937E-04
  0.2448000        2.6075143E-04
  0.2454000        2.1831719E-04
  0.2460000        1.7671988E-04
  0.2466000        1.3702860E-04
  0.2472000        9.9964855E-05
  0.2478000        6.5907450E-05
  0.2484000        3.4924717E-05
  0.2490000        6.8301970E-06
  0.2496000       -1.8743625E-05
  0.2502000       -4.2260883E-05
  0.2508000       -6.4195177E-05
  0.2514000       -8.4947897E-05
  0.2520000       -1.0477946E-04
  0.2526000       -1.2375941E-04
  0.2532000       -1.4173954E-04
  0.2538000       -1.5835164E-04
  0.2544000       -1.7302937E-04
  0.2550000       -1.8505122E-04
  0.2556000       -1.9360018E-04
  0.2562000       -1.9783396E-04
  0.2568000       -1.9695936E-04
  0.2574000       -1.9030453E-04
  0.2580000       -1.7738322E-04
  0.2586000       -1.5794647E-04
  0.2592000       -1.3201889E-04
  0.2598000       -9.9917524E-05
  0.2604000       -6.2253537E-05
  0.2610000       -1.9917537E-05
  0.2616000        2.5949406E-05
  0.2622000        7.3996591E-05
  0.2628000        1.2271375E-04
  0.2634000        1.7048784E-04
  0.2640000        2.1566392E-04
  0.2646000        2.5660853E-04
  0.2652000        2.9177321E-04
  0.2658000        3.1975648E-04
  0.2664000        3.3936277E-04
  0.2670000        3.4965578E-04
  0.2676000        3.5000427E-04
  0.2682000        3.4011810E-04
  0.2688000        3.2007176E-04
  0.2694000        2.9031324E-04
  0.2700000        2.5165686E-04
  0.2706000        2.0525839E-04
  0.2712000        1.5257334E-04
  0.2718000        9.5298812E-05
  0.2724000        3.5301800E-05
  0.2730000       -2.5462838E-05
  0.2736000       -8.5040148E-05
  0.2742000       -1.4156375E-04
  0.2748000       -1.9334014E-04
  0.2754000       -2.3892355E-04
  0.2760000       -2.7717699E-04
  0.2766000       -3.0731599E-04
  0.2772000       -3.2893219E-04
  0.2778000       -3.4199632E-04
  0.2784000       -3.4683986E-04
  0.2790000       -3.4411740E-04
  0.2796000       -3.3475170E-04
  0.2802000       -3.1986533E-04
  0.2808000       -3.0070270E-04
  0.2814000       -2.7854732E-04
  0.2820000       -2.5463951E-04
  0.2826000       -2.3009938E-04
  0.2832000       -2.0586023E-04
  0.2838000       -1.8261642E-04
  0.2844000       -1.6078993E-04
  0.2850000       -1.4051751E-04
  0.2856000       -1.2166041E-04
  0.2862000       -1.0383592E-04
  0.2868000       -8.6469256E-05
  0.2874000       -6.8862093E-05
  0.2880000       -5.0272803E-05
  0.2886000       -3.0002140E-05
  0.2892000       -7.4774830E-06
  0.2898000        1.7671658E-05
  0.2904000        4.5553621E-05
  0.2910000        7.5975790E-05
  0.2916000        1.0843104E-04
  0.2922000        1.4211152E-04
  0.2928000        1.7594907E-04
  0.2934000        2.0867989E-04
  0.2940000        2.3892779E-04
  0.2946000        2.6529978E-04
  0.2952000        2.8648551E-04
  0.2958000        3.0135247E-04
  0.2964000        3.0902890E-04
  0.2970000        3.0896752E-04
  0.2976000        3.0098541E-04
  0.2982000        2.8527706E-04
  0.2988000        2.6240080E-04
  0.2994000        2.3324032E-04
  0.3000000        1.9894633E-04
  0.3006000        1.6086333E-04
  0.3012000        1.2044904E-04
  0.3018000        7.9192738E-05
  0.3024000        3.8539107E-05
  0.3030000       -1.7751407E-07
  0.3036000       -3.5784949E-05
  0.3042000       -6.7309404E-05
  0.3048000       -9.3996190E-05
  0.3054000       -1.1531648E-04
  0.3060000       -1.3096277E-04
  0.3066000       -1.4083630E-04
  0.3072000       -1.4502939E-04
  0.3078000       -1.4380559E-04
  0.3084000       -1.3757944E-04
  0.3090000       -1.2689654E-04
  0.3096000       -1.1241395E-04
  0.3102000       -9.4879892E-05
  0.3108000       -7.5111486E-05
  0.3114000       -5.3969092E-05
  0.3120000       -3.2326581E-05
  0.3126000       -1.1037391E-05
  0.3132000        9.1025386E-06
  0.3138000        2.7392782E-05
  0.3144000        4.3264372E-05
  0.3150000        5.6309997E-05
  0.3156000        6.6304725E-05
  0.3162000        7.3214003E-05
  0.3168000        7.7186691E-05
  0.3174000        7.8532343E-05
  0.3180000        7.7683755E-05
  0.3186000        7.5147378E-05
  0.3192000        7.1446077E-05
  0.3198000        6.7059555E-05
  0.3204000        6.2368679E-05
  0.3210000        5.7609523E-05
  0.3216000        5.2842377E-05
  0.3222000        4.7939444E-05
  0.3228000        4.2593096E-05
  0.3234000        3.6344452E-05
  0.3240000        2.8629898E-05
  0.3246000        1.8841380E-05
  0.3252000        6.3948046E-06
  0.3258000       -9.1998409E-06
  0.3264000       -2.8273233E-05
  0.3270000       -5.0942330E-05
  0.3276000       -7.7071789E-05
  0.3282000       -1.0625456E-04
  0.3288000       -1.3781319E-04
  0.3294000       -1.7082157E-04
  0.3300000       -2.0414530E-04
  0.3306000       -2.3649685E-04
  0.3312000       -2.6650162E-04
  0.3318000       -2.9276952E-04
  0.3324000       -3.1396715E-04
  0.3330000       -3.2888606E-04
  0.3336000       -3.3650277E-04
  0.3342000       -3.3602791E-04
  0.3348000       -3.2694216E-04
  0.3354000       -3.0901851E-04
  0.3360000       -2.8233070E-04
  0.3366000       -2.4724918E-04
  0.3372000       -2.0442581E-04
  0.3378000       -1.5476964E-04
  0.3384000       -9.9415687E-05
  0.3390000       -3.9688723E-05
  0.3396000        2.2936221E-05
  0.3402000        8.6875356E-05
  0.3408000        1.5047878E-04
  0.3414000        2.1207378E-04
  0.3420000        2.7000860E-04
  0.3426000        3.2269675E-04
  0.3432000        3.6866160E-04
  0.3438000        4.0658109E-04
  0.3444000        4.3533169E-04
  0.3450000        4.5403081E-04
  0.3456000        4.6207526E-04
  0.3462000        4.5917442E-04
  0.3468000        4.4537481E-04
  0.3474000        4.2107410E-04
  0.3480000        3.8702184E-04
  0.3486000        3.4430480E-04
  0.3492000        2.9431636E-04
  0.3498000        2.3870917E-04
  0.3504000        1.7933275E-04
  0.3510000        1.1815811E-04
  0.3516000        5.7193105E-05
  0.3522000       -1.6068702E-06
  0.3528000       -5.6427558E-05
  0.3534000       -1.0567826E-04
  0.3540000       -1.4806252E-04
  0.3546000       -1.8263242E-04
  0.3552000       -2.0882237E-04
  0.3558000       -2.2646054E-04
  0.3564000       -2.3575668E-04
  0.3570000       -2.3726781E-04
  0.3576000       -2.3184405E-04
  0.3582000       -2.2055919E-04
  0.3588000       -2.0463075E-04
  0.3594000       -1.8533597E-04
  0.3600000       -1.6392954E-04
  0.3606000       -1.4156908E-04
  0.3612000       -1.1925340E-04
  0.3618000       -9.7777411E-05
  0.3624000       -7.7706070E-05
  0.3630000       -5.9368456E-05
  0.3636000       -4.2870863E-05
  0.3642000       -2.8127042E-05
  0.3648000       -1.4901987E-05
  0.3654000       -2.8650161E-06
  0.3660000        8.3525802E-06
  0.3666000        1.9100227E-05
  0.3672000        2.9655621E-05
  0.3678000        4.0181087E-05
  0.3684000        5.0691888E-05
  0.3690000        6.1038481E-05
  0.3696000        7.0903843E-05
  0.3702000        7.9815771E-05
  0.3708000        8.7173175E-05
  0.3714000        9.2284550E-05
  0.3720000        9.4416057E-05
  0.3726000        9.2846174E-05
  0.3732000        8.6923523E-05
  0.3738000        7.6124190E-05
  0.3744000        6.0104969E-05
  0.3750000        3.8749055E-05
  0.3756000        1.2200883E-05
  0.3762000       -1.9112433E-05
  0.3768000       -5.4475138E-05
  0.3774000       -9.2893533E-05
  0.3780000       -1.3312348E-04
  0.3786000       -1.7371403E-04
  0.3792000       -2.1306498E-04
  0.3798000       -2.4949596E-04
  0.3804000       -2.8132295E-04
  0.3810000       -3.0693808E-04
  0.3816000       -3.2488848E-04
  0.3822000       -3.3394943E-04
  0.3828000       -3.3318775E-04
  0.3834000       -3.2201261E-04
  0.3840000       -3.0021041E-04
  0.3846000       -2.6796342E-04
  0.3852000       -2.2585066E-04
  0.3858000       -1.7483256E-04
  0.3864000       -1.1621974E-04
  0.3870000       -5.1628489E-05
  0.3876000        1.7075488E-05
  0.3882000        8.7842491E-05
  0.3888000        1.5851122E-04
  0.3894000        2.2688592E-04
  0.3900000        2.9081595E-04
  0.3906000        3.4827529E-04
  0.3912000        3.9743978E-04
  0.3918000        4.3675868E-04
  0.3924000        4.6501795E-04
  0.3930000        4.8139167E-04
  0.3936000        4.8547817E-04
  0.3942000        4.7731822E-04
  0.3948000        4.5739263E-04
  0.3954000        4.2659804E-04
  0.3960000        3.8620122E-04
  0.3966000        3.3777358E-04
  0.3972000        2.8310926E-04
  0.3978000        2.2413231E-04
  0.3984000        1.6279901E-04
  0.3990000        1.0100273E-04
  0.3996000        4.0488314E-05
  0.4002000       -1.7217419E-05
  0.4008000       -7.0854105E-05
  0.4014000       -1.1945211E-04
  0.4020000       -1.6233213E-04
  0.4026000       -1.9908209E-04
  0.4032000       -2.2951560E-04
  0.4038000       -2.5361843E-04
  0.4044000       -2.7149016E-04
  0.4050000       -2.8328912E-04
  0.4056000       -2.8918727E-04
  0.4062000       -2.8934126E-04
  0.4068000       -2.8388228E-04
  0.4074000       -2.7292626E-04
  0.4080000       -2.5660184E-04
  0.4086000       -2.3509144E-04
  0.4092000       -2.0867978E-04
  0.4098000       -1.7780086E-04
  0.4104000       -1.4307682E-04
  0.4110000       -1.0534071E-04
  0.4116000       -6.5638545E-05
  0.4122000       -2.5207495E-05
  0.4128000        1.4569592E-05
  0.4134000        5.2230378E-05
  0.4140000        8.6314401E-05
  0.4146000        1.1545215E-04
  0.4152000        1.3845321E-04
  0.4158000        1.5438501E-04
  0.4164000        1.6263445E-04
  0.4170000        1.6294663E-04
  0.4176000        1.5543740E-04
  0.4182000        1.4057934E-04
  0.4188000        1.1916318E-04
  0.4194000        9.2239650E-05
  0.4200000        6.1047991E-05
  0.4206000        2.6938451E-05
  0.4212000       -8.7038743E-06
  0.4218000       -4.4527562E-05
  0.4224000       -7.9270903E-05
  0.4230000       -1.1180270E-04
  0.4236000       -1.4114729E-04
  0.4242000       -1.6649520E-04
  0.4248000       -1.8720234E-04