 -0.1200000        0.0000000E+00
 -0.1194000       -8.0783694E-22
 -0.1188000       -3.7415605E-21
 -0.1182000       -4.7619859E-21
 -0.1176000       -1.4966242E-20
 -0.1170000       -2.8571917E-20
 -0.1164000        1.0884540E-19
 -0.1158000        9.3879158E-19
 -0.1152000        4.2095958E-18
 -0.1146000        1.4476438E-17
 -0.1140000        4.0544910E-17
 -0.1134000        9.7275130E-17
 -0.1128000        2.0441709E-16
 -0.1122000        3.8179563E-16
 -0.1116000        6.3726328E-16
 -0.1110000        9.4857674E-16
 -0.1104000        1.2371041E-15
 -0.1098000        1.3445781E-15
 -0.1092000        1.0193153E-15
 -0.1086000       -7.0684198E-17
 -0.1080000       -2.2865587E-15
 -0.1074000       -5.9116983E-15
 -0.1068000       -1.0995867E-14
 -0.1062000       -1.7153076E-14
 -0.1056000       -2.3366015E-14
 -0.1050000       -2.7840148E-14
 -0.1044000       -2.7990942E-14
 -0.1038000       -2.0647317E-14
 -0.1032000       -2.5373168E-15
 -0.1026000        2.8920114E-14
 -0.1020000        7.4543792E-14
 -0.1014000        1.3217201E-13
 -0.1008000        1.9550965E-13
 -0.1002000        2.5336070E-13
 -9.9600002E-02    2.8958945E-13
 -9.8999999E-02    2.8419381E-13
 -9.8399997E-02    2.1572606E-13
 -9.7800002E-02    6.5174923E-14
 -9.7199999E-02   -1.7890443E-13
 -9.6600004E-02   -5.1451839E-13
 -9.6000001E-02   -9.2053600E-13
 -9.5399998E-02   -1.3523873E-12
 -9.4800003E-02   -1.7405029E-12
 -9.4200000E-02   -1.9929418E-12
 -9.3599997E-02   -2.0032667E-12
 -9.3000002E-02   -1.6641555E-12
 -9.2399999E-02   -8.8643204E-13
 -9.1799997E-02    3.7810190E-13
 -9.1200002E-02    2.1126521E-12
 -9.0599999E-02    4.2140761E-12
 -9.0000004E-02    6.4788322E-12
 -8.9400001E-02    8.6009368E-12
 -8.8799998E-02    1.0186276E-11
 -8.8200003E-02    1.0786203E-11
 -8.7600000E-02    9.9508049E-12
 -8.6999997E-02    7.2995247E-12
 -8.6400002E-02    2.6029821E-12
 -8.5800000E-02   -4.1333790E-12
 -8.5199997E-02   -1.2596418E-11
 -8.4600002E-02   -2.2117417E-11
 -8.3999999E-02   -3.1663415E-11
 -8.3400004E-02   -3.9880273E-11
 -8.2800001E-02   -4.5194834E-11
 -8.2199998E-02   -4.5977243E-11
 -8.1600003E-02   -4.0755978E-11
 -8.1000000E-02   -2.8468146E-11
 -8.0399998E-02   -8.7185528E-12
 -7.9800002E-02    1.7986381E-11
 -7.9200000E-02    5.0069084E-11
 -7.8599997E-02    8.4814517E-11
 -7.8000002E-02    1.1844074E-10
 -7.7399999E-02    1.4632978E-10
 -7.6800004E-02    1.6342458E-10
 -7.6200001E-02    1.6477790E-10
 -7.5599998E-02    1.4621489E-10
 -7.5000003E-02    1.0504837E-10
 -7.4400000E-02    4.0765415E-11
 -7.3799998E-02   -4.4408199E-11
 -7.3200002E-02   -1.4516495E-10
 -7.2600000E-02   -2.5308278E-10
 -7.1999997E-02   -3.5697084E-10
 -7.1400002E-02   -4.4362897E-10
 -7.0799999E-02   -4.9900956E-10
 -7.0200004E-02   -5.0971966E-10
 -6.9600001E-02   -4.6474852E-10
 -6.8999998E-02   -3.5725337E-10
 -6.8400003E-02   -1.8620397E-10
 -6.7800000E-02    4.2338136E-11
 -6.7199998E-02    3.1452213E-10
 -6.6600002E-02    6.0878230E-10
 -6.6000000E-02    8.9681135E-10
 -6.5399997E-02    1.1454818E-09
 -6.4800002E-02    1.3196627E-09
 -6.4199999E-02    1.3857636E-09
 -6.3600004E-02    1.3157336E-09
 -6.3000001E-02    1.0911438E-09
 -6.2399998E-02    7.0691414E-10
 -6.1799999E-02    1.7421681E-10
 -6.1200000E-02   -4.7789039E-10
 -6.0600001E-02   -1.2024862E-09
 -5.9999999E-02   -1.9367108E-09
 -5.9400000E-02   -2.6056917E-09
 -5.8800001E-02   -3.1283525E-09
 -5.8200002E-02   -3.4247882E-09
 -5.7599999E-02   -3.4246630E-09
 -5.7000000E-02   -3.0759228E-09
 -5.6400001E-02   -2.3529780E-09
 -5.5799998E-02   -1.2634509E-09
 -5.5199999E-02    1.4738603E-10
 -5.4600000E-02    1.7952422E-09
 -5.4000001E-02    3.5590559E-09
 -5.3399999E-02    5.2871281E-09
 -5.2800000E-02    6.8070585E-09
 -5.2200001E-02    7.9390272E-09
 -5.1600002E-02    8.5115976E-09
 -5.0999999E-02    8.3788665E-09
 -5.0400000E-02    7.4375603E-09
 -4.9800001E-02    5.6424851E-09
 -4.9199998E-02    3.0187455E-09
 -4.8599999E-02   -3.3074482E-10
 -4.8000000E-02   -4.2236703E-09
 -4.7400001E-02   -8.4034477E-09
 -4.6799999E-02   -1.2551399E-08
 -4.6200000E-02   -1.6305682E-08
 -4.5600001E-02   -1.9286130E-08
 -4.5000002E-02   -2.1123517E-08
 -4.4399999E-02   -2.1491330E-08
 -4.3800000E-02   -2.0137691E-08
 -4.3200001E-02   -1.6914882E-08
 -4.2599998E-02   -1.1803894E-08
 -4.1999999E-02   -4.9315783E-09
 -4.1400000E-02    3.4216454E-09
 -4.0800001E-02    1.2824990E-08
 -4.0199999E-02    2.2712211E-08
 -3.9600000E-02    3.2408181E-08
 -3.9000001E-02    4.1166253E-08
 -3.8400002E-02    4.8214641E-08
 -3.7799999E-02    5.2809337E-08
 -3.7200000E-02    5.4290336E-08
 -3.6600001E-02    5.2137565E-08
 -3.5999998E-02    4.6022567E-08
 -3.5399999E-02    3.5852050E-08
 -3.4800000E-02    2.1799567E-08
 -3.4200002E-02    4.3222004E-09
 -3.3599999E-02   -1.5840250E-08
 -3.3000000E-02   -3.7685062E-08
 -3.2400001E-02   -5.9985787E-08
 -3.1800002E-02   -8.1350017E-08
 -3.1199999E-02   -1.0029370E-07
 -3.0600000E-02   -1.1532865E-07
 -2.9999999E-02   -1.2505876E-07
 -2.9400000E-02   -1.2827955E-07
 -2.8800000E-02   -1.2407487E-07
 -2.8200001E-02   -1.1190409E-07
 -2.7600000E-02   -9.1673243E-08
 -2.7000001E-02   -6.3783908E-08
 -2.6400000E-02   -2.9154364E-08
 -2.5800001E-02    1.0791009E-08
 -2.5200000E-02    5.4166446E-08
 -2.4599999E-02    9.8703921E-08
 -2.4000000E-02    1.4186463E-07
 -2.3399999E-02    1.8097823E-07
 -2.2800000E-02    2.1340308E-07
 -2.2200000E-02    2.3669818E-07
 -2.1600001E-02    2.4879603E-07
 -2.1000000E-02    2.4816461E-07
 -2.0400001E-02    2.3394578E-07
 -1.9800000E-02    2.0605891E-07
 -1.9200001E-02    1.6525877E-07
 -1.8600000E-02    1.1314056E-07
 -1.7999999E-02    5.2087014E-08
 -1.7400000E-02   -1.4842914E-08
 -1.6799999E-02   -8.4080199E-08
 -1.6200000E-02   -1.5175871E-07
 -1.5600000E-02   -2.1396301E-07
 -1.5000000E-02   -2.6699533E-07
 -1.4400000E-02   -3.0764369E-07
 -1.3800000E-02   -3.3343150E-07
 -1.3200000E-02   -3.4282968E-07
 -1.2600000E-02   -3.3541306E-07
 -1.2000000E-02   -3.1194631E-07
 -1.1400000E-02   -2.7438909E-07
 -1.0800000E-02   -2.2581510E-07
 -1.0200000E-02   -1.7024573E-07
 -9.6000005E-03   -1.1240576E-07
 -8.9999996E-03   -5.7413988E-08
 -8.3999997E-03   -1.0427256E-08
 -7.7999998E-03    2.3739307E-08
 -7.1999999E-03    4.0990653E-08
 -6.6000000E-03    3.8302581E-08
 -6.0000001E-03    1.4019689E-08
 -5.4000001E-03   -3.1921797E-08
 -4.8000002E-03   -9.7863925E-08
 -4.1999999E-03   -1.8040137E-07
 -3.5999999E-03   -2.7446475E-07
 -3.0000000E-03   -3.7351023E-07
 -2.4000001E-03   -4.6980483E-07
 -1.8000000E-03   -5.5479103E-07
 -1.2000001E-03   -6.1950743E-07
 -6.0000003E-04   -6.5504003E-07
  0.0000000E+00   -6.5297479E-07
  6.0000003E-04   -6.0582340E-07
  1.2000001E-03   -5.0739595E-07
  1.8000000E-03   -3.5309756E-07
  2.4000001E-03   -1.4013133E-07
  3.0000000E-03    1.3240388E-07
  3.5999999E-03    4.6352585E-07
  4.1999999E-03    8.5049010E-07
  4.8000002E-03    1.2890125E-06
  5.4000001E-03    1.7735812E-06
  6.0000001E-03    2.2978420E-06
  6.6000000E-03    2.8550380E-06
  7.1999999E-03    3.4384859E-06
  7.7999998E-03    4.0420659E-06
  8.3999997E-03    4.6607101E-06
  8.9999996E-03    5.2908699E-06
  9.6000005E-03    5.9309482E-06
  1.0200000E-02    6.5816812E-06
  1.0800000E-02    7.2464659E-06
  1.1400000E-02    7.9316151E-06
  1.2000000E-02    8.6465461E-06
  1.2600000E-02    9.4038896E-06
  1.3200000E-02    1.0219529E-05
  1.3800000E-02    1.1112569E-05
  1.4400000E-02    1.2105235E-05
  1.5000000E-02    1.3222725E-05
  1.5600000E-02    1.4493018E-05
  1.6200000E-02    1.5946656E-05
  1.6799999E-02    1.7616512E-05
  1.7400000E-02    1.9537581E-05
  1.7999999E-02    2.1746773E-05
  1.8600000E-02    2.4282770E-05
  1.9200001E-02    2.7185912E-05
  1.9800000E-02    3.0498166E-05
  2.0400001E-02    3.4263136E-05
  2.1000000E-02    3.8526156E-05
  2.1600001E-02    4.3334414E-05
  2.2200000E-02    4.8737158E-05
  2.2800000E-02    5.4785913E-05
  2.3399999E-02    6.1534723E-05
  2.4000000E-02    6.9040449E-05
  2.4599999E-02    7.7363009E-05
  2.5200000E-02    8.6565713E-05
  2.5800001E-02    9.6715499E-05
  2.6400000E-02    1.0788328E-04
  2.7000001E-02    1.2014426E-04
  2.7600000E-02    1.3357829E-04
  2.8200001E-02    1.4827029E-04
  2.8800000E-02    1.6431071E-04
  2.9400000E-02    1.8179606E-04
  2.9999999E-02    2.0082959E-04
  3.0600000E-02    2.2152188E-04
  3.1199999E-02    2.4399173E-04
  3.1800002E-02    2.6836683E-04
  3.2400001E-02    2.9478470E-04
  3.3000000E-02    3.2339329E-04
  3.3599999E-02    3.5435197E-04
  3.4200002E-02    3.8783182E-04
  3.4800000E-02    4.2401621E-04
  3.5399999E-02    4.6310085E-04
  3.5999998E-02    5.0529372E-04
  3.6600001E-02    5.5081461E-04
  3.7200000E-02    5.9989409E-04
  3.7799999E-02    6.5277255E-04
  3.8400002E-02    7.0969836E-04
  3.9000001E-02    7.7092601E-04
  3.9600000E-02    8.3671382E-04
  4.0199999E-02    9.0732152E-04
  4.0800001E-02    9.8300737E-04
  4.1400000E-02    1.0640256E-03
  4.1999999E-02    1.1506232E-03
  4.2599998E-02    1.2430379E-03
  4.3200001E-02    1.3414951E-03
  4.3800000E-02    1.4462058E-03
  4.4399999E-02    1.5573647E-03
  4.5000002E-02    1.6751484E-03
  4.5600001E-02    1.7997139E-03
  4.6200000E-02    1.9311979E-03
  4.6799999E-02    2.0697156E-03
  4.7400001E-02    2.2153601E-03
  4.8000000E-02    2.3682017E-03
  4.8599999E-02    2.5282882E-03
  4.9199998E-02    2.6956422E-03
  4.9800001E-02    2.8702621E-03
  5.0400000E-02    3.0521201E-03
  5.0999999E-02    3.2411602E-03
  5.1600002E-02    3.4372970E-03
  5.2200001E-02    3.6404121E-03
  5.2800000E-02    3.8503511E-03
  5.3399999E-02    4.0669208E-03
  5.4000001E-02    4.2898837E-03
  5.4600000E-02    4.5189532E-03
  5.5199999E-02    4.7537894E-03
  5.5799998E-02    4.9939919E-03
  5.6400001E-02    5.2390937E-03
  5.7000000E-02    5.4885549E-03
  5.7599999E-02    5.7417569E-03
  5.8200002E-02    5.9979940E-03
  5.8800001E-02    6.2564672E-03
  5.9400000E-02    6.5162797E-03
  5.9999999E-02    6.7764274E-03
  6.0600001E-02    7.0357979E-03
  6.1200000E-02    7.2931633E-03
  6.1799999E-02    7.5471792E-03
  6.2399998E-02    7.7963811E-03
  6.3000001E-02    8.0391848E-03
  6.3600004E-02    8.2738893E-03
  6.4199999E-02    8.4986752E-03
  6.4800002E-02    8.7116165E-03
  6.5399997E-02    8.9106802E-03
  6.6000000E-02    9.0937400E-03
  6.6600002E-02    9.2585823E-03
  6.7199998E-02    9.4029205E-03
  6.7800000E-02    9.5244087E-03
  6.8400003E-02    9.6206507E-03
  6.8999998E-02    9.6892212E-03
  6.9600001E-02    9.7276755E-03
  7.0200004E-02    9.7335698E-03
  7.0799999E-02    9.7044734E-03
  7.1400002E-02    9.6379844E-03
  7.1999997E-02    9.5317448E-03
  7.2600000E-02    9.3834531E-03
  7.3200002E-02    9.1908779E-03
  7.3799998E-02    8.9518698E-03
  7.4400000E-02    8.6643687E-03
  7.5000003E-02    8.3264168E-03
  7.5599998E-02    7.9361675E-03
  7.6200001E-02    7.4918903E-03
  7.6800004E-02    6.9919843E-03
  7.7399999E-02    6.4349831E-03
  7.8000002E-02    5.8195656E-03
  7.8599997E-02    5.1445686E-03
  7.9200000E-02    4.4089979E-03
  7.9800002E-02    3.6120440E-03
  8.0399998E-02    2.7530999E-03
  8.1000000E-02    1.8317804E-03
  8.1600003E-02    8.4794674E-04
  8.2199998E-02   -1.9827019E-04
  8.2800001E-02   -1.3064411E-03
  8.3400004E-02   -2.4758102E-03
  8.3999999E-02   -3.7052645E-03
  8.4600002E-02   -4.9933055E-03
  8.5199997E-02   -6.3380189E-03
  8.5800000E-02   -7.7370498E-03
  8.6400002E-02   -9.1875782E-03
  8.6999997E-02   -1.0686301E-02
  8.7600000E-02   -1.2229417E-02
  8.8200003E-02   -1.3812619E-02
  8.8799998E-02   -1.5431098E-02
  8.9400001E-02   -1.7079540E-02
  9.0000004E-02   -1.8752148E-02
  9.0599999E-02   -2.0442665E-02
  9.1200002E-02   -2.2144387E-02
  9.1799997E-02   -2.3850219E-02
  9.2399999E-02   -2.5552701E-02
  9.3000002E-02   -2.7244059E-02
  9.3599997E-02   -2.8916255E-02
  9.4200000E-02   -3.0561034E-02
  9.4800003E-02   -3.2169983E-02
  9.5399998E-02   -3.3734579E-02
  9.6000001E-02   -3.5246249E-02
  9.6600004E-02   -3.6696404E-02
  9.7199999E-02   -3.8076505E-02
  9.7800002E-02   -3.9378084E-02
  9.8399997E-02   -4.0592812E-02
  9.8999999E-02   -4.1712500E-02
  9.9600002E-02   -4.2729154E-02
  0.1002000       -4.3634996E-02
  0.1008000       -4.4422489E-02
  0.1014000       -4.5084361E-02
  0.1020000       -4.5613643E-02
  0.1026000       -4.6003673E-02
  0.1032000       -4.6248145E-02
  0.1038000       -4.6341140E-02
  0.1044000       -4.6277154E-02
  0.1050000       -4.6051148E-02
  0.1056000       -4.5658603E-02
  0.1062000       -4.5095563E-02
  0.1068000       -4.4358701E-02
  0.1074000       -4.3445375E-02
  0.1080000       -4.2353697E-02
  0.1086000       -4.1082595E-02
  0.1092000       -3.9631870E-02
  0.1098000       -3.8002264E-02
  0.1104000       -3.6195491E-02
  0.1110000       -3.4214307E-02
  0.1116000       -3.2062516E-02
  0.1122000       -2.9745005E-02
  0.1128000       -2.7267739E-02
  0.1134000       -2.4637759E-02
  0.1140000       -2.1863151E-02
  0.1146000       -1.8953016E-02
  0.1152000       -1.5917404E-02
  0.1158000       -1.2767262E-02
  0.1164000       -9.5143430E-03
  0.1170000       -6.1711315E-03
  0.1176000       -2.7507395E-03
  0.1182000        7.3318690E-04
  0.1188000        4.2665671E-03
  0.1194000        7.8349886E-03
  0.1200000        1.1423799E-02
  0.1206000        1.5018206E-02
  0.1212000        1.8603353E-02
  0.1218000        2.2164404E-02
  0.1224000        2.5686614E-02
  0.1230000        2.9155385E-02
  0.1236000        3.2556321E-02
  0.1242000        3.5875291E-02
  0.1248000        3.9098434E-02
  0.1254000        4.2212240E-02
  0.1260000        4.5203559E-02
  0.1266000        4.8059646E-02
  0.1272000        5.0768189E-02
  0.1278000        5.3317368E-02
  0.1284000        5.5695891E-02
  0.1290000        5.7893042E-02
  0.1296000        5.9898742E-02
  0.1302000        6.1703622E-02
  0.1308000        6.3299090E-02
  0.1314000        6.4677380E-02
  0.1320000        6.5831676E-02
  0.1326000        6.6756159E-02
  0.1332000        6.7446068E-02
  0.1338000        6.7897812E-02
  0.1344000        6.8109013E-02
  0.1350000        6.8078555E-02
  0.1356000        6.7806646E-02
  0.1362000        6.7294821E-02
  0.1368000        6.6546001E-02
  0.1374000        6.5564431E-02
  0.1380000        6.4355701E-02
  0.1386000        6.2926687E-02
  0.1392000        6.1285503E-02
  0.1398000        5.9441417E-02
  0.1404000        5.7404764E-02
  0.1410000        5.5186842E-02
  0.1416000        5.2799802E-02
  0.1422000        5.0256524E-02
  0.1428000        4.7570478E-02
  0.1434000        4.4755623E-02
  0.1440000        4.1826252E-02
  0.1446000        3.8796887E-02
  0.1452000        3.5682168E-02
  0.1458000        3.2496724E-02
  0.1464000        2.9255109E-02
  0.1470000        2.5971696E-02
  0.1476000        2.2660613E-02
  0.1482000        1.9335685E-02
  0.1488000        1.6010383E-02
  0.1494000        1.2697793E-02
  0.1500000        9.4105732E-03
  0.1506000        6.1609456E-03
  0.1512000        2.9606745E-03
  0.1518000       -1.7894710E-04
  0.1524000       -3.2471062E-03
  0.1530000       -6.2334812E-03
  0.1536000       -9.1282520E-03
  0.1542000       -1.1922114E-02
  0.1548000       -1.4606296E-02
  0.1554000       -1.7172579E-02
  0.1560000       -1.9613324E-02
  0.1566000       -2.1921495E-02
  0.1572000       -2.4090704E-02
  0.1578000       -2.6115227E-02
  0.1584000       -2.7990071E-02
  0.1590000       -2.9710982E-02
  0.1596000       -3.1274509E-02
  0.1602000       -3.2678019E-02
  0.1608000       -3.3919740E-02
  0.1614000       -3.4998789E-02
  0.1620000       -3.5915174E-02
  0.1626000       -3.6669802E-02
  0.1632000       -3.7264485E-02
  0.1638000       -3.7701916E-02
  0.1644000       -3.7985630E-02
  0.1650000       -3.8119979E-02
  0.1656000       -3.8110062E-02
  0.1662000       -3.7961677E-02
  0.1668000       -3.7681229E-02
  0.1674000       -3.7275676E-02
  0.1680000       -3.6752418E-02
  0.1686000       -3.6119234E-02
  0.1692000       -3.5384174E-02
  0.1698000       -3.4555487E-02
  0.1704000       -3.3641540E-02
  0.1710000       -3.2650709E-02
  0.1716000       -3.1591352E-02
  0.1722000       -3.0471694E-02
  0.1728000       -2.9299797E-02
  0.1734000       -2.8083494E-02
  0.1740000       -2.6830342E-02
  0.1746000       -2.5547583E-02
  0.1752000       -2.4242118E-02
  0.1758000       -2.2920482E-02
  0.1764000       -2.1588825E-02
  0.1770000       -2.0252908E-02
  0.1776000       -1.8918108E-02
  0.1782000       -1.7589418E-02
  0.1788000       -1.6271459E-02
  0.1794000       -1.4968503E-02
  0.1800000       -1.3684492E-02
  0.1806000       -1.2423055E-02
  0.1812000       -1.1187543E-02
  0.1818000       -9.9810390E-03
  0.1824000       -8.8063851E-03
  0.1830000       -7.6662004E-03
  0.1836000       -6.5628896E-03
  0.1842000       -5.4986565E-03
  0.1848000       -4.4755056E-03
  0.1854000       -3.4952417E-03
  0.1860000       -2.5594712E-03
  0.1866000       -1.6695916E-03
  0.1872000       -8.2678819E-04
  0.1878000       -3.2025124E-05
  0.1884000        7.1396097E-04
  0.1890000        1.4106664E-03
  0.1896000        2.0578243E-03
  0.1902000        2.6554060E-03
  0.1908000        3.2036207E-03
  0.1914000        3.7029111E-03
  0.1920000        4.1539511E-03
  0.1926000        4.5576361E-03
  0.1932000        4.9150772E-03
  0.1938000        5.2275904E-03
  0.1944000        5.4966854E-03
  0.1950000        5.7240524E-03
  0.1956000        5.9115510E-03
  0.1962000        6.0611893E-03
  0.1968000        6.1751101E-03
  0.1974000        6.2555675E-03
  0.1980000        6.3049048E-03
  0.1986000        6.3255313E-03
  0.1992000        6.3198931E-03
  0.1998000        6.2904479E-03
  0.2004000        6.2396349E-03
  0.2010000        6.1698463E-03
  0.2016000        6.0834023E-03
  0.2022000        5.9825233E-03
  0.2028000        5.8693085E-03
  0.2034000        5.7457155E-03
  0.2040000        5.6135450E-03
  0.2046000        5.4744272E-03
  0.2052000        5.3298161E-03
  0.2058000        5.1809833E-03
  0.2064000        5.0290199E-03
  0.2070000        4.8748408E-03
  0.2076000        4.7191945E-03
  0.2082000        4.5626718E-03
  0.2088000        4.4057262E-03
  0.2094000        4.2486885E-03
  0.2100000        4.0917899E-03
  0.2106000        3.9351839E-03
  0.2112000        3.7789708E-03
  0.2118000        3.6232197E-03
  0.2124000        3.4679929E-03
  0.2130000        3.3133668E-03
  0.2136000        3.1594490E-03
  0.2142000        3.0063938E-03
  0.2148000        2.8544131E-03
  0.2154000        2.7037810E-03
  0.2160000        2.5548362E-03
  0.2166000        2.4079778E-03
  0.2172000        2.2636587E-03
  0.2178000        2.1223747E-03
  0.2184000        1.9846500E-03
  0.2190000        1.8510231E-03
  0.2196000        1.7220295E-03
  0.2202000        1.5981860E-03
  0.2208000        1.4799734E-03
  0.2214000        1.3678223E-03
  0.2220000        1.2620984E-03
  0.2226000        1.1630910E-03
  0.2232000        1.0710019E-03
  0.2238000        9.8593673E-04
  0.2244000        9.0789946E-04
  0.2250000        8.3678815E-04
  0.2256000        7.7239412E-04
  0.2262000        7.1440457E-04
  0.2268000        6.6240854E-04
  0.2274000        6.1590679E-04
  0.2280000        5.7432620E-04
  0.2286000        5.3703767E-04
  0.2292000        5.0337776E-04
  0.2298000        4.7267287E-04
  0.2304000        4.4426534E-04
  0.2310000        4.1753947E-04
  0.2316000        3.9194606E-04
  0.2322000        3.6702389E-04
  0.2328000        3.4241626E-04
  0.2334000        3.1788155E-04
  0.2340000        2.9329673E-04
  0.2346000        2.6865333E-04
  0.2352000        2.4404631E-04
  0.2358000        2.1965669E-04
  0.2364000        1.9572899E-04
  0.2370000        1.7254565E-04
  0.2376000        1.5040037E-04
  0.2382000        1.2957247E-04
  0.2388000        1.1030411E-04
  0.2394000        9.2782415E-05
  0.2400000        7.7127035E-05
  0.2406000        6.3384257E-05
  0.2412000        5.1527266E-05
  0.2418000        4.1462161E-05
  0.2424000        3.3038599E-05
  0.2430000        2.6063781E-05
  0.2436000        2.0318241E-05
  0.2442000        1.5572043E-05
  0.2448000        1.1600067E-05
  0.2454000        8.1953958E-06
  0.2460000        5.1800885E-06
  0.2466000        2.4130325E-06
  0.2472000       -2.0522089E-07
  0.2478000       -2.7304552E-06
  0.2484000       -5.1753286E-06
  0.2490000       -7.5121106E-06
  0.2496000       -9.6772810E-06
  0.2502000       -1.1577727E-05
  0.2508000       -1.3098317E-05
  0.2514000       -1.4110689E-05
  0.2520000       -1.4483066E-05
  0.2526000       -1.4090847E-05
  0.2532000       -1.2827619E-05
  0.2538000       -1.0616060E-05
  0.2544000       -7.4180712E-06
  0.2550000       -3.2433718E-06
  0.2556000        1.8443023E-06
  0.2562000        7.7241612E-06
  0.2568000        1.4219127E-05
  0.2574000        2.1100806E-05
  0.2580000        2.8098690E-05
  0.2586000        3.4913286E-05
  0.2592000        4.1232466E-05
  0.2598000        4.6749956E-05
  0.2604000        5.1184710E-05
  0.2610000        5.4299711E-05
  0.2616000        5.5918728E-05
  0.2622000        5.5939821E-05
  0.2628000        5.4344462E-05
  0.2634000        5.1201630E-05
  0.2640000        4.6666570E-05
  0.2646000        4.0974257E-05
  0.2652000        3.4428114E-05
  0.2658000        2.7384584E-05
  0.2664000        2.0234640E-05
  0.2670000        1.3383220E-05
  0.2676000        7.2276894E-06
  0.2682000        2.1364344E-06
  0.2688000       -1.5714467E-06
  0.2694000       -3.6444392E-06
  0.2700000       -3.9140823E-06
  0.2706000       -2.3068881E-06
  0.2712000        1.1479319E-06
  0.2718000        6.3154971E-06
  0.2724000        1.2957492E-05
  0.2730000        2.0739901E-05
  0.2736000        2.9246334E-05
  0.2742000        3.7996742E-05
  0.2748000        4.6470966E-05
  0.2754000        5.4136202E-05
  0.2760000        6.0476992E-05
  0.2766000        6.5026070E-05
  0.2772000        6.7393972E-05
  0.2778000        6.7295347E-05
  0.2784000        6.4569693E-05
  0.2790000        5.9194772E-05
  0.2796000        5.1291132E-05
  0.2802000        4.1116993E-05
  0.2808000        2.9053444E-05
  0.2814000        1.5580776E-05
  0.2820000        1.2475796E-06
  0.2826000       -1.3365003E-05
  0.2832000       -2.7681035E-05
  0.2838000       -4.1166408E-05
  0.2844000       -5.3361269E-05
  0.2850000       -6.3905580E-05
  0.2856000       -7.2555820E-05
  0.2862000       -7.9191610E-05
  0.2868000       -8.3812229E-05
  0.2874000       -8.6523796E-05
  0.2880000       -8.7518951E-05
  0.2886000       -8.7051398E-05
  0.2892000       -8.5408334E-05
  0.2898000       -8.2883394E-05
  0.2904000       -7.9753088E-05
  0.2910000       -7.6258446E-05
  0.2916000       -7.2593422E-05
  0.2922000       -6.8900292E-05
  0.2928000       -6.5271575E-05
  0.2934000       -6.1757200E-05
  0.2940000       -5.8375084E-05
  0.2946000       -5.5123073E-05
  0.2952000       -5.1990104E-05
  0.2958000       -4.8964943E-05
  0.2964000       -4.6041292E-05
  0.2970000       -4.3218744E-05
  0.2976000       -4.0499890E-05
  0.2982000       -3.7884438E-05
  0.2988000       -3.5361765E-05
  0.2994000       -3.2903503E-05
  0.3000000       -3.0457857E-05
  0.3006000       -2.7946982E-05
  0.3012000       -2.5268320E-05
  0.3018000       -2.2300190E-05
  0.3024000       -1.8911229E-05
  0.3030000       -1.4972694E-05
  0.3036000       -1.0372162E-05
  0.3042000       -5.0269105E-06
  0.3048000        1.1047728E-06
  0.3054000        8.0158534E-06
  0.3060000        1.5647480E-05
  0.3066000        2.3891071E-05
  0.3072000        3.2595417E-05
  0.3078000        4.1578001E-05
  0.3084000        5.0639243E-05
  0.3090000        5.9578004E-05
  0.3096000        6.8206573E-05
  0.3102000        7.6363365E-05
  0.3108000        8.3922008E-05
  0.3114000        9.0795802E-05
  0.3120000        9.6937292E-05
  0.3126000        1.0233308E-04
  0.3132000        1.0699493E-04
  0.3138000        1.1094813E-04
  0.3144000        1.1421908E-04
  0.3150000        1.1682349E-04
  0.3156000        1.1875682E-04
  0.3162000        1.1998841E-04
  0.3168000        1.2045985E-04
  0.3174000        1.2008803E-04
  0.3180000        1.1877256E-04
  0.3186000        1.1640668E-04
  0.3192000        1.1289035E-04
  0.3198000        1.0814409E-04
  0.3204000        1.0212167E-04
  0.3210000        9.4820338E-05
  0.3216000        8.6287058E-05
  0.3222000        7.6619952E-05
  0.3228000        6.5964654E-05
  0.3234000        5.4505701E-05
  0.3240000        4.2453903E-05
  0.3246000        3.0030835E-05
  0.3252000        1.7452203E-05
  0.3258000        4.9118680E-06
  0.3264000       -7.4317295E-06
  0.3270000       -1.9465122E-05
  0.3276000       -3.1124222E-05
  0.3282000       -4.2392963E-05
  0.3288000       -5.3296168E-05
  0.3294000       -6.3887288E-05
  0.3300000       -7.4232274E-05
  0.3306000       -8.4391184E-05
  0.3312000       -9.4399657E-05
  0.3318000       -1.0425224E-04
  0.3324000       -1.1388963E-04
  0.3330000       -1.2319138E-04
  0.3336000       -1.3197532E-04
  0.3342000       -1.4000409E-04
  0.3348000       -1.4699872E-04
  0.3354000       -1.5265796E-04
  0.3360000       -1.5668228E-04
  0.3366000       -1.5879991E-04
  0.3372000       -1.5879299E-04
  0.3378000       -1.5652073E-04
  0.3384000       -1.5193796E-04
  0.3390000       -1.4510624E-04
  0.3396000       -1.3619704E-04
  0.3402000       -1.2548560E-04
  0.3408000       -1.1333618E-04
  0.3414000       -1.0017944E-04
  0.3420000       -8.6483939E-05
  0.3426000       -7.2724004E-05
  0.3432000       -5.9346672E-05
  0.3438000       -4.6740759E-05
  0.3444000       -3.5210483E-05
  0.3450000       -2.4956129E-05
  0.3456000       -1.6063226E-05
  0.3462000       -8.5011106E-06
  0.3468000       -2.1308281E-06
  0.3474000        3.2785517E-06
  0.3480000        8.0268201E-06
  0.3486000        1.2454919E-05
  0.3492000        1.6915154E-05
  0.3498000        2.1741896E-05
  0.3504000        2.7225180E-05
  0.3510000        3.3589145E-05
  0.3516000        4.0976749E-05
  0.3522000        4.9441478E-05
  0.3528000        5.8946094E-05
  0.3534000        6.9367888E-05
  0.3540000        8.0509373E-05
  0.3546000        9.2113027E-05
  0.3552000        1.0387856E-04
  0.3558000        1.1548117E-04
  0.3564000        1.2658945E-04
  0.3570000        1.3688185E-04
  0.3576000        1.4606077E-04
  0.3582000        1.5386417E-04
  0.3588000        1.6007405E-04
  0.3594000        1.6452227E-04
  0.3600000        1.6709368E-04
  0.3606000        1.6772686E-04
  0.3612000        1.6641295E-04
  0.3618000        1.6319264E-04
  0.3624000        1.5815167E-04
  0.3630000        1.5141511E-04
  0.3636000        1.4314060E-04
  0.3642000        1.3351078E-04
  0.3648000        1.2272496E-04
  0.3654000        1.1099067E-04
  0.3660000        9.8515171E-05
  0.3666000        8.5497144E-05
  0.3672000        7.2119357E-05
  0.3678000        5.8542231E-05
  0.3684000        4.4898836E-05
  0.3690000        3.1291638E-05
  0.3696000        1.7791044E-05
  0.3702000        4.4360440E-06
  0.3708000       -8.7631088E-06
  0.3714000       -2.1820137E-05
  0.3720000       -3.4766064E-05
  0.3726000       -4.7640820E-05
  0.3732000       -6.0483479E-05
  0.3738000       -7.3321622E-05
  0.3744000       -8.6160355E-05
  0.3750000       -9.8971854E-05
  0.3756000       -1.1168612E-04
  0.3762000       -1.2418409E-04
  0.3768000       -1.3629378E-04
  0.3774000       -1.4779050E-04
  0.3780000       -1.5840179E-04
  0.3786000       -1.6781718E-04
  0.3792000       -1.7570308E-04
  0.3798000       -1.8172200E-04
  0.3804000       -1.8555511E-04
  0.3810000       -1.8692676E-04
  0.3816000       -1.8562899E-04
  0.3822000       -1.8154377E-04
  0.3828000       -1.7466098E-04
  0.3834000       -1.6508982E-04
  0.3840000       -1.5306221E-04
  0.3846000       -1.3892705E-04
  0.3852000       -1.2313487E-04
  0.3858000       -1.0621390E-04
  0.3864000       -8.8738423E-05
  0.3870000       -7.1292314E-05
  0.3876000       -5.4430264E-05
  0.3882000       -3.8640123E-05
  0.3888000       -2.4309787E-05
  0.3894000       -1.1701673E-05
  0.3900000       -9.3725197E-07
  0.3906000        8.0066720E-06
  0.3912000        1.5289466E-05
  0.3918000        2.1186590E-05
  0.3924000        2.6059743E-05
  0.3930000        3.0320054E-05
  0.3936000        3.4387824E-05
  0.3942000        3.8652732E-05
  0.3948000        4.3438336E-05
  0.3954000        4.8974311E-05
  0.3960000        5.5378885E-05
  0.3966000        6.2653067E-05
  0.3972000        7.0686685E-05
  0.3978000        7.9275247E-05
  0.3984000        8.8145272E-05
  0.3990000        9.6985023E-05
  0.3996000        1.0547687E-04
  0.4002000        1.1332778E-04
  0.4008000        1.2029422E-04
  0.4014000        1.2619937E-04
  0.4020000        1.3094064E-04
  0.4026000        1.3448751E-04
  0.4032000        1.3687056E-04
  0.4038000        1.3816345E-04
  0.4044000        1.3846108E-04
  0.4050000        1.3785665E-04
  0.4056000        1.3642116E-04
  0.4062000        1.3418811E-04
  0.4068000        1.3114515E-04
  0.4074000        1.2723409E-04
  0.4080000        1.2235885E-04
  0.4086000        1.1640035E-04
  0.4092000        1.0923627E-04
  0.4098000        1.0076298E-04
  0.4104000        9.0916787E-05
  0.4110000        7.9691701E-05
  0.4116000        6.7151450E-05
  0.4122000        5.3434174E-05
  0.4128000        3.8749189E-05
  0.4134000        2.3366169E-05
  0.4140000        7.5979829E-06
  0.4146000       -8.2208217E-06
  0.4152000       -2.3757502E-05
  0.4158000       -3.8703933E-05
  0.4164000       -5.2796335E-05
  0.4170000       -6.5829910E-05
  0.4176000       -7.7666933E-05
  0.4182000       -8.8237837E-05
  0.4188000       -9.7535354E-05
  0.4194000       -1.0560276E-04
  0.4200000       -1.1251790E-04
  0.4206000       -1.1837482E-04
  0.4212000       -1.2326552E-04
  0.4218000       -1.2726375E-04
  0.4224000       -1.3041278E-04
  0.4230000       -1.3271866E-04
  0.4236000       -1.3414945E-04
  0.4242000       -1.3464064E-04
  0.4248000       -1.3410585E-04