 -0.1200000        0.0000000E+00
 -0.1194000        2.4438165E-07
 -0.1188000        7.5770311E-07
 -0.1182000        1.5584130E-06
 -0.1176000        2.6587882E-06
 -0.1170000        4.0652335E-06
 -0.1164000        5.7789362E-06
 -0.1158000        7.7968416E-06
 -0.1152000        1.0112917E-05
 -0.1146000        1.2719637E-05
 -0.1140000        1.5609639E-05
 -0.1134000        1.8777468E-05
 -0.1128000        2.2221348E-05
 -0.1122000        2.5944912E-05
 -0.1116000        2.9958823E-05
 -0.1110000        3.4282239E-05
 -0.1104000        3.8944087E-05
 -0.1098000        4.3984102E-05
 -0.1092000        4.9453658E-05
 -0.1086000        5.5416349E-05
 -0.1080000        6.1948369E-05
 -0.1074000        6.9138710E-05
 -0.1068000        7.7089229E-05
 -0.1062000        8.5914573E-05
 -0.1056000        9.5742107E-05
 -0.1050000        1.0671181E-04
 -0.1044000        1.1897621E-04
 -0.1038000        1.3270044E-04
 -0.1032000        1.4806241E-04
 -0.1026000        1.6525309E-04
 -0.1020000        1.8447718E-04
 -0.1014000        2.0595368E-04
 -0.1008000        2.2991697E-04
 -0.1002000        2.5661808E-04
 -9.9600002E-02    2.8632596E-04
 -9.8999999E-02    3.1932941E-04
 -9.8399997E-02    3.5593886E-04
 -9.7800002E-02    3.9648844E-04
 -9.7199999E-02    4.4133846E-04
 -9.6600004E-02    4.9087772E-04
 -9.6000001E-02    5.4552633E-04
 -9.5399998E-02    6.0573808E-04
 -9.4800003E-02    6.7200355E-04
 -9.4200000E-02    7.4485259E-04
 -9.3599997E-02    8.2485744E-04
 -9.3000002E-02    9.1263518E-04
 -9.2399999E-02    1.0088505E-03
 -9.1799997E-02    1.1142186E-03
 -9.1200002E-02    1.2295073E-03
 -9.0599999E-02    1.3555397E-03
 -9.0000004E-02    1.4931965E-03
 -8.9400001E-02    1.6434185E-03
 -8.8799998E-02    1.8072084E-03
 -8.8200003E-02    1.9856337E-03
 -8.7600000E-02    2.1798278E-03
 -8.6999997E-02    2.3909928E-03
 -8.6400002E-02    2.6204018E-03
 -8.5800000E-02    2.8694002E-03
 -8.5199997E-02    3.1394081E-03
 -8.4600002E-02    3.4319223E-03
 -8.3999999E-02    3.7485173E-03
 -8.3400004E-02    4.0908484E-03
 -8.2800001E-02    4.4606505E-03
 -8.2199998E-02    4.8597432E-03
 -8.1600003E-02    5.2900258E-03
 -8.1000000E-02    5.7534836E-03
 -8.0399998E-02    6.2521831E-03
 -7.9800002E-02    6.7882724E-03
 -7.9200000E-02    7.3639820E-03
 -7.8599997E-02    7.9816189E-03
 -7.8000002E-02    8.6435657E-03
 -7.7399999E-02    9.3522798E-03
 -7.6800004E-02    1.0110282E-02
 -7.6200001E-02    1.0920160E-02
 -7.5599998E-02    1.1784554E-02
 -7.5000003E-02    1.2706157E-02
 -7.4400000E-02    1.3687702E-02
 -7.3799998E-02    1.4731958E-02
 -7.3200002E-02    1.5841713E-02
 -7.2600000E-02    1.7019773E-02
 -7.1999997E-02    1.8268943E-02
 -7.1400002E-02    1.9592017E-02
 -7.0799999E-02    2.0991763E-02
 -7.0200004E-02    2.2470912E-02
 -6.9600001E-02    2.4032133E-02
 -6.8999998E-02    2.5678027E-02
 -6.8400003E-02    2.7411100E-02
 -6.7800000E-02    2.9233748E-02
 -6.7199998E-02    3.1148234E-02
 -6.6600002E-02    3.3156663E-02
 -6.6000000E-02    3.5260972E-02
 -6.5399997E-02    3.7462879E-02
 -6.4800002E-02    3.9763898E-02
 -6.4199999E-02    4.2165264E-02
 -6.3600004E-02    4.4667952E-02
 -6.3000001E-02    4.7272623E-02
 -6.2399998E-02    4.9979590E-02
 -6.1799999E-02    5.2788820E-02
 -6.1200000E-02    5.5699863E-02
 -6.0600001E-02    5.8711860E-02
 -5.9999999E-02    6.1823487E-02
 -5.9400000E-02    6.5032937E-02
 -5.8800001E-02    6.8337888E-02
 -5.8200002E-02    7.1735464E-02
 -5.7599999E-02    7.5222231E-02
 -5.7000000E-02    7.8794144E-02
 -5.6400001E-02    8.2446523E-02
 -5.5799998E-02    8.6174048E-02
 -5.5199999E-02    8.9970708E-02
 -5.4600000E-02    9.3829803E-02
 -5.4000001E-02    9.7743906E-02
 -5.3399999E-02    0.1017049    
 -5.2800000E-02    0.1057038    
 -5.2200001E-02    0.1097309    
 -5.1600002E-02    0.1137760    
 -5.0999999E-02    0.1178276    
 -5.0400000E-02    0.1218739    
 -4.9800001E-02    0.1259021    
 -4.9199998E-02    0.1298987    
 -4.8599999E-02    0.1338494    
 -4.8000000E-02    0.1377393    
 -4.7400001E-02    0.1415526    
 -4.6799999E-02    0.1452731    
 -4.6200000E-02    0.1488836    
 -4.5600001E-02    0.1523665    
 -4.5000002E-02    0.1557038    
 -4.4399999E-02    0.1588767    
 -4.3800000E-02    0.1618660    
 -4.3200001E-02    0.1646522    
 -4.2599998E-02    0.1672154    
 -4.1999999E-02    0.1695355    
 -4.1400000E-02    0.1715923    
 -4.0800001E-02    0.1733653    
 -4.0199999E-02    0.1748341    
 -3.9600000E-02    0.1759785    
 -3.9000001E-02    0.1767782    
 -3.8400002E-02    0.1772135    
 -3.7799999E-02    0.1772650    
 -3.7200000E-02    0.1769136    
 -3.6600001E-02    0.1761412    
 -3.5999998E-02    0.1749301    
 -3.5399999E-02    0.1732636    
 -3.4800000E-02    0.1711259    
 -3.4200002E-02    0.1685023    
 -3.3599999E-02    0.1653793    
 -3.3000000E-02    0.1617449    
 -3.2400001E-02    0.1575880    
 -3.1800002E-02    0.1528997    
 -3.1199999E-02    0.1476723    
 -3.0600000E-02    0.1418999    
 -2.9999999E-02    0.1355785    
 -2.9400000E-02    0.1287062    
 -2.8800000E-02    0.1212829    
 -2.8200001E-02    0.1133106    
 -2.7600000E-02    0.1047935    
 -2.7000001E-02    9.5738217E-02
 -2.6400000E-02    8.6153366E-02
 -2.5800001E-02    7.6050043E-02
 -2.5200000E-02    6.5441638E-02
 -2.4599999E-02    5.4343931E-02
 -2.4000000E-02    4.2775061E-02
 -2.3399999E-02    3.0755542E-02
 -2.2800000E-02    1.8308226E-02
 -2.2200000E-02    5.4582795E-03
 -2.1600001E-02   -7.7668619E-03
 -2.1000000E-02   -2.1337554E-02
 -2.0400001E-02   -3.5222020E-02
 -1.9800000E-02   -4.9386427E-02
 -1.9200001E-02   -6.3795008E-02
 -1.8600000E-02   -7.8410134E-02
 -1.7999999E-02   -9.3192503E-02
 -1.7400000E-02   -0.1081012    
 -1.6799999E-02   -0.1230939    
 -1.6200000E-02   -0.1381270    
 -1.5600000E-02   -0.1531559    
 -1.5000000E-02   -0.1681349    
 -1.4400000E-02   -0.1830178    
 -1.3800000E-02   -0.1977576    
 -1.3200000E-02   -0.2123073    
 -1.2600000E-02   -0.2266196    
 -1.2000000E-02   -0.2406473    
 -1.1400000E-02   -0.2543435    
 -1.0800000E-02   -0.2676619    
 -1.0200000E-02   -0.2805570    
 -9.6000005E-03   -0.2929842    
 -8.9999996E-03   -0.3049000    
 -8.3999997E-03   -0.3162625    
 -7.7999998E-03   -0.3270313    
 -7.1999999E-03   -0.3371679    
 -6.6000000E-03   -0.3466355    
 -6.0000001E-03   -0.3554000    
 -5.4000001E-03   -0.3634292    
 -4.8000002E-03   -0.3706937    
 -4.1999999E-03   -0.3771668    
 -3.5999999E-03   -0.3828244    
 -3.0000000E-03   -0.3876455    
 -2.4000001E-03   -0.3916122    
 -1.8000000E-03   -0.3947096    
 -1.2000001E-03   -0.3969263    
 -6.0000003E-04   -0.3982538    
  0.0000000E+00   -0.3986873    
  6.0000003E-04   -0.3982251    
  1.2000001E-03   -0.3968691    
  1.8000000E-03   -0.3946243    
  2.4000001E-03   -0.3914994    
  3.0000000E-03   -0.3875059    
  3.5999999E-03   -0.3826590    
  4.1999999E-03   -0.3769766    
  4.8000002E-03   -0.3704802    
  5.4000001E-03   -0.3631937    
  6.0000001E-03   -0.3551441    
  6.6000000E-03   -0.3463609    
  7.1999999E-03   -0.3368765    
  7.7999998E-03   -0.3267251    
  8.3999997E-03   -0.3159436    
  8.9999996E-03   -0.3045705    
  9.6000005E-03   -0.2926463    
  1.0200000E-02   -0.2802130    
  1.0800000E-02   -0.2673141    
  1.1400000E-02   -0.2539942    
  1.2000000E-02   -0.2402988    
  1.2600000E-02   -0.2262742    
  1.3200000E-02   -0.2119673    
  1.3800000E-02   -0.1974252    
  1.4400000E-02   -0.1826950    
  1.5000000E-02   -0.1678238    
  1.5600000E-02   -0.1528585    
  1.6200000E-02   -0.1378451    
  1.6799999E-02   -0.1228291    
  1.7400000E-02   -0.1078551    
  1.7999999E-02   -9.2966534E-02
  1.8600000E-02   -7.8205518E-02
  1.9200001E-02   -6.3612789E-02
  1.9800000E-02   -4.9227498E-02
  2.0400001E-02   -3.5087079E-02
  2.1000000E-02   -2.1227118E-02
  2.1600001E-02   -7.6812548E-03
  2.2200000E-02    5.5189203E-03
  2.2800000E-02    1.8343953E-02
  2.3399999E-02    3.0766599E-02
  2.4000000E-02    4.2761866E-02
  2.4599999E-02    5.4307085E-02
  2.5200000E-02    6.5381914E-02
  2.5800001E-02    7.5968370E-02
  2.6400000E-02    8.6050838E-02
  2.7000001E-02    9.5616043E-02
  2.7600000E-02    0.1046531    
  2.8200001E-02    0.1131533    
  2.8800000E-02    0.1211104    
  2.9400000E-02    0.1285201    
  2.9999999E-02    0.1353806    
  3.0600000E-02    0.1416918    
  3.1199999E-02    0.1474559    
  3.1800002E-02    0.1526769    
  3.2400001E-02    0.1573606    
  3.3000000E-02    0.1615145    
  3.3599999E-02    0.1651480    
  3.4200002E-02    0.1682716    
  3.4800000E-02    0.1708975    
  3.5399999E-02    0.1730392    
  3.5999998E-02    0.1747111    
  3.6600001E-02    0.1759291    
  3.7200000E-02    0.1767097    
  3.7799999E-02    0.1770703    
  3.8400002E-02    0.1770292    
  3.9000001E-02    0.1766052    
  3.9600000E-02    0.1758175    
  4.0199999E-02    0.1746859    
  4.0800001E-02    0.1732302    
  4.1400000E-02    0.1714708    
  4.1999999E-02    0.1694278    
  4.2599998E-02    0.1671215    
  4.3200001E-02    0.1645722    
  4.3800000E-02    0.1617997    
  4.4399999E-02    0.1588239    
  4.5000002E-02    0.1556641    
  4.5600001E-02    0.1523395    
  4.6200000E-02    0.1488687    
  4.6799999E-02    0.1452698    
  4.7400001E-02    0.1415602    
  4.8000000E-02    0.1377571    
  4.8599999E-02    0.1338766    
  4.9199998E-02    0.1299345    
  4.9800001E-02    0.1259458    
  5.0400000E-02    0.1219246    
  5.0999999E-02    0.1178844    
  5.1600002E-02    0.1138381    
  5.2200001E-02    0.1097976    
  5.2800000E-02    0.1057741    
  5.3399999E-02    0.1017781    
  5.4000001E-02    9.7819336E-02
  5.4600000E-02    9.3906708E-02
  5.5199999E-02    9.0048432E-02
  5.5799998E-02    8.6251982E-02
  5.6400001E-02    8.2524098E-02
  5.7000000E-02    7.8870855E-02
  5.7599999E-02    7.5297631E-02
  5.8200002E-02    7.1809150E-02
  5.8800001E-02    6.8409503E-02
  5.9400000E-02    6.5102197E-02
  5.9999999E-02    6.1890151E-02
  6.0600001E-02    5.8775727E-02
  6.1200000E-02    5.5760782E-02
  6.1799999E-02    5.2846678E-02
  6.2399998E-02    5.0034314E-02
  6.3000001E-02    4.7324162E-02
  6.3600004E-02    4.4716295E-02
  6.4199999E-02    4.2210415E-02
  6.4800002E-02    3.9805882E-02
  6.5399997E-02    3.7501741E-02
  6.6000000E-02    3.5296760E-02
  6.6600002E-02    3.3189442E-02
  6.7199998E-02    3.1178063E-02
  6.7800000E-02    2.9260701E-02
  6.8400003E-02    2.7435245E-02
  6.8999998E-02    2.5699435E-02
  6.9600001E-02    2.4050873E-02
  7.0200004E-02    2.2487050E-02
  7.0799999E-02    2.1005366E-02
  7.1400002E-02    1.9603148E-02
  7.1999997E-02    1.8277667E-02
  7.2600000E-02    1.7026154E-02
  7.3200002E-02    1.5845818E-02
  7.3799998E-02    1.4733857E-02
  7.4400000E-02    1.3687469E-02
  7.5000003E-02    1.2703872E-02
  7.5599998E-02    1.1780307E-02
  7.6200001E-02    1.0914046E-02
  7.6800004E-02    1.0102410E-02
  7.7399999E-02    9.3427636E-03
  7.8000002E-02    8.6325333E-03
  7.8599997E-02    7.9692043E-03
  7.9200000E-02    7.3503312E-03
  7.9800002E-02    6.7735380E-03
  8.0399998E-02    6.2365229E-03
  8.1000000E-02    5.7370616E-03
  8.1600003E-02    5.2730078E-03
  8.2199998E-02    4.8422958E-03
  8.2800001E-02    4.4429405E-03
  8.3400004E-02    4.0730382E-03
  8.3999999E-02    3.7307658E-03
  8.4600002E-02    3.4143818E-03
  8.5199997E-02    3.1222245E-03
  8.5800000E-02    2.8527107E-03
  8.6400002E-02    2.6043353E-03
  8.6999997E-02    2.3756688E-03
  8.7600000E-02    2.1653557E-03
  8.8200003E-02    1.9721128E-03
  8.8799998E-02    1.7947271E-03
  8.9400001E-02    1.6320533E-03
  9.0000004E-02    1.4830122E-03
  9.0599999E-02    1.3465877E-03
  9.1200002E-02    1.2218247E-03
  9.1799997E-02    1.1078268E-03
  9.2399999E-02    1.0037542E-03
  9.3000002E-02    9.0882101E-04
  9.3599997E-02    8.2229293E-04
  9.4200000E-02    7.4348523E-04
  9.4800003E-02    6.7176030E-04
  9.5399998E-02    6.0652551E-04
  9.6000001E-02    5.4723118E-04
  9.6600004E-02    4.9336813E-04
  9.7199999E-02    4.4446590E-04
  9.7800002E-02    4.0009059E-04
  9.8399997E-02    3.5984284E-04
  9.8999999E-02    3.2335593E-04
  9.9600002E-02    2.9029365E-04
  0.1002000        2.6034864E-04
  0.1008000        2.3324031E-04
  0.1014000        2.0871306E-04
  0.1020000        1.8653442E-04
  0.1026000        1.6649331E-04
  0.1032000        1.4839821E-04
  0.1038000        1.3207553E-04
  0.1044000        1.1736793E-04
  0.1050000        1.0413281E-04
  0.1056000        9.2240763E-05
  0.1062000        8.1574188E-05
  0.1068000        7.2026007E-05
  0.1074000        6.3498475E-05
  0.1080000        5.5902074E-05
  0.1086000        4.9154565E-05
  0.1092000        4.3180116E-05
  0.1098000        3.7908572E-05
  0.1104000        3.3274820E-05
  0.1110000        2.9218258E-05
  0.1116000        2.5682366E-05
  0.1122000        2.2614349E-05
  0.1128000        1.9964871E-05
  0.1134000        1.7687837E-05
  0.1140000        1.5740237E-05
  0.1146000        1.4082020E-05
  0.1152000        1.2676000E-05
  0.1158000        1.1487780E-05
  0.1164000        1.0485687E-05
  0.1170000        9.6407030E-06
  0.1176000        8.9264013E-06
  0.1182000        8.3188725E-06
  0.1188000        7.7966451E-06
  0.1194000        7.3405959E-06
  0.1200000        6.9338575E-06
  0.1206000        6.5617178E-06
  0.1212000        6.2115178E-06
  0.1218000        5.8725486E-06
  0.1224000        5.5359524E-06
  0.1230000        5.1946213E-06
  0.1236000        4.8431043E-06
  0.1242000        4.4775152E-06
  0.1248000        4.0954451E-06
  0.1254000        3.6958747E-06
  0.1260000        3.2790858E-06
  0.1266000        2.8465709E-06
  0.1272000        2.4009341E-06
  0.1278000        1.9457868E-06
  0.1284000        1.4856288E-06
  0.1290000        1.0257181E-06
  0.1296000        5.7192722E-07
  0.1302000        1.3058340E-07
  0.1308000       -2.9170380E-07
  0.1314000       -6.8822789E-07
  0.1320000       -1.0523798E-06
  0.1326000       -1.3778483E-06
  0.1332000       -1.6588214E-06
  0.1338000       -1.8901823E-06
  0.1344000       -2.0676962E-06
  0.1350000       -2.1881785E-06
  0.1356000       -2.2496401E-06
  0.1362000       -2.2514016E-06
  0.1368000       -2.1941723E-06
  0.1374000       -2.0800881E-06
  0.1380000       -1.9127042E-06
  0.1386000       -1.6969424E-06
  0.1392000       -1.4389904E-06
  0.1398000       -1.1461552E-06
  0.1404000       -8.2667532E-07
  0.1410000       -4.8949528E-07
  0.1416000       -1.4401125E-07
  0.1422000        2.0020421E-07
  0.1428000        5.3368808E-07
  0.1434000        8.4737269E-07
  0.1440000        1.1328600E-06
  0.1446000        1.3826747E-06
  0.1452000        1.5904842E-06
  0.1458000        1.7512796E-06
  0.1464000        1.8615088E-06
  0.1470000        1.9191584E-06
  0.1476000        1.9237814E-06
  0.1482000        1.8764716E-06
  0.1488000        1.7797887E-06
  0.1494000        1.6376343E-06
  0.1500000        1.4550903E-06
  0.1506000        1.2382250E-06
  0.1512000        9.9387455E-07
  0.1518000        7.2941145E-07
  0.1524000        4.5250584E-07
  0.1530000        1.7089029E-07
  0.1536000       -1.0786523E-07
  0.1542000       -3.7656127E-07
  0.1548000       -6.2855418E-07
  0.1554000       -8.5791430E-07
  0.1560000       -1.0595538E-06
  0.1566000       -1.2293219E-06
  0.1572000       -1.3640675E-06
  0.1578000       -1.4616677E-06
  0.1584000       -1.5210253E-06
  0.1590000       -1.5420363E-06
  0.1596000       -1.5255313E-06
  0.1602000       -1.4731924E-06
  0.1608000       -1.3874537E-06
  0.1614000       -1.2713871E-06
  0.1620000       -1.1285786E-06
  0.1626000       -9.6300221E-07
  0.1632000       -7.7889496E-07
  0.1638000       -5.8063625E-07
  0.1644000       -3.7263806E-07
  0.1650000       -1.5924691E-07
  0.1656000        5.5339285E-08
  0.1662000        2.6713866E-07
  0.1668000        4.7243645E-07
  0.1674000        6.6782087E-07
  0.1680000        8.5020491E-07
  0.1686000        1.0168364E-06
  0.1692000        1.1652998E-06
  0.1698000        1.2935111E-06
  0.1704000        1.3997118E-06
  0.1710000        1.4824620E-06
  0.1716000        1.5406386E-06
  0.1722000        1.5734362E-06
  0.1728000        1.5803781E-06
  0.1734000        1.5613309E-06
  0.1740000        1.5165266E-06
  0.1746000        1.4465882E-06
  0.1752000        1.3525557E-06
  0.1758000        1.2359101E-06
  0.1764000        1.0985883E-06
  0.1770000        9.4298815E-07
  0.1776000        7.7195710E-07
  0.1782000        5.8876151E-07
  0.1788000        3.9703590E-07
  0.1794000        2.0070976E-07
  0.1800000        3.9142791E-09
  0.1806000       -1.8912873E-07
  0.1812000       -3.7423138E-07
  0.1818000       -5.4737177E-07
  0.1824000       -7.0482719E-07
  0.1830000       -8.4330111E-07
  0.1836000       -9.6003714E-07
  0.1842000       -1.0529134E-06
  0.1848000       -1.1205121E-06
  0.1854000       -1.1621607E-06
  0.1860000       -1.1779415E-06
  0.1866000       -1.1686711E-06
  0.1872000       -1.1358496E-06
  0.1878000       -1.0815838E-06
  0.1884000       -1.0084879E-06
  0.1890000       -9.1956770E-07
  0.1896000       -8.1809537E-07
  0.1902000       -7.0747893E-07
  0.1908000       -5.9113438E-07
  0.1914000       -4.7236594E-07
  0.1920000       -3.5425876E-07
  0.1926000       -2.3958913E-07
  0.1932000       -1.3075457E-07
  0.1938000       -2.9726250E-08
  0.1944000        6.1975527E-08
  0.1950000        1.4328292E-07
  0.1956000        2.1356040E-07
  0.1962000        2.7256522E-07
  0.1968000        3.2039139E-07
  0.1974000        3.5740121E-07
  0.1980000        3.8414862E-07
  0.1986000        4.0129956E-07
  0.1992000        4.0955439E-07
  0.1998000        4.0957735E-07
  0.2004000        4.0193828E-07
  0.2010000        3.8707032E-07
  0.2016000        3.6524759E-07
  0.2022000        3.3658429E-07
  0.2028000        3.0105645E-07
  0.2034000        2.5854482E-07
  0.2040000        2.0889709E-07
  0.2046000        1.5200445E-07
  0.2052000        8.7887351E-08
  0.2058000        1.6783785E-08
  0.2064000       -6.0767498E-08
  0.2070000       -1.4385603E-07
  0.2076000       -2.3114804E-07
  0.2082000       -3.2086021E-07
  0.2088000       -4.1076331E-07
  0.2094000       -4.9821818E-07
  0.2100000       -5.8024460E-07
  0.2106000       -6.5362127E-07
  0.2112000       -7.1501267E-07
  0.2118000       -7.6111661E-07
  0.2124000       -7.8882573E-07
  0.2130000       -7.9539308E-07
  0.2136000       -7.7859340E-07
  0.2142000       -7.3687062E-07
  0.2148000       -6.6946268E-07
  0.2154000       -5.7649657E-07
  0.2160000       -4.5904665E-07
  0.2166000       -3.1915252E-07
  0.2172000       -1.5979381E-07
  0.2178000        1.5178527E-08
  0.2184000        2.0115260E-07
  0.2190000        3.9290364E-07
  0.2196000        5.8477423E-07
  0.2202000        7.7087901E-07
  0.2208000        9.4532527E-07
  0.2214000        1.1024397E-06
  0.2220000        1.2369907E-06
  0.2226000        1.3443967E-06
  0.2232000        1.4209093E-06
  0.2238000        1.4637639E-06
  0.2244000        1.4712894E-06
  0.2250000        1.4429736E-06
  0.2256000        1.3794785E-06
  0.2262000        1.2826077E-06
  0.2268000        1.1552282E-06
  0.2274000        1.0011488E-06
  0.2280000        8.2496422E-07
  0.2286000        6.3187247E-07
  0.2292000        4.2747456E-07
  0.2298000        2.1756613E-07
  0.2304000        7.9308959E-09
  0.2310000       -1.9585562E-07
  0.2316000       -3.8860469E-07
  0.2322000       -5.6566938E-07
  0.2328000       -7.2307137E-07
  0.2334000       -8.5759717E-07
  0.2340000       -9.6686279E-07
  0.2346000       -1.0493458E-06
  0.2352000       -1.1043880E-06
  0.2358000       -1.1321686E-06
  0.2364000       -1.1336512E-06
  0.2370000       -1.1105082E-06
  0.2376000       -1.0650251E-06
  0.2382000       -9.9998920E-07
  0.2388000       -9.1856504E-07
  0.2394000       -8.2416392E-07
  0.2400000       -7.2030986E-07
  0.2406000       -6.1050815E-07
  0.2412000       -4.9812235E-07
  0.2418000       -3.8626348E-07
  0.2424000       -2.7769843E-07
  0.2430000       -1.7477936E-07
  0.2436000       -7.9399150E-08
  0.2442000        7.0269310E-09
  0.2448000        8.3552678E-08
  0.2454000        1.4966777E-07
  0.2460000        2.0524344E-07
  0.2466000        2.5046228E-07
  0.2472000        2.8573825E-07
  0.2478000        3.1163421E-07
  0.2484000        3.2878330E-07
  0.2490000        3.3782143E-07
  0.2496000        3.3933509E-07
  0.2502000        3.3382898E-07
  0.2508000        3.2171454E-07
  0.2514000        3.0331918E-07
  0.2520000        2.7891394E-07
  0.2526000        2.4875524E-07
  0.2532000        2.1313545E-07
  0.2538000        1.7243647E-07
  0.2544000        1.2717967E-07
  0.2550000        7.8067060E-08
  0.2556000        2.6008571E-08
  0.2562000       -2.7867568E-08
  0.2568000       -8.2223067E-08
  0.2574000       -1.3553645E-07
  0.2580000       -1.8614703E-07
  0.2586000       -2.3231303E-07
  0.2592000       -2.7228015E-07
  0.2598000       -3.0435638E-07
  0.2604000       -3.2698821E-07
  0.2610000       -3.3883444E-07
  0.2616000       -3.3883325E-07
  0.2622000       -3.2625979E-07
  0.2628000       -3.0077155E-07
  0.2634000       -2.6243950E-07
  0.2640000       -2.1176436E-07
  0.2646000       -1.4967665E-07
  0.2652000       -7.7520838E-08
  0.2658000        2.9764082E-09
  0.2664000        8.9753172E-08
  0.2670000        1.8047338E-07
  0.2676000        2.7260049E-07
  0.2682000        3.6348138E-07
  0.2688000        4.5043811E-07
  0.2694000        5.3086370E-07
  0.2700000        6.0231821E-07
  0.2706000        6.6262083E-07
  0.2712000        7.0993366E-07
  0.2718000        7.4283236E-07
  0.2724000        7.6036002E-07
  0.2730000        7.6206140E-07
  0.2736000        7.4799470E-07
  0.2742000        7.1872006E-07
  0.2748000        6.7526588E-07
  0.2754000        6.1907332E-07
  0.2760000        5.5192351E-07
  0.2766000        4.7585019E-07
  0.2772000        3.9304362E-07
  0.2778000        3.0575046E-07
  0.2784000        2.1617581E-07
  0.2790000        1.2639224E-07
  0.2796000        3.8261142E-08
  0.2802000       -4.6629658E-08
  0.2808000       -1.2700885E-07
  0.2814000       -2.0194302E-07
  0.2820000       -2.7083613E-07
  0.2826000       -3.3340712E-07
  0.2832000       -3.8964862E-07
  0.2838000       -4.3976914E-07
  0.2844000       -4.8412369E-07
  0.2850000       -5.2313789E-07
  0.2856000       -5.5723183E-07
  0.2862000       -5.8674868E-07
  0.2868000       -6.1189536E-07
  0.2874000       -6.3269897E-07
  0.2880000       -6.4898342E-07
  0.2886000       -6.6036927E-07
  0.2892000       -6.6629610E-07
  0.2898000       -6.6606788E-07
  0.2904000       -6.5891624E-07
  0.2910000       -6.4407806E-07
  0.2916000       -6.2088094E-07
  0.2922000       -5.8882836E-07
  0.2928000       -5.4767838E-07
  0.2934000       -4.9750810E-07
  0.2940000       -4.3875812E-07
  0.2946000       -3.7225283E-07
  0.2952000       -2.9919352E-07
  0.2958000       -2.2112486E-07
  0.2964000       -1.3987653E-07
  0.2970000       -5.7484023E-08
  0.2976000        2.3905409E-08
  0.2982000        1.0213498E-07
  0.2988000        1.7514139E-07
  0.2994000        2.4105159E-07
  0.3000000        2.9826694E-07
  0.3006000        3.4553000E-07
  0.3012000        3.8197052E-07
  0.3018000        4.0712905E-07
  0.3024000        4.2095897E-07
  0.3030000        4.2380802E-07
  0.3036000        4.1638330E-07
  0.3042000        3.9970269E-07
  0.3048000        3.7503736E-07
  0.3054000        3.4384934E-07
  0.3060000        3.0772722E-07
  0.3066000        2.6832322E-07
  0.3072000        2.2729355E-07
  0.3078000        1.8624318E-07
  0.3084000        1.4667602E-07
  0.3090000        1.0995065E-07
  0.3096000        7.7242269E-08
  0.3102000        4.9510760E-08
  0.3108000        2.7476030E-08
  0.3114000        1.1601340E-08
  0.3120000        2.0857629E-09
  0.3126000       -1.1329749E-09
  0.3132000        1.6355896E-09
  0.3138000        9.8603659E-09
  0.3144000        2.2825631E-08
  0.3150000        3.9677758E-08
  0.3156000        5.9479262E-08
  0.3162000        8.1266776E-08
  0.3168000        1.0410870E-07
  0.3174000        1.2715803E-07
  0.3180000        1.4969586E-07
  0.3186000        1.7116152E-07
  0.3192000        1.9116668E-07
  0.3198000        2.0949184E-07
  0.3204000        2.2606544E-07
  0.3210000        2.4092748E-07
  0.3216000        2.5418143E-07
  0.3222000        2.6593904E-07
  0.3228000        2.7626371E-07
  0.3234000        2.8511852E-07
  0.3240000        2.9232447E-07
  0.3246000        2.9753318E-07
  0.3252000        3.0021809E-07
  0.3258000        2.9968515E-07
  0.3264000        2.9510318E-07
  0.3270000        2.8555172E-07
  0.3276000        2.7008295E-07
  0.3282000        2.4779291E-07
  0.3288000        2.1789643E-07
  0.3294000        1.7980030E-07
  0.3300000        1.3316881E-07
  0.3306000        7.7977305E-08
  0.3312000        1.4549633E-08
  0.3318000       -5.6422781E-08
  0.3324000       -1.3388140E-07
  0.3330000       -2.1642039E-07
  0.3336000       -3.0232431E-07
  0.3342000       -3.8962119E-07
  0.3348000       -4.7614807E-07
  0.3354000       -5.5962499E-07
  0.3360000       -6.3773399E-07
  0.3366000       -7.0819959E-07
  0.3372000       -7.6886704E-07
  0.3378000       -8.1777574E-07
  0.3384000       -8.5322580E-07
  0.3390000       -8.7383512E-07
  0.3396000       -8.7858712E-07
  0.3402000       -8.6686651E-07
  0.3408000       -8.3848477E-07
  0.3414000       -7.9369278E-07
  0.3420000       -7.3318250E-07
  0.3426000       -6.5807643E-07
  0.3432000       -5.6990473E-07
  0.3438000       -4.7057117E-07
  0.3444000       -3.6230645E-07
  0.3450000       -2.4761076E-07
  0.3456000       -1.2918534E-07
  0.3462000       -9.8547677E-09
  0.3468000        1.0751835E-07
  0.3474000        2.2012374E-07
  0.3480000        3.2529579E-07
  0.3486000        4.2060424E-07
  0.3492000        5.0393885E-07
  0.3498000        5.7358420E-07
  0.3504000        6.2828053E-07
  0.3510000        6.6726614E-07
  0.3516000        6.9029983E-07
  0.3522000        6.9766003E-07
  0.3528000        6.9012157E-07
  0.3534000        6.6890948E-07
  0.3540000        6.3563294E-07
  0.3546000        5.9220292E-07
  0.3552000        5.4073803E-07
  0.3558000        4.8346374E-07
  0.3564000        4.2261166E-07
  0.3570000        3.6032438E-07
  0.3576000        2.9857074E-07
  0.3582000        2.3907711E-07
  0.3588000        1.8327735E-07
  0.3594000        1.3228350E-07
  0.3600000        8.6877833E-08
  0.3606000        4.7524718E-08
  0.3612000        1.4400272E-08
  0.3618000       -1.2564247E-08
  0.3624000       -3.3629579E-08
  0.3630000       -4.9191033E-08
  0.3636000       -5.9721380E-08
  0.3642000       -6.5718588E-08
  0.3648000       -6.7662121E-08
  0.3654000       -6.5980814E-08
  0.3660000       -6.1033759E-08
  0.3666000       -5.3105051E-08
  0.3672000       -4.2411450E-08
  0.3678000       -2.9121551E-08
  0.3684000       -1.3383845E-08
  0.3690000        4.6394009E-09
  0.3696000        2.4735842E-08
  0.3702000        4.6607887E-08
  0.3708000        6.9842017E-08
  0.3714000        9.3885582E-08
  0.3720000        1.1803355E-07
  0.3726000        1.4142708E-07
  0.3732000        1.6306478E-07
  0.3738000        1.8182716E-07
  0.3744000        1.9651341E-07
  0.3750000        2.0588934E-07
  0.3756000        2.0874421E-07
  0.3762000        2.0395360E-07
  0.3768000        1.9054515E-07
  0.3774000        1.6776328E-07
  0.3780000        1.3512916E-07
  0.3786000        9.2492080E-08
  0.3792000        4.0068862E-08
  0.3798000       -2.1531823E-08
  0.3804000       -9.1302070E-08
  0.3810000       -1.6784577E-07
  0.3816000       -2.4940809E-07
  0.3822000       -3.3392271E-07
  0.3828000       -4.1907469E-07
  0.3834000       -5.0237668E-07
  0.3840000       -5.8125494E-07
  0.3846000       -6.5314089E-07
  0.3852000       -7.1556565E-07
  0.3858000       -7.6625173E-07
  0.3864000       -8.0319984E-07
  0.3870000       -8.2476646E-07
  0.3876000       -8.2972969E-07
  0.3882000       -8.1734123E-07
  0.3888000       -7.8736173E-07
  0.3894000       -7.4007932E-07
  0.3900000       -6.7630918E-07
  0.3906000       -5.9737459E-07
  0.3912000       -5.0506912E-07
  0.3918000       -4.0160052E-07
  0.3924000       -2.8951848E-07
  0.3930000       -1.7162775E-07
  0.3936000       -5.0889845E-08
  0.3942000        6.9682059E-08
  0.3948000        1.8713119E-07
  0.3954000        2.9866237E-07
  0.3960000        4.0173910E-07
  0.3966000        4.9416730E-07
  0.3972000        5.7416094E-07
  0.3978000        6.4038585E-07
  0.3984000        6.9198040E-07
  0.3990000        7.2855130E-07
  0.3996000        7.5014754E-07
  0.4002000        7.5721437E-07
  0.4008000        7.5053333E-07
  0.4014000        7.3115302E-07
  0.4020000        7.0031803E-07
  0.4026000        6.5940094E-07
  0.4032000        6.0984371E-07
  0.4038000        5.5311187E-07
  0.4044000        4.9066352E-07
  0.4050000        4.2393285E-07
  0.4056000        3.5432737E-07
  0.4062000        2.8323365E-07
  0.4068000        2.1202790E-07
  0.4074000        1.4208553E-07
  0.4080000        7.4784580E-08
  0.4086000        1.1498736E-08
  0.4092000       -4.6422830E-08
  0.4098000       -9.7689671E-08
  0.4104000       -1.4111703E-07
  0.4110000       -1.7568230E-07
  0.4116000       -2.0058599E-07
  0.4122000       -2.1531119E-07
  0.4128000       -2.1967486E-07
  0.4134000       -2.1386495E-07
  0.4140000       -1.9845831E-07
  0.4146000       -1.7441597E-07
  0.4152000       -1.4305458E-07
  0.4158000       -1.0599513E-07
  0.4164000       -6.5092287E-08
  0.4170000       -2.2349088E-08
  0.4176000        2.0176399E-08
  0.4182000        6.0465794E-08
  0.4188000        9.6629783E-08
  0.4194000        1.2698642E-07
  0.4200000        1.5012384E-07
  0.4206000        1.6494489E-07
  0.4212000        1.7069283E-07
  0.4218000        1.6695896E-07
  0.4224000        1.5367479E-07
  0.4230000        1.3109182E-07
  0.4236000        9.9752775E-08
  0.4242000        6.0457758E-08
  0.4248000        1.4228399E-08