 -0.1200000        0.0000000E+00
 -0.1194000        0.0000000E+00
 -0.1188000        0.0000000E+00
 -0.1182000        0.0000000E+00
 -0.1176000        0.0000000E+00
 -0.1170000        0.0000000E+00
 -0.1164000        0.0000000E+00
 -0.1158000        0.0000000E+00
 -0.1152000        0.0000000E+00
 -0.1146000        0.0000000E+00
 -0.1140000        0.0000000E+00
 -0.1134000        0.0000000E+00
 -0.1128000        0.0000000E+00
 -0.1122000        0.0000000E+00
 -0.1116000        0.0000000E+00
 -0.1110000        0.0000000E+00
 -0.1104000        0.0000000E+00
 -0.1098000        0.0000000E+00
 -0.1092000        0.0000000E+00
 -0.1086000        0.0000000E+00
 -0.1080000        0.0000000E+00
 -0.1074000        0.0000000E+00
 -0.1068000        0.0000000E+00
 -0.1062000        0.0000000E+00
 -0.1056000        0.0000000E+00
 -0.1050000        0.0000000E+00
 -0.1044000        0.0000000E+00
 -0.1038000        0.0000000E+00
 -0.1032000        0.0000000E+00
 -0.1026000        0.0000000E+00
 -0.1020000        0.0000000E+00
 -0.1014000        0.0000000E+00
 -0.1008000        0.0000000E+00
 -0.1002000        0.0000000E+00
 -9.9600002E-02    0.0000000E+00
 -9.8999999E-02    0.0000000E+00
 -9.8399997E-02    0.0000000E+00
 -9.7800002E-02    0.0000000E+00
 -9.7199999E-02    0.0000000E+00
 -9.6600004E-02    0.0000000E+00
 -9.6000001E-02    0.0000000E+00
 -9.5399998E-02    0.0000000E+00
 -9.4800003E-02    0.0000000E+00
 -9.4200000E-02    0.0000000E+00
 -9.3599997E-02    0.0000000E+00
 -9.3000002E-02    0.0000000E+00
 -9.2399999E-02    0.0000000E+00
 -9.1799997E-02    0.0000000E+00
 -9.1200002E-02    0.0000000E+00
 -9.0599999E-02    0.0000000E+00
 -9.0000004E-02    0.0000000E+00
 -8.9400001E-02    0.0000000E+00
 -8.8799998E-02    0.0000000E+00
 -8.8200003E-02    0.0000000E+00
 -8.7600000E-02    0.0000000E+00
 -8.6999997E-02    0.0000000E+00
 -8.6400002E-02    0.0000000E+00
 -8.5800000E-02    0.0000000E+00
 -8.5199997E-02    0.0000000E+00
 -8.4600002E-02    0.0000000E+00
 -8.3999999E-02    0.0000000E+00
 -8.3400004E-02    0.0000000E+00
 -8.2800001E-02    0.0000000E+00
 -8.2199998E-02    0.0000000E+00
 -8.1600003E-02    0.0000000E+00
 -8.1000000E-02    0.0000000E+00
 -8.0399998E-02    0.0000000E+00
 -7.9800002E-02    0.0000000E+00
 -7.9200000E-02    0.0000000E+00
 -7.8599997E-02    0.0000000E+00
 -7.8000002E-02    0.0000000E+00
 -7.7399999E-02    0.0000000E+00
 -7.6800004E-02    0.0000000E+00
 -7.6200001E-02    0.0000000E+00
 -7.5599998E-02    0.0000000E+00
 -7.5000003E-02    0.0000000E+00
 -7.4400000E-02    0.0000000E+00
 -7.3799998E-02    0.0000000E+00
 -7.3200002E-02    0.0000000E+00
 -7.2600000E-02    0.0000000E+00
 -7.1999997E-02    0.0000000E+00
 -7.1400002E-02    0.0000000E+00
 -7.0799999E-02    0.0000000E+00
 -7.0200004E-02    0.0000000E+00
 -6.9600001E-02    0.0000000E+00
 -6.8999998E-02    0.0000000E+00
 -6.8400003E-02    0.0000000E+00
 -6.7800000E-02    0.0000000E+00
 -6.7199998E-02    0.0000000E+00
 -6.6600002E-02    0.0000000E+00
 -6.6000000E-02    0.0000000E+00
 -6.5399997E-02    0.0000000E+00
 -6.4800002E-02    0.0000000E+00
 -6.4199999E-02    0.0000000E+00
 -6.3600004E-02    0.0000000E+00
 -6.3000001E-02    0.0000000E+00
 -6.2399998E-02    0.0000000E+00
 -6.1799999E-02    0.0000000E+00
 -6.1200000E-02    0.0000000E+00
 -6.0600001E-02    0.0000000E+00
 -5.9999999E-02    0.0000000E+00
 -5.9400000E-02    0.0000000E+00
 -5.8800001E-02    0.0000000E+00
 -5.8200002E-02    0.0000000E+00
 -5.7599999E-02    0.0000000E+00
 -5.7000000E-02    0.0000000E+00
 -5.6400001E-02    0.0000000E+00
 -5.5799998E-02    0.0000000E+00
 -5.5199999E-02    0.0000000E+00
 -5.4600000E-02    0.0000000E+00
 -5.4000001E-02    0.0000000E+00
 -5.3399999E-02    0.0000000E+00
 -5.2800000E-02    0.0000000E+00
 -5.2200001E-02    0.0000000E+00
 -5.1600002E-02    0.0000000E+00
 -5.0999999E-02    0.0000000E+00
 -5.0400000E-02    0.0000000E+00
 -4.9800001E-02    0.0000000E+00
 -4.9199998E-02    0.0000000E+00
 -4.8599999E-02    0.0000000E+00
 -4.8000000E-02    0.0000000E+00
 -4.7400001E-02    0.0000000E+00
 -4.6799999E-02    0.0000000E+00
 -4.6200000E-02    0.0000000E+00
 -4.5600001E-02    0.0000000E+00
 -4.5000002E-02    0.0000000E+00
 -4.4399999E-02    0.0000000E+00
 -4.3800000E-02    0.0000000E+00
 -4.3200001E-02    0.0000000E+00
 -4.2599998E-02    0.0000000E+00
 -4.1999999E-02    0.0000000E+00
 -4.1400000E-02    0.0000000E+00
 -4.0800001E-02    0.0000000E+00
 -4.0199999E-02    0.0000000E+00
 -3.9600000E-02    0.0000000E+00
 -3.9000001E-02    0.0000000E+00
 -3.8400002E-02    0.0000000E+00
 -3.7799999E-02    0.0000000E+00
 -3.7200000E-02    0.0000000E+00
 -3.6600001E-02    0.0000000E+00
 -3.5999998E-02    0.0000000E+00
 -3.5399999E-02    0.0000000E+00
 -3.4800000E-02    0.0000000E+00
 -3.4200002E-02    0.0000000E+00
 -3.3599999E-02    0.0000000E+00
 -3.3000000E-02    0.0000000E+00
 -3.2400001E-02    0.0000000E+00
 -3.1800002E-02    0.0000000E+00
 -3.1199999E-02    0.0000000E+00
 -3.0600000E-02    0.0000000E+00
 -2.9999999E-02    0.0000000E+00
 -2.9400000E-02    0.0000000E+00
 -2.8800000E-02    0.0000000E+00
 -2.8200001E-02    0.0000000E+00
 -2.7600000E-02    0.0000000E+00
 -2.7000001E-02    0.0000000E+00
 -2.6400000E-02    0.0000000E+00
 -2.5800001E-02    0.0000000E+00
 -2.5200000E-02    0.0000000E+00
 -2.4599999E-02    0.0000000E+00
 -2.4000000E-02    0.0000000E+00
 -2.3399999E-02    0.0000000E+00
 -2.2800000E-02    0.0000000E+00
 -2.2200000E-02    0.0000000E+00
 -2.1600001E-02    0.0000000E+00
 -2.1000000E-02    0.0000000E+00
 -2.0400001E-02    0.0000000E+00
 -1.9800000E-02    0.0000000E+00
 -1.9200001E-02    0.0000000E+00
 -1.8600000E-02    0.0000000E+00
 -1.7999999E-02    0.0000000E+00
 -1.7400000E-02    0.0000000E+00
 -1.6799999E-02    0.0000000E+00
 -1.6200000E-02    0.0000000E+00
 -1.5600000E-02    0.0000000E+00
 -1.5000000E-02    0.0000000E+00
 -1.4400000E-02    0.0000000E+00
 -1.3800000E-02    0.0000000E+00
 -1.3200000E-02    0.0000000E+00
 -1.2600000E-02    0.0000000E+00
 -1.2000000E-02    0.0000000E+00
 -1.1400000E-02    0.0000000E+00
 -1.0800000E-02    0.0000000E+00
 -1.0200000E-02    0.0000000E+00
 -9.6000005E-03    0.0000000E+00
 -8.9999996E-03    0.0000000E+00
 -8.3999997E-03    0.0000000E+00
 -7.7999998E-03    0.0000000E+00
 -7.1999999E-03    0.0000000E+00
 -6.6000000E-03    0.0000000E+00
 -6.0000001E-03    0.0000000E+00
 -5.4000001E-03    0.0000000E+00
 -4.8000002E-03    0.0000000E+00
 -4.1999999E-03    0.0000000E+00
 -3.5999999E-03    0.0000000E+00
 -3.0000000E-03    0.0000000E+00
 -2.4000001E-03    0.0000000E+00
 -1.8000000E-03    0.0000000E+00
 -1.2000001E-03    0.0000000E+00
 -6.0000003E-04    0.0000000E+00
  0.0000000E+00    0.0000000E+00
  6.0000003E-04    0.0000000E+00
  1.2000001E-03    0.0000000E+00
  1.8000000E-03    0.0000000E+00
  2.4000001E-03    0.0000000E+00
  3.0000000E-03    0.0000000E+00
  3.5999999E-03    0.0000000E+00
  4.1999999E-03    0.0000000E+00
  4.8000002E-03    0.0000000E+00
  5.4000001E-03    0.0000000E+00
  6.0000001E-03    0.0000000E+00
  6.6000000E-03    0.0000000E+00
  7.1999999E-03    0.0000000E+00
  7.7999998E-03    0.0000000E+00
  8.3999997E-03    0.0000000E+00
  8.9999996E-03    0.0000000E+00
  9.6000005E-03    0.0000000E+00
  1.0200000E-02    0.0000000E+00
  1.0800000E-02    0.0000000E+00
  1.1400000E-02    0.0000000E+00
  1.2000000E-02    0.0000000E+00
  1.2600000E-02    0.0000000E+00
  1.3200000E-02    0.0000000E+00
  1.3800000E-02    0.0000000E+00
  1.4400000E-02    0.0000000E+00
  1.5000000E-02    0.0000000E+00
  1.5600000E-02    0.0000000E+00
  1.6200000E-02    0.0000000E+00
  1.6799999E-02    0.0000000E+00
  1.7400000E-02    0.0000000E+00
  1.7999999E-02    0.0000000E+00
  1.8600000E-02    0.0000000E+00
  1.9200001E-02    0.0000000E+00
  1.9800000E-02    0.0000000E+00
  2.0400001E-02    0.0000000E+00
  2.1000000E-02    0.0000000E+00
  2.1600001E-02    0.0000000E+00
  2.2200000E-02    0.0000000E+00
  2.2800000E-02    0.0000000E+00
  2.3399999E-02    0.0000000E+00
  2.4000000E-02    0.0000000E+00
  2.4599999E-02    0.0000000E+00
  2.5200000E-02    0.0000000E+00
  2.5800001E-02    0.0000000E+00
  2.6400000E-02    0.0000000E+00
  2.7000001E-02    0.0000000E+00
  2.7600000E-02    0.0000000E+00
  2.8200001E-02    0.0000000E+00
  2.8800000E-02    0.0000000E+00
  2.9400000E-02    0.0000000E+00
  2.9999999E-02    0.0000000E+00
  3.0600000E-02    0.0000000E+00
  3.1199999E-02    0.0000000E+00
  3.1800002E-02    0.0000000E+00
  3.2400001E-02    0.0000000E+00
  3.3000000E-02    0.0000000E+00
  3.3599999E-02    0.0000000E+00
  3.4200002E-02    0.0000000E+00
  3.4800000E-02    0.0000000E+00
  3.5399999E-02    0.0000000E+00
  3.5999998E-02    0.0000000E+00
  3.6600001E-02    0.0000000E+00
  3.7200000E-02    0.0000000E+00
  3.7799999E-02    0.0000000E+00
  3.8400002E-02    0.0000000E+00
  3.9000001E-02    0.0000000E+00
  3.9600000E-02    0.0000000E+00
  4.0199999E-02    0.0000000E+00
  4.0800001E-02    0.0000000E+00
  4.1400000E-02    0.0000000E+00
  4.1999999E-02    0.0000000E+00
  4.2599998E-02    0.0000000E+00
  4.3200001E-02    0.0000000E+00
  4.3800000E-02    0.0000000E+00
  4.4399999E-02    0.0000000E+00
  4.5000002E-02    0.0000000E+00
  4.5600001E-02    0.0000000E+00
  4.6200000E-02    0.0000000E+00
  4.6799999E-02    0.0000000E+00
  4.7400001E-02    0.0000000E+00
  4.8000000E-02    0.0000000E+00
  4.8599999E-02    0.0000000E+00
  4.9199998E-02    0.0000000E+00
  4.9800001E-02    0.0000000E+00
  5.0400000E-02    0.0000000E+00
  5.0999999E-02    0.0000000E+00
  5.1600002E-02    0.0000000E+00
  5.2200001E-02    0.0000000E+00
  5.2800000E-02    0.0000000E+00
  5.3399999E-02    0.0000000E+00
  5.4000001E-02    0.0000000E+00
  5.4600000E-02    0.0000000E+00
  5.5199999E-02    0.0000000E+00
  5.5799998E-02    0.0000000E+00
  5.6400001E-02    0.0000000E+00
  5.7000000E-02    0.0000000E+00
  5.7599999E-02    0.0000000E+00
  5.8200002E-02    0.0000000E+00
  5.8800001E-02    0.0000000E+00
  5.9400000E-02    0.0000000E+00
  5.9999999E-02    0.0000000E+00
  6.0600001E-02    0.0000000E+00
  6.1200000E-02    0.0000000E+00
  6.1799999E-02    0.0000000E+00
  6.2399998E-02    0.0000000E+00
  6.3000001E-02    0.0000000E+00
  6.3600004E-02    0.0000000E+00
  6.4199999E-02    0.0000000E+00
  6.4800002E-02    0.0000000E+00
  6.5399997E-02    0.0000000E+00
  6.6000000E-02    0.0000000E+00
  6.6600002E-02    0.0000000E+00
  6.7199998E-02    0.0000000E+00
  6.7800000E-02    0.0000000E+00
  6.8400003E-02    0.0000000E+00
  6.8999998E-02    0.0000000E+00
  6.9600001E-02    0.0000000E+00
  7.0200004E-02    0.0000000E+00
  7.0799999E-02    0.0000000E+00
  7.1400002E-02    0.0000000E+00
  7.1999997E-02    0.0000000E+00
  7.2600000E-02    0.0000000E+00
  7.3200002E-02    0.0000000E+00
  7.3799998E-02    0.0000000E+00
  7.4400000E-02    0.0000000E+00
  7.5000003E-02    0.0000000E+00
  7.5599998E-02    0.0000000E+00
  7.6200001E-02    0.0000000E+00
  7.6800004E-02    0.0000000E+00
  7.7399999E-02    0.0000000E+00
  7.8000002E-02    0.0000000E+00
  7.8599997E-02    0.0000000E+00
  7.9200000E-02    0.0000000E+00
  7.9800002E-02    0.0000000E+00
  8.0399998E-02    0.0000000E+00
  8.1000000E-02    0.0000000E+00
  8.1600003E-02    0.0000000E+00
  8.2199998E-02    0.0000000E+00
  8.2800001E-02    0.0000000E+00
  8.3400004E-02    0.0000000E+00
  8.3999999E-02    0.0000000E+00
  8.4600002E-02    0.0000000E+00
  8.5199997E-02    0.0000000E+00
  8.5800000E-02    0.0000000E+00
  8.6400002E-02    0.0000000E+00
  8.6999997E-02    0.0000000E+00
  8.7600000E-02    0.0000000E+00
  8.8200003E-02    0.0000000E+00
  8.8799998E-02    0.0000000E+00
  8.9400001E-02    0.0000000E+00
  9.0000004E-02    0.0000000E+00
  9.0599999E-02    0.0000000E+00
  9.1200002E-02    0.0000000E+00
  9.1799997E-02    0.0000000E+00
  9.2399999E-02    0.0000000E+00
  9.3000002E-02    0.0000000E+00
  9.3599997E-02    0.0000000E+00
  9.4200000E-02    0.0000000E+00
  9.4800003E-02    0.0000000E+00
  9.5399998E-02    0.0000000E+00
  9.6000001E-02    0.0000000E+00
  9.6600004E-02    0.0000000E+00
  9.7199999E-02    0.0000000E+00
  9.7800002E-02    0.0000000E+00
  9.8399997E-02    0.0000000E+00
  9.8999999E-02    0.0000000E+00
  9.9600002E-02    0.0000000E+00
  0.1002000        0.0000000E+00
  0.1008000        0.0000000E+00
  0.1014000        0.0000000E+00
  0.1020000        0.0000000E+00
  0.1026000        0.0000000E+00
  0.1032000        0.0000000E+00
  0.1038000        0.0000000E+00
  0.1044000        0.0000000E+00
  0.1050000        0.0000000E+00
  0.1056000        0.0000000E+00
  0.1062000        0.0000000E+00
  0.1068000        0.0000000E+00
  0.1074000        0.0000000E+00
  0.1080000        0.0000000E+00
  0.1086000        0.0000000E+00
  0.1092000        0.0000000E+00
  0.1098000        0.0000000E+00
  0.1104000        0.0000000E+00
  0.1110000        0.0000000E+00
  0.1116000        0.0000000E+00
  0.1122000        0.0000000E+00
  0.1128000        0.0000000E+00
  0.1134000        0.0000000E+00
  0.1140000        0.0000000E+00
  0.1146000        0.0000000E+00
  0.1152000        0.0000000E+00
  0.1158000        0.0000000E+00
  0.1164000        0.0000000E+00
  0.1170000        0.0000000E+00
  0.1176000        0.0000000E+00
  0.1182000        0.0000000E+00
  0.1188000        0.0000000E+00
  0.1194000        0.0000000E+00
  0.1200000        0.0000000E+00
  0.1206000        0.0000000E+00
  0.1212000        0.0000000E+00
  0.1218000        0.0000000E+00
  0.1224000        0.0000000E+00
  0.1230000        0.0000000E+00
  0.1236000        0.0000000E+00
  0.1242000        0.0000000E+00
  0.1248000        0.0000000E+00
  0.1254000        0.0000000E+00
  0.1260000        0.0000000E+00
  0.1266000        0.0000000E+00
  0.1272000        0.0000000E+00
  0.1278000        0.0000000E+00
  0.1284000        0.0000000E+00
  0.1290000        0.0000000E+00
  0.1296000        0.0000000E+00
  0.1302000        0.0000000E+00
  0.1308000        0.0000000E+00
  0.1314000        0.0000000E+00
  0.1320000        0.0000000E+00
  0.1326000        0.0000000E+00
  0.1332000        0.0000000E+00
  0.1338000        0.0000000E+00
  0.1344000        0.0000000E+00
  0.1350000        0.0000000E+00
  0.1356000        0.0000000E+00
  0.1362000        0.0000000E+00
  0.1368000        0.0000000E+00
  0.1374000        0.0000000E+00
  0.1380000        0.0000000E+00
  0.1386000        0.0000000E+00
  0.1392000        0.0000000E+00
  0.1398000        0.0000000E+00
  0.1404000        0.0000000E+00
  0.1410000        0.0000000E+00
  0.1416000        0.0000000E+00
  0.1422000        0.0000000E+00
  0.1428000        0.0000000E+00
  0.1434000        0.0000000E+00
  0.1440000        0.0000000E+00
  0.1446000        0.0000000E+00
  0.1452000        0.0000000E+00
  0.1458000        0.0000000E+00
  0.1464000        0.0000000E+00
  0.1470000        0.0000000E+00
  0.1476000        0.0000000E+00
  0.1482000        0.0000000E+00
  0.1488000        0.0000000E+00
  0.1494000        0.0000000E+00
  0.1500000        0.0000000E+00
  0.1506000        0.0000000E+00
  0.1512000        0.0000000E+00
  0.1518000        0.0000000E+00
  0.1524000        0.0000000E+00
  0.1530000        0.0000000E+00
  0.1536000        0.0000000E+00
  0.1542000        0.0000000E+00
  0.1548000        0.0000000E+00
  0.1554000        0.0000000E+00
  0.1560000        0.0000000E+00
  0.1566000        0.0000000E+00
  0.1572000        0.0000000E+00
  0.1578000        0.0000000E+00
  0.1584000        0.0000000E+00
  0.1590000        0.0000000E+00
  0.1596000        0.0000000E+00
  0.1602000        0.0000000E+00
  0.1608000        0.0000000E+00
  0.1614000        0.0000000E+00
  0.1620000        0.0000000E+00
  0.1626000        0.0000000E+00
  0.1632000        0.0000000E+00
  0.1638000        0.0000000E+00
  0.1644000        0.0000000E+00
  0.1650000        0.0000000E+00
  0.1656000        0.0000000E+00
  0.1662000        0.0000000E+00
  0.1668000        0.0000000E+00
  0.1674000        0.0000000E+00
  0.1680000        0.0000000E+00
  0.1686000        0.0000000E+00
  0.1692000        0.0000000E+00
  0.1698000        0.0000000E+00
  0.1704000        0.0000000E+00
  0.1710000        0.0000000E+00
  0.1716000        0.0000000E+00
  0.1722000        0.0000000E+00
  0.1728000        0.0000000E+00
  0.1734000        0.0000000E+00
  0.1740000        0.0000000E+00
  0.1746000        0.0000000E+00
  0.1752000        0.0000000E+00
  0.1758000        0.0000000E+00
  0.1764000        0.0000000E+00
  0.1770000        0.0000000E+00
  0.1776000        0.0000000E+00
  0.1782000        0.0000000E+00
  0.1788000        0.0000000E+00
  0.1794000        0.0000000E+00
  0.1800000        0.0000000E+00
  0.1806000        0.0000000E+00
  0.1812000        0.0000000E+00
  0.1818000        0.0000000E+00
  0.1824000        0.0000000E+00
  0.1830000        0.0000000E+00
  0.1836000        0.0000000E+00
  0.1842000        0.0000000E+00
  0.1848000        0.0000000E+00
  0.1854000        0.0000000E+00
  0.1860000        0.0000000E+00
  0.1866000        0.0000000E+00
  0.1872000        0.0000000E+00
  0.1878000        0.0000000E+00
  0.1884000        0.0000000E+00
  0.1890000        0.0000000E+00
  0.1896000        0.0000000E+00
  0.1902000        0.0000000E+00
  0.1908000        0.0000000E+00
  0.1914000        0.0000000E+00
  0.1920000        0.0000000E+00
  0.1926000        0.0000000E+00
  0.1932000        0.0000000E+00
  0.1938000        0.0000000E+00
  0.1944000        0.0000000E+00
  0.1950000        0.0000000E+00
  0.1956000        0.0000000E+00
  0.1962000        0.0000000E+00
  0.1968000        0.0000000E+00
  0.1974000        0.0000000E+00
  0.1980000        0.0000000E+00
  0.1986000        0.0000000E+00
  0.1992000        0.0000000E+00
  0.1998000        0.0000000E+00
  0.2004000        0.0000000E+00
  0.2010000        0.0000000E+00
  0.2016000        0.0000000E+00
  0.2022000        0.0000000E+00
  0.2028000        0.0000000E+00
  0.2034000        0.0000000E+00
  0.2040000        0.0000000E+00
  0.2046000        0.0000000E+00
  0.2052000        0.0000000E+00
  0.2058000        0.0000000E+00
  0.2064000        0.0000000E+00
  0.2070000        0.0000000E+00
  0.2076000        0.0000000E+00
  0.2082000        0.0000000E+00
  0.2088000        0.0000000E+00
  0.2094000        0.0000000E+00
  0.2100000        0.0000000E+00
  0.2106000        0.0000000E+00
  0.2112000        0.0000000E+00
  0.2118000        0.0000000E+00
  0.2124000        0.0000000E+00
  0.2130000        0.0000000E+00
  0.2136000        0.0000000E+00
  0.2142000        0.0000000E+00
  0.2148000        0.0000000E+00
  0.2154000        0.0000000E+00
  0.2160000        0.0000000E+00
  0.2166000        0.0000000E+00
  0.2172000        0.0000000E+00
  0.2178000        0.0000000E+00
  0.2184000        0.0000000E+00
  0.2190000        0.0000000E+00
  0.2196000        0.0000000E+00
  0.2202000        0.0000000E+00
  0.2208000        0.0000000E+00
  0.2214000        0.0000000E+00
  0.2220000        0.0000000E+00
  0.2226000        0.0000000E+00
  0.2232000        0.0000000E+00
  0.2238000        0.0000000E+00
  0.2244000        0.0000000E+00
  0.2250000        0.0000000E+00
  0.2256000        0.0000000E+00
  0.2262000        0.0000000E+00
  0.2268000        0.0000000E+00
  0.2274000        0.0000000E+00
  0.2280000        0.0000000E+00
  0.2286000        0.0000000E+00
  0.2292000        0.0000000E+00
  0.2298000        0.0000000E+00
  0.2304000        0.0000000E+00
  0.2310000        0.0000000E+00
  0.2316000        0.0000000E+00
  0.2322000        0.0000000E+00
  0.2328000        0.0000000E+00
  0.2334000        0.0000000E+00
  0.2340000        0.0000000E+00
  0.2346000        0.0000000E+00
  0.2352000        0.0000000E+00
  0.2358000        0.0000000E+00
  0.2364000        0.0000000E+00
  0.2370000        0.0000000E+00
  0.2376000        0.0000000E+00
  0.2382000        0.0000000E+00
  0.2388000        0.0000000E+00
  0.2394000        0.0000000E+00
  0.2400000        0.0000000E+00
  0.2406000        0.0000000E+00
  0.2412000        0.0000000E+00
  0.2418000        0.0000000E+00
  0.2424000        0.0000000E+00
  0.2430000        0.0000000E+00
  0.2436000        0.0000000E+00
  0.2442000        0.0000000E+00
  0.2448000        0.0000000E+00
  0.2454000        0.0000000E+00
  0.2460000        0.0000000E+00
  0.2466000        0.0000000E+00
  0.2472000        0.0000000E+00
  0.2478000        0.0000000E+00
  0.2484000        0.0000000E+00
  0.2490000        0.0000000E+00
  0.2496000        0.0000000E+00
  0.2502000        0.0000000E+00
  0.2508000        0.0000000E+00
  0.2514000        0.0000000E+00
  0.2520000        0.0000000E+00
  0.2526000        0.0000000E+00
  0.2532000        0.0000000E+00
  0.2538000        0.0000000E+00
  0.2544000        0.0000000E+00
  0.2550000        0.0000000E+00
  0.2556000        0.0000000E+00
  0.2562000        0.0000000E+00
  0.2568000        0.0000000E+00
  0.2574000        0.0000000E+00
  0.2580000        0.0000000E+00
  0.2586000        0.0000000E+00
  0.2592000        0.0000000E+00
  0.2598000        0.0000000E+00
  0.2604000        0.0000000E+00
  0.2610000        0.0000000E+00
  0.2616000        0.0000000E+00
  0.2622000        0.0000000E+00
  0.2628000        0.0000000E+00
  0.2634000        0.0000000E+00
  0.2640000        0.0000000E+00
  0.2646000        0.0000000E+00
  0.2652000        0.0000000E+00
  0.2658000        0.0000000E+00
  0.2664000        0.0000000E+00
  0.2670000        0.0000000E+00
  0.2676000        0.0000000E+00
  0.2682000        0.0000000E+00
  0.2688000        0.0000000E+00
  0.2694000        0.0000000E+00
  0.2700000        0.0000000E+00
  0.2706000        0.0000000E+00
  0.2712000        0.0000000E+00
  0.2718000        0.0000000E+00
  0.2724000        0.0000000E+00
  0.2730000        0.0000000E+00
  0.2736000        0.0000000E+00
  0.2742000        0.0000000E+00
  0.2748000        0.0000000E+00
  0.2754000        0.0000000E+00
  0.2760000        0.0000000E+00
  0.2766000        0.0000000E+00
  0.2772000        0.0000000E+00
  0.2778000        0.0000000E+00
  0.2784000        0.0000000E+00
  0.2790000        0.0000000E+00
  0.2796000        0.0000000E+00
  0.2802000        0.0000000E+00
  0.2808000        0.0000000E+00
  0.2814000        0.0000000E+00
  0.2820000        0.0000000E+00
  0.2826000        0.0000000E+00
  0.2832000        0.0000000E+00
  0.2838000        0.0000000E+00
  0.2844000        0.0000000E+00
  0.2850000        0.0000000E+00
  0.2856000        0.0000000E+00
  0.2862000        0.0000000E+00
  0.2868000        0.0000000E+00
  0.2874000        0.0000000E+00
  0.2880000        0.0000000E+00
  0.2886000        0.0000000E+00
  0.2892000        0.0000000E+00
  0.2898000        0.0000000E+00
  0.2904000        0.0000000E+00
  0.2910000        0.0000000E+00
  0.2916000        0.0000000E+00
  0.2922000        0.0000000E+00
  0.2928000        0.0000000E+00
  0.2934000        0.0000000E+00
  0.2940000        0.0000000E+00
  0.2946000        0.0000000E+00
  0.2952000        0.0000000E+00
  0.2958000        0.0000000E+00
  0.2964000        0.0000000E+00
  0.2970000        0.0000000E+00
  0.2976000        0.0000000E+00
  0.2982000        0.0000000E+00
  0.2988000        0.0000000E+00
  0.2994000        0.0000000E+00
  0.3000000        0.0000000E+00
  0.3006000        0.0000000E+00
  0.3012000        0.0000000E+00
  0.3018000        0.0000000E+00
  0.3024000        0.0000000E+00
  0.3030000        0.0000000E+00
  0.3036000        0.0000000E+00
  0.3042000        0.0000000E+00
  0.3048000        0.0000000E+00
  0.3054000        0.0000000E+00
  0.3060000        0.0000000E+00
  0.3066000        0.0000000E+00
  0.3072000        0.0000000E+00
  0.3078000        0.0000000E+00
  0.3084000        0.0000000E+00
  0.3090000        0.0000000E+00
  0.3096000        0.0000000E+00
  0.3102000        0.0000000E+00
  0.3108000        0.0000000E+00
  0.3114000        0.0000000E+00
  0.3120000        0.0000000E+00
  0.3126000        0.0000000E+00
  0.3132000        0.0000000E+00
  0.3138000        0.0000000E+00
  0.3144000        0.0000000E+00
  0.3150000        0.0000000E+00
  0.3156000        0.0000000E+00
  0.3162000        0.0000000E+00
  0.3168000        0.0000000E+00
  0.3174000        0.0000000E+00
  0.3180000        0.0000000E+00
  0.3186000        0.0000000E+00
  0.3192000        0.0000000E+00
  0.3198000        0.0000000E+00
  0.3204000        0.0000000E+00
  0.3210000        0.0000000E+00
  0.3216000        0.0000000E+00
  0.3222000        0.0000000E+00
  0.3228000        0.0000000E+00
  0.3234000        0.0000000E+00
  0.3240000        0.0000000E+00
  0.3246000        0.0000000E+00
  0.3252000        0.0000000E+00
  0.3258000        0.0000000E+00
  0.3264000        0.0000000E+00
  0.3270000        0.0000000E+00
  0.3276000        0.0000000E+00
  0.3282000        0.0000000E+00
  0.3288000        0.0000000E+00
  0.3294000        0.0000000E+00
  0.3300000        0.0000000E+00
  0.3306000        0.0000000E+00
  0.3312000        0.0000000E+00
  0.3318000        0.0000000E+00
  0.3324000        0.0000000E+00
  0.3330000        1.2739018E-38
  0.3336000        1.2423122E-38
  0.3342000        0.0000000E+00
  0.3348000        0.0000000E+00
  0.3354000       -2.0224610E-38
  0.3360000       -3.2313525E-38
  0.3366000       -3.5657401E-38
  0.3372000       -2.5784735E-38
  0.3378000        0.0000000E+00
  0.3384000        2.9304438E-38
  0.3390000        5.9534939E-38
  0.3396000        7.6683962E-38
  0.3402000        7.1480425E-38
  0.3408000        4.0757001E-38
  0.3414000        0.0000000E+00
  0.3420000       -7.0592478E-38
  0.3426000       -1.2292926E-37
  0.3432000       -1.5164697E-37
  0.3438000       -1.4477382E-37
  0.3444000       -9.6753729E-38
  0.3450000        0.0000000E+00
  0.3456000        1.0711870E-37
  0.3462000        2.3394234E-37
  0.3468000        3.4159594E-37
  0.3474000        3.9122437E-37
  0.3480000        3.4064792E-37
  0.3486000        1.5798678E-37
  0.3492000       -1.5854467E-37
  0.3498000       -5.6112990E-37
  0.3504000       -9.4381160E-37
  0.3510000       -1.1558990E-36
  0.3516000       -1.0426275E-36
  0.3522000       -5.0724942E-37
  0.3528000        4.2419233E-37
  0.3534000        1.5630285E-36
  0.3540000        2.5697443E-36
  0.3546000        3.0306571E-36
  0.3552000        2.5894430E-36
  0.3558000        1.0980056E-36
  0.3564000       -1.2659328E-36
  0.3570000       -3.9669379E-36
  0.3576000       -6.1975629E-36
  0.3582000       -7.0776110E-36
  0.3588000       -5.9233404E-36
  0.3594000       -2.5136737E-36
  0.3600000        2.7280841E-36
  0.3606000        8.7035327E-36
  0.3612000        1.3792912E-35
  0.3618000        1.6185752E-35
  0.3624000        1.4341420E-35
  0.3630000        7.4991281E-36
  0.3636000       -3.8704181E-36
  0.3642000       -1.7800804E-35
  0.3648000       -3.0890238E-35
  0.3654000       -3.8801593E-35
  0.3660000       -3.7244012E-35
  0.3666000       -2.3341091E-35
  0.3672000        2.8946003E-36
  0.3678000        3.7441745E-35
  0.3684000        7.2057867E-35
  0.3690000        9.5439649E-35
  0.3696000        9.5905307E-35
  0.3702000        6.5234535E-35
  0.3708000        2.7223106E-36
  0.3714000       -8.1930395E-35
  0.3720000       -1.6832788E-34
  0.3726000       -2.2867381E-34
  0.3732000       -2.3466458E-34
  0.3738000       -1.6673877E-34
  0.3744000       -2.3262567E-35
  0.3750000        1.7342881E-34
  0.3756000        3.7700721E-34
  0.3762000        5.2482159E-34
  0.3768000        5.5292655E-34
  0.3774000        4.1576579E-34
  0.3780000        1.0571563E-34
  0.3786000       -3.3346561E-34
  0.3792000       -8.0496310E-34
  0.3798000       -1.1727588E-33
  0.3804000       -1.2913176E-33
  0.3810000       -1.0469571E-33
  0.3816000       -4.0218056E-34
  0.3822000        5.6927309E-34
  0.3828000        1.6700763E-33
  0.3834000        2.6007019E-33
  0.3840000        3.0191008E-33
  0.3846000        2.6329747E-33
  0.3852000        1.3067946E-33
  0.3858000       -8.4516115E-34
  0.3864000       -3.4139449E-33
  0.3870000       -5.7296566E-33
  0.3876000       -6.9889582E-33
  0.3882000       -6.4661321E-33
  0.3888000       -3.7668290E-33
  0.3894000        9.4347371E-34
  0.3900000        6.8175616E-33
  0.3906000        1.2383091E-32
  0.3912000        1.5814077E-32
  0.3918000        1.5395645E-32
  0.3924000        1.0092669E-32
  0.3930000        7.4221511E-35
  0.3936000       -1.2982531E-32
  0.3942000       -2.5966603E-32
  0.3948000       -3.4870584E-32
  0.3954000       -3.5758000E-32
  0.3960000       -2.5987300E-32
  0.3966000       -5.3934513E-33
  0.3972000        2.2942429E-32
  0.3978000        5.2684916E-32
  0.3984000        7.5217585E-32
  0.3990000        8.1586808E-32
  0.3996000        6.5111761E-32
  0.4002000        2.4068635E-32
  0.4008000       -3.6337690E-32
  0.4014000       -1.0351804E-31
  0.4020000       -1.5914309E-31
  0.4026000       -1.8300842E-31
  0.4032000       -1.5860368E-31
  0.4038000       -7.9196381E-32
  0.4044000        4.7269364E-32
  0.4050000        1.9630036E-31
  0.4056000        3.2946544E-31
  0.4062000        4.0200139E-31
  0.4068000        3.7454280E-31
  0.4074000        2.2658991E-31
  0.4080000       -3.1889554E-32
  0.4086000       -3.5478387E-31
  0.4092000       -6.6348757E-31
  0.4098000       -8.6139568E-31
  0.4104000       -8.5789129E-31
  0.4110000       -5.9723106E-31
  0.4116000       -8.4989946E-32
  0.4122000        5.9654500E-31
  0.4128000        1.2916749E-30
  0.4134000        1.7974117E-30
  0.4140000        1.9108614E-30
  0.4146000        1.4895605E-30
  0.4152000        5.1036645E-31
  0.4158000       -8.9095739E-31
  0.4164000       -2.4164276E-30
  0.4170000       -3.6496248E-30
  0.4176000       -4.1464147E-30
  0.4182000       -3.5585362E-30
  0.4188000       -1.7624749E-30
  0.4194000        1.0429922E-30
  0.4200000        4.3078641E-30
  0.4206000        7.1976997E-30
  0.4212000        8.7622936E-30
  0.4218000        8.1839579E-30
  0.4224000        5.0536357E-30
  0.4230000       -3.9911988E-31
  0.4236000       -7.2024153E-30
  0.4242000       -1.3728807E-29
  0.4248000       -1.7997746E-29