 -0.1200000        0.0000000E+00
 -0.1194000        0.0000000E+00
 -0.1188000       -4.6403581E-34
 -0.1182000       -1.0054110E-33
 -0.1176000       -4.6403584E-33
 -0.1170000       -1.7324004E-32
 -0.1164000       -2.4748579E-32
 -0.1158000        5.4446871E-32
 -0.1152000        4.9002184E-31
 -0.1146000        2.3164668E-30
 -0.1140000        8.0531873E-30
 -0.1134000        2.3481451E-29
 -0.1128000        5.9000611E-29
 -0.1122000        1.3026662E-28
 -0.1116000        2.5855333E-28
 -0.1110000        4.6405561E-28
 -0.1104000        7.5489102E-28
 -0.1098000        1.1102212E-27
 -0.1092000        1.4568460E-27
 -0.1086000        1.6419691E-27
 -0.1080000        1.4181529E-27
 -0.1074000        4.4333612E-28
 -0.1068000       -1.6751421E-27
 -0.1062000       -5.3063522E-27
 -0.1056000       -1.0643156E-26
 -0.1050000       -1.7517162E-26
 -0.1044000       -2.5180668E-26
 -0.1038000       -3.2117319E-26
 -0.1032000       -3.5922975E-26
 -0.1026000       -3.3372169E-26
 -0.1020000       -2.0717133E-26
 -0.1014000        5.6861541E-27
 -0.1008000        4.8445597E-26
 -0.1002000        1.0790546E-25
 -9.9600002E-02    1.8080654E-25
 -9.8999999E-02    2.5905425E-25
 -9.8399997E-02    3.2894432E-25
 -9.7800002E-02    3.7119618E-25
 -9.7199999E-02    3.6219713E-25
 -9.6600004E-02    2.7674897E-25
 -9.6000001E-02    9.2354880E-26
 -9.5399998E-02   -2.0507677E-25
 -9.4800003E-02   -6.1468702E-25
 -9.4200000E-02   -1.1141707E-24
 -9.3599997E-02   -1.6546257E-24
 -9.3000002E-02   -2.1582106E-24
 -9.2399999E-02   -2.5200803E-24
 -9.1799997E-02   -2.6160462E-24
 -9.1200002E-02   -2.3163557E-24
 -9.0599999E-02   -1.5059616E-24
 -9.0000004E-02   -1.0935054E-25
 -8.9400001E-02    1.8819734E-24
 -8.8799998E-02    4.3834378E-24
 -8.8200003E-02    7.1977475E-24
 -8.7600000E-02    1.0006346E-23
 -8.6999997E-02    1.2377549E-23
 -8.6400002E-02    1.3794896E-23
 -8.5800000E-02    1.3708120E-23
 -8.5199997E-02    1.1605036E-23
 -8.4600002E-02    7.1001268E-24
 -8.3999999E-02    3.1541331E-26
 -8.3400004E-02   -9.4461849E-24
 -8.2800001E-02   -2.0787706E-23
 -8.2199998E-02   -3.3018054E-23
 -8.1600003E-02   -4.4742758E-23
 -8.1000000E-02   -5.4221174E-23
 -8.0399998E-02   -5.9507596E-23
 -7.9800002E-02   -5.8659419E-23
 -7.9200000E-02   -4.9999241E-23
 -7.8599997E-02   -3.2411619E-23
 -7.8000002E-02   -5.6393950E-24
 -7.7399999E-02    2.9458101E-23
 -7.6800004E-02    7.0728644E-23
 -7.6200001E-02    1.1467723E-22
 -7.5599998E-02    1.5657593E-22
 -7.5000003E-02    1.9075872E-22
 -7.4400000E-02    2.1110569E-22
 -7.3799998E-02    2.1169411E-22
 -7.3200002E-02    1.8757471E-22
 -7.2600000E-02    1.3560272E-22
 -7.1999997E-02    5.5229200E-23
 -7.1400002E-02   -5.0850198E-23
 -7.0799999E-02   -1.7630087E-22
 -7.0200004E-02   -3.1110657E-22
 -6.9600001E-02   -4.4195774E-22
 -6.8999998E-02   -5.5311170E-22
 -6.8400003E-02   -6.2770826E-22
 -6.7800000E-02   -6.4948759E-22
 -6.7199998E-02   -6.0477162E-22
 -6.6600002E-02   -4.8454043E-22
 -6.6000000E-02   -2.8637572E-22
 -6.5399997E-02   -1.6028855E-23
 -6.4800002E-02    3.1164019E-22
 -6.4199999E-02    6.7256388E-22
 -6.3600004E-02    1.0343782E-21
 -6.3000001E-02    1.3584044E-21
 -6.2399998E-02    1.6026882E-21
 -6.1799999E-02    1.7259285E-21
 -6.1200000E-02    1.6920248E-21
 -6.0600001E-02    1.4748562E-21
 -5.9999999E-02    1.0628200E-21
 -5.9400000E-02    4.6260480E-22
 -5.8800001E-02   -2.9832018E-22
 -5.8200002E-02   -1.1709605E-21
 -5.7599999E-02   -2.0861511E-21
 -5.7000000E-02   -2.9582002E-21
 -5.6400001E-02   -3.6907822E-21
 -5.5799998E-02   -4.1848570E-21
 -5.5199999E-02   -4.3480894E-21
 -5.4600000E-02   -4.1050857E-21
 -5.4000001E-02   -3.4075334E-21
 -5.3399999E-02   -2.2432706E-21
 -5.2800000E-02   -6.4322668E-22
 -5.2200001E-02    1.3146902E-21
 -5.1600002E-02    3.5055858E-21
 -5.0999999E-02    5.7619548E-21
 -5.0400000E-02    7.8826249E-21
 -4.9800001E-02    9.6460827E-21
 -4.9199998E-02    1.0827512E-20
 -4.8599999E-02    1.1218508E-20
 -4.8000000E-02    1.0648062E-20
 -4.7400001E-02    9.0031267E-21
 -4.6799999E-02    6.2469330E-21
 -4.6200000E-02    2.4331974E-21
 -4.5600001E-02   -2.2854659E-21
 -4.5000002E-02   -7.6563417E-21
 -4.4399999E-02   -1.3333522E-20
 -4.3800000E-02   -1.8893374E-20
 -4.3200001E-02   -2.3858168E-20
 -4.2599998E-02   -2.7727036E-20
 -4.1999999E-02   -3.0012510E-20
 -4.1400000E-02   -3.0280459E-20
 -4.0800001E-02   -2.8190677E-20
 -4.0199999E-02   -2.3535137E-20
 -3.9600000E-02   -1.6270748E-20
 -3.9000001E-02   -6.5436223E-21
 -3.8400002E-02    5.2978087E-21
 -3.7799999E-02    1.8702914E-20
 -3.7200000E-02    3.2933585E-20
 -3.6600001E-02    4.7093880E-20
 -3.5999998E-02    6.0174145E-20
 -3.5399999E-02    7.1107774E-20
 -3.4800000E-02    7.8838119E-20
 -3.4200002E-02    8.2391810E-20
 -3.3599999E-02    8.0954254E-20
 -3.3000000E-02    7.3942360E-20
 -3.2400001E-02    6.1069362E-20
 -3.1800002E-02    4.2396793E-20
 -3.1199999E-02    1.8368659E-20
 -3.0600000E-02   -1.0175792E-20
 -2.9999999E-02   -4.2013935E-20
 -2.9400000E-02   -7.5577657E-20
 -2.8800000E-02   -1.0901736E-19
 -2.8200001E-02   -1.4029045E-19
 -2.7600000E-02   -1.6727076E-19
 -2.7000001E-02   -1.8787390E-19
 -2.6400000E-02   -2.0019183E-19
 -2.5800001E-02   -2.0262858E-19
 -2.5200000E-02   -1.9402858E-19
 -2.4599999E-02   -1.7378833E-19
 -2.4000000E-02   -1.4194264E-19
 -2.3399999E-02   -9.9217355E-20
 -2.2800000E-02   -4.7042356E-20
 -2.2200000E-02    1.2479638E-20
 -2.1600001E-02    7.6650019E-20
 -2.1000000E-02    1.4229555E-19
 -2.0400001E-02    2.0592937E-19
 -1.9800000E-02    2.6394387E-19
 -1.9200001E-02    3.1282479E-19
 -1.8600000E-02    3.4937338E-19
 -1.7999999E-02    3.7092187E-19
 -1.7400000E-02    3.7552692E-19
 -1.6799999E-02    3.6212608E-19
 -1.6200000E-02    3.3064374E-19
 -1.5600000E-02    2.8203576E-19
 -1.5000000E-02    2.1826600E-19
 -1.4400000E-02    1.4221177E-19
 -1.3800000E-02    5.7500788E-20
 -1.3200000E-02   -3.1712812E-20
 -1.2600000E-02   -1.2102118E-19
 -1.2000000E-02   -2.0606718E-19
 -1.1400000E-02   -2.8286069E-19
 -1.0800000E-02   -3.4808450E-19
 -1.0200000E-02   -3.9936706E-19
 -9.6000005E-03   -4.3550077E-19
 -8.9999996E-03   -4.5658633E-19
 -8.3999997E-03   -4.6408932E-19
 -7.7999998E-03   -4.6079869E-19
 -7.1999999E-03   -4.5068507E-19
 -6.6000000E-03   -4.3866256E-19
 -6.0000001E-03   -4.3026469E-19
 -5.4000001E-03   -4.3125139E-19
 -4.8000002E-03   -4.4716970E-19
 -4.1999999E-03   -4.8289408E-19
 -3.5999999E-03   -5.4217455E-19
 -3.0000000E-03   -6.2722144E-19
 -2.4000001E-03   -7.3835320E-19
 -1.8000000E-03   -8.7373113E-19
 -1.2000001E-03   -1.0291979E-18
 -6.0000003E-04   -1.1982318E-18
  0.0000000E+00   -1.3720221E-18
  6.0000003E-04   -1.5396594E-18
  1.2000001E-03   -1.6884329E-18
  1.8000000E-03   -1.8042162E-18
  2.4000001E-03   -1.8719190E-18
  3.0000000E-03   -1.8759788E-18
  3.5999999E-03   -1.8008634E-18
  4.1999999E-03   -1.6315553E-18
  4.8000002E-03   -1.3539905E-18
  5.4000001E-03   -9.5542556E-19
  6.0000001E-03   -4.2471214E-19
  6.6000000E-03    2.4753912E-19
  7.1999999E-03    1.0689156E-18
  7.7999998E-03    2.0452884E-18
  8.3999997E-03    3.1810293E-18
  8.9999996E-03    4.4793518E-18
  9.6000005E-03    5.9427736E-18
  1.0200000E-02    7.5736864E-18
  1.0800000E-02    9.3750144E-18
  1.1400000E-02    1.1350959E-17
  1.2000000E-02    1.3507787E-17
  1.2600000E-02    1.5854667E-17
  1.3200000E-02    1.8404522E-17
  1.3800000E-02    2.1174876E-17
  1.4400000E-02    2.4188680E-17
  1.5000000E-02    2.7475113E-17
  1.5600000E-02    3.1070323E-17
  1.6200000E-02    3.5018119E-17
  1.6799999E-02    3.9370591E-17
  1.7400000E-02    4.4188700E-17
  1.7999999E-02    4.9542759E-17
  1.8600000E-02    5.5512925E-17
  1.9200001E-02    6.2189629E-17
  1.9800000E-02    6.9673959E-17
  2.0400001E-02    7.8078121E-17
  2.1000000E-02    8.7525833E-17
  2.1600001E-02    9.8152788E-17
  2.2200000E-02    1.1010717E-16
  2.2800000E-02    1.2355021E-16
  2.3399999E-02    1.3865682E-16
  2.4000000E-02    1.5561628E-16
  2.4599999E-02    1.7463303E-16
  2.5200000E-02    1.9592751E-16
  2.5800001E-02    2.1973705E-16
  2.6400000E-02    2.4631694E-16
  2.7000001E-02    2.7594144E-16
  2.7600000E-02    3.0890505E-16
  2.8200001E-02    3.4552372E-16
  2.8800000E-02    3.8613617E-16
  2.9400000E-02    4.3110552E-16
  2.9999999E-02    4.8082095E-16
  3.0600000E-02    5.3569942E-16
  3.1199999E-02    5.9618779E-16
  3.1800002E-02    6.6276506E-16
  3.2400001E-02    7.3594463E-16
  3.3000000E-02    8.1627713E-16
  3.3599999E-02    9.0435315E-16
  3.4200002E-02    1.0008062E-15
  3.4800000E-02    1.1063158E-15
  3.5399999E-02    1.2216108E-15
  3.5999998E-02    1.3474727E-15
  3.6600001E-02    1.4847383E-15
  3.7200000E-02    1.6343031E-15
  3.7799999E-02    1.7971235E-15
  3.8400002E-02    1.9742197E-15
  3.9000001E-02    2.1666772E-15
  3.9600000E-02    2.3756481E-15
  4.0199999E-02    2.6023518E-15
  4.0800001E-02    2.8480752E-15
  4.1400000E-02    3.1141721E-15
  4.1999999E-02    3.4020610E-15
  4.2599998E-02    3.7132239E-15
  4.3200001E-02    4.0492033E-15
  4.3800000E-02    4.4115983E-15
  4.4399999E-02    4.8020610E-15
  4.5000002E-02    5.2222923E-15
  4.5600001E-02    5.6740365E-15
  4.6200000E-02    6.1590760E-15
  4.6799999E-02    6.6792262E-15
  4.7400001E-02    7.2363304E-15
  4.8000000E-02    7.8322519E-15
  4.8599999E-02    8.4688709E-15
  4.9199998E-02    9.1480753E-15
  4.9800001E-02    9.8717556E-15
  5.0400000E-02    1.0641799E-14
  5.0999999E-02    1.1460081E-14
  5.1600002E-02    1.2328459E-14
  5.2200001E-02    1.3248759E-14
  5.2800000E-02    1.4222778E-14
  5.3399999E-02    1.5252261E-14
  5.4000001E-02    1.6338900E-14
  5.4600000E-02    1.7484315E-14
  5.5199999E-02    1.8690046E-14
  5.5799998E-02    1.9957540E-14
  5.6400001E-02    2.1288122E-14
  5.7000000E-02    2.2682993E-14
  5.7599999E-02    2.4143202E-14
  5.8200002E-02    2.5669625E-14
  5.8800001E-02    2.7262943E-14
  5.9400000E-02    2.8923617E-14
  5.9999999E-02    3.0651859E-14
  6.0600001E-02    3.2447613E-14
  6.1200000E-02    3.4310513E-14
  6.1799999E-02    3.6239861E-14
  6.2399998E-02    3.8234596E-14
  6.3000001E-02    4.0293259E-14
  6.3600004E-02    4.2413962E-14
  6.4199999E-02    4.4594360E-14
  6.4800002E-02    4.6831625E-14
  6.5399997E-02    4.9122409E-14
  6.6000000E-02    5.1462815E-14
  6.6600002E-02    5.3848392E-14
  6.7199998E-02    5.6274098E-14
  6.7800000E-02    5.8734281E-14
  6.8400003E-02    6.1222667E-14
  6.8999998E-02    6.3732372E-14
  6.9600001E-02    6.6255852E-14
  7.0200004E-02    6.8784944E-14
  7.0799999E-02    7.1310836E-14
  7.1400002E-02    7.3824085E-14
  7.1999997E-02    7.6314646E-14
  7.2600000E-02    7.8771841E-14
  7.3200002E-02    8.1184428E-14
  7.3799998E-02    8.3540590E-14
  7.4400000E-02    8.5827944E-14
  7.5000003E-02    8.8033605E-14
  7.5599998E-02    9.0144207E-14
  7.6200001E-02    9.2145895E-14
  7.6800004E-02    9.4024404E-14
  7.7399999E-02    9.5765064E-14
  7.8000002E-02    9.7352851E-14
  7.8599997E-02    9.8772424E-14
  7.9200000E-02    1.0000816E-13
  7.9800002E-02    1.0104421E-13
  8.0399998E-02    1.0186454E-13
  8.1000000E-02    1.0245299E-13
  8.1600003E-02    1.0279332E-13
  8.2199998E-02    1.0286933E-13
  8.2800001E-02    1.0266483E-13
  8.3400004E-02    1.0216384E-13
  8.3999999E-02    1.0135060E-13
  8.4600002E-02    1.0020969E-13
  8.5199997E-02    9.8726122E-14
  8.5800000E-02    9.6885478E-14
  8.6400002E-02    9.4674004E-14
  8.6999997E-02    9.2078743E-14
  8.7600000E-02    8.9087659E-14
  8.8200003E-02    8.5689783E-14
  8.8799998E-02    8.1875316E-14
  8.9400001E-02    7.7635787E-14
  9.0000004E-02    7.2964184E-14
  9.0599999E-02    6.7855057E-14
  9.1200002E-02    6.2304647E-14
  9.1799997E-02    5.6311004E-14
  9.2399999E-02    4.9874072E-14
  9.3000002E-02    4.2995796E-14
  9.3599997E-02    3.5680172E-14
  9.4200000E-02    2.7933337E-14
  9.4800003E-02    1.9763600E-14
  9.5399998E-02    1.1181478E-14
  9.6000001E-02    2.1997264E-15
  9.6600004E-02   -7.1666661E-15
  9.7199999E-02   -1.6900476E-14
  9.7800002E-02   -2.6982263E-14
  9.8399997E-02   -3.7390403E-14
  9.8999999E-02   -4.8101117E-14
  9.9600002E-02   -5.9088531E-14
  0.1002000       -7.0324707E-14
  0.1008000       -8.1779737E-14
  0.1014000       -9.3421778E-14
  0.1020000       -1.0521715E-13
  0.1026000       -1.1713040E-13
  0.1032000       -1.2912441E-13
  0.1038000       -1.4116048E-13
  0.1044000       -1.5319842E-13
  0.1050000       -1.6519667E-13
  0.1056000       -1.7711249E-13
  0.1062000       -1.8890198E-13
  0.1068000       -2.0052036E-13
  0.1074000       -2.1192205E-13
  0.1080000       -2.2306091E-13
  0.1086000       -2.3389038E-13
  0.1092000       -2.4436383E-13
  0.1098000       -2.5443460E-13
  0.1104000       -2.6405644E-13
  0.1110000       -2.7318366E-13
  0.1116000       -2.8177138E-13
  0.1122000       -2.8977596E-13
  0.1128000       -2.9715510E-13
  0.1134000       -3.0386818E-13
  0.1140000       -3.0987658E-13
  0.1146000       -3.1514396E-13
  0.1152000       -3.1963641E-13
  0.1158000       -3.2332278E-13
  0.1164000       -3.2617488E-13
  0.1170000       -3.2816767E-13
  0.1176000       -3.2927946E-13
  0.1182000       -3.2949202E-13
  0.1188000       -3.2879081E-13
  0.1194000       -3.2716492E-13
  0.1200000       -3.2460728E-13
  0.1206000       -3.2111469E-13
  0.1212000       -3.1668773E-13
  0.1218000       -3.1133096E-13
  0.1224000       -3.0505275E-13
  0.1230000       -2.9786536E-13
  0.1236000       -2.8978474E-13
  0.1242000       -2.8083070E-13
  0.1248000       -2.7102656E-13
  0.1254000       -2.6039931E-13
  0.1260000       -2.4897944E-13
  0.1266000       -2.3680070E-13
  0.1272000       -2.2390019E-13
  0.1278000       -2.1031815E-13
  0.1284000       -1.9609776E-13
  0.1290000       -1.8128509E-13
  0.1296000       -1.6592890E-13
  0.1302000       -1.5008046E-13
  0.1308000       -1.3379331E-13
  0.1314000       -1.1712315E-13
  0.1320000       -1.0012749E-13
  0.1326000       -8.2865491E-14
  0.1332000       -6.5397652E-14
  0.1338000       -4.7785499E-14
  0.1344000       -3.0091330E-14
  0.1350000       -1.2377853E-14
  0.1356000        5.2921306E-15
  0.1362000        2.2856071E-14
  0.1368000        4.0252015E-14
  0.1374000        5.7418961E-14
  0.1380000        7.4297204E-14
  0.1386000        9.0828651E-14
  0.1392000        1.0695717E-13
  0.1398000        1.2262892E-13
  0.1404000        1.3779254E-13
  0.1410000        1.5239955E-13
  0.1416000        1.6640446E-13
  0.1422000        1.7976507E-13
  0.1428000        1.9244257E-13
  0.1434000        2.0440172E-13
  0.1440000        2.1561099E-13
  0.1446000        2.2604253E-13
  0.1452000        2.3567235E-13
  0.1458000        2.4448024E-13
  0.1464000        2.5244984E-13
  0.1470000        2.5956849E-13
  0.1476000        2.6582732E-13
  0.1482000        2.7122112E-13
  0.1488000        2.7574820E-13
  0.1494000        2.7941039E-13
  0.1500000        2.8221292E-13
  0.1506000        2.8416419E-13
  0.1512000        2.8527582E-13
  0.1518000        2.8556245E-13
  0.1524000        2.8504155E-13
  0.1530000        2.8373340E-13
  0.1536000        2.8166090E-13
  0.1542000        2.7884945E-13
  0.1548000        2.7532677E-13
  0.1554000        2.7112283E-13
  0.1560000        2.6626959E-13
  0.1566000        2.6080093E-13
  0.1572000        2.5475249E-13
  0.1578000        2.4816138E-13
  0.1584000        2.4106617E-13
  0.1590000        2.3350652E-13
  0.1596000        2.2552312E-13
  0.1602000        2.1715737E-13
  0.1608000        2.0845124E-13
  0.1614000        1.9944699E-13
  0.1620000        1.9018696E-13
  0.1626000        1.8071337E-13
  0.1632000        1.7106798E-13
  0.1638000        1.6129203E-13
  0.1644000        1.5142584E-13
  0.1650000        1.4150874E-13
  0.1656000        1.3157876E-13
  0.1662000        1.2167257E-13
  0.1668000        1.1182515E-13
  0.1674000        1.0206981E-13
  0.1680000        9.2437946E-14
  0.1686000        8.2959010E-14
  0.1692000        7.3660397E-14
  0.1698000        6.4567370E-14
  0.1704000        5.5703086E-14
  0.1710000        4.7088500E-14
  0.1716000        3.8742440E-14
  0.1722000        3.0681587E-14
  0.1728000        2.2920518E-14
  0.1734000        1.5471773E-14
  0.1740000        8.3458986E-15
  0.1746000        1.5515362E-15
  0.1752000       -4.9045058E-15
  0.1758000       -1.1017159E-14
  0.1764000       -1.6783007E-14
  0.1770000       -2.2200186E-14
  0.1776000       -2.7268295E-14
  0.1782000       -3.1988298E-14
  0.1788000       -3.6362430E-14
  0.1794000       -4.0394110E-14
  0.1800000       -4.4087862E-14
  0.1806000       -4.7449214E-14
  0.1812000       -5.0484644E-14
  0.1818000       -5.3201499E-14
  0.1824000       -5.5607923E-14
  0.1830000       -5.7712793E-14
  0.1836000       -5.9525660E-14
  0.1842000       -6.1056696E-14
  0.1848000       -6.2316621E-14
  0.1854000       -6.3316648E-14
  0.1860000       -6.4068420E-14
  0.1866000       -6.4583952E-14
  0.1872000       -6.4875561E-14
  0.1878000       -6.4955826E-14
  0.1884000       -6.4837485E-14
  0.1890000       -6.4533407E-14
  0.1896000       -6.4056494E-14
  0.1902000       -6.3419647E-14
  0.1908000       -6.2635694E-14
  0.1914000       -6.1717328E-14
  0.1920000       -6.0677063E-14
  0.1926000       -5.9527165E-14
  0.1932000       -5.8279621E-14
  0.1938000       -5.6946079E-14
  0.1944000       -5.5537812E-14
  0.1950000       -5.4065686E-14
  0.1956000       -5.2540109E-14
  0.1962000       -5.0971007E-14
  0.1968000       -4.9367797E-14
  0.1974000       -4.7739356E-14
  0.1980000       -4.6094002E-14
  0.1986000       -4.4439465E-14
  0.1992000       -4.2782896E-14
  0.1998000       -4.1130839E-14
  0.2004000       -3.9489238E-14
  0.2010000       -3.7863433E-14
  0.2016000       -3.6258184E-14
  0.2022000       -3.4677671E-14
  0.2028000       -3.3125517E-14
  0.2034000       -3.1604829E-14
  0.2040000       -3.0118208E-14
  0.2046000       -2.8667806E-14
  0.2052000       -2.7255343E-14
  0.2058000       -2.5882174E-14
  0.2064000       -2.4549309E-14
  0.2070000       -2.3257472E-14
  0.2076000       -2.2007136E-14
  0.2082000       -2.0798577E-14
  0.2088000       -1.9631901E-14
  0.2094000       -1.8507087E-14
  0.2100000       -1.7424025E-14
  0.2106000       -1.6382530E-14
  0.2112000       -1.5382376E-14
  0.2118000       -1.4423308E-14
  0.2124000       -1.3505046E-14
  0.2130000       -1.2627300E-14
  0.2136000       -1.1789758E-14
  0.2142000       -1.0992088E-14
  0.2148000       -1.0233919E-14
  0.2154000       -9.5148346E-15
  0.2160000       -8.8343571E-15
  0.2166000       -8.1919309E-15
  0.2172000       -7.5869105E-15
  0.2178000       -7.0185468E-15
  0.2184000       -6.4859773E-15
  0.2190000       -5.9882214E-15
  0.2196000       -5.5241765E-15
  0.2202000       -5.0926200E-15
  0.2208000       -4.6922131E-15
  0.2214000       -4.3215125E-15
  0.2220000       -3.9789792E-15
  0.2226000       -3.6629974E-15
  0.2232000       -3.3718899E-15
  0.2238000       -3.1039412E-15
  0.2244000       -2.8574176E-15
  0.2250000       -2.6305921E-15
  0.2256000       -2.4217688E-15
  0.2262000       -2.2293064E-15
  0.2268000       -2.0516428E-15
  0.2274000       -1.8873162E-15
  0.2280000       -1.7349848E-15
  0.2286000       -1.5934433E-15
  0.2292000       -1.4616332E-15
  0.2298000       -1.3386504E-15
  0.2304000       -1.2237452E-15
  0.2310000       -1.1163171E-15
  0.2316000       -1.0159035E-15
  0.2322000       -9.2216361E-16
  0.2328000       -8.3485717E-16
  0.2334000       -7.5382052E-16
  0.2340000       -6.7894053E-16
  0.2346000       -6.1012921E-16
  0.2352000       -5.4729922E-16
  0.2358000       -4.9034330E-16
  0.2364000       -4.3911766E-16
  0.2370000       -3.9343132E-16
  0.2376000       -3.5304087E-16
  0.2382000       -3.1765115E-16
  0.2388000       -2.8692111E-16
  0.2394000       -2.6047393E-16
  0.2400000       -2.3791001E-16
  0.2406000       -2.1882147E-16
  0.2412000       -2.0280681E-16
  0.2418000       -1.8948422E-16
  0.2424000       -1.7850266E-16
  0.2430000       -1.6954970E-16
  0.2436000       -1.6235594E-16
  0.2442000       -1.5669604E-16
  0.2448000       -1.5238639E-16
  0.2454000       -1.4928017E-16
  0.2460000       -1.4726053E-16
  0.2466000       -1.4623246E-16
  0.2472000       -1.4611428E-16
  0.2478000       -1.4682930E-16
  0.2484000       -1.4829810E-16
  0.2490000       -1.5043203E-16
  0.2496000       -1.5312785E-16
  0.2502000       -1.5626392E-16
  0.2508000       -1.5969794E-16
  0.2514000       -1.6326620E-16
  0.2520000       -1.6678453E-16
  0.2526000       -1.7005093E-16
  0.2532000       -1.7284988E-16
  0.2538000       -1.7495847E-16
  0.2544000       -1.7615404E-16
  0.2550000       -1.7622350E-16
  0.2556000       -1.7497354E-16
  0.2562000       -1.7224167E-16
  0.2568000       -1.6790710E-16
  0.2574000       -1.6190090E-16
  0.2580000       -1.5421455E-16
  0.2586000       -1.4490596E-16
  0.2592000       -1.3410243E-16
  0.2598000       -1.2199978E-16
  0.2604000       -1.0885754E-16
  0.2610000       -9.4990047E-17
  0.2616000       -8.0753818E-17
  0.2622000       -6.6531758E-17
  0.2628000       -5.2715019E-17
  0.2634000       -3.9683586E-17
  0.2640000       -2.7786651E-17
  0.2646000       -1.7323983E-17
  0.2652000       -8.5292909E-18
  0.2658000       -1.5566494E-18
  0.2664000        3.5293617E-18
  0.2670000        6.7591509E-18
  0.2676000        8.2589468E-18
  0.2682000        8.2468261E-18
  0.2688000        7.0240265E-18
  0.2694000        4.9618111E-18
  0.2700000        2.4843445E-18
  0.2706000        4.8197132E-20
  0.2712000       -1.8807403E-18
  0.2718000       -2.8519779E-18
  0.2724000       -2.4556875E-18
  0.2730000       -3.4726541E-19
  0.2736000        3.7301379E-18
  0.2742000        9.9265065E-18
  0.2748000        1.8270607E-17
  0.2754000        2.8661613E-17
  0.2760000        4.0867672E-17
  0.2766000        5.4532018E-17
  0.2772000        6.9186783E-17
  0.2778000        8.4274120E-17
  0.2784000        9.9173655E-17
  0.2790000        1.1323481E-16
  0.2796000        1.2581199E-16
  0.2802000        1.3630025E-16
  0.2808000        1.4416915E-16
  0.2814000        1.4899208E-16
  0.2820000        1.5046913E-16
  0.2826000        1.4844176E-16
  0.2832000        1.4289806E-16
  0.2838000        1.3396866E-16
  0.2844000        1.2191348E-16
  0.2850000        1.0710073E-16
  0.2856000        8.9980204E-17
  0.2862000        7.1052988E-17
  0.2868000        5.0840314E-17
  0.2874000        2.9853931E-17
  0.2880000        8.5703273E-18
  0.2886000       -1.2589594E-17
  0.2892000       -3.3274343E-17
  0.2898000       -5.3208820E-17
  0.2904000       -7.2194861E-17
  0.2910000       -9.0106306E-17
  0.2916000       -1.0688003E-16
  0.2922000       -1.2250456E-16
  0.2928000       -1.3700790E-16
  0.2934000       -1.5044597E-16
  0.2940000       -1.6289279E-16
  0.2946000       -1.7443287E-16
  0.2952000       -1.8515595E-16
  0.2958000       -1.9515373E-16
  0.2964000       -2.0451788E-16
  0.2970000       -2.1333840E-16
  0.2976000       -2.2170165E-16
  0.2982000       -2.2968704E-16
  0.2988000       -2.3736248E-16
  0.2994000       -2.4477804E-16
  0.3000000       -2.5195898E-16
  0.3006000       -2.5889808E-16
  0.3012000       -2.6554922E-16
  0.3018000       -2.7182259E-16
  0.3024000       -2.7758297E-16
  0.3030000       -2.8265185E-16
  0.3036000       -2.8681359E-16
  0.3042000       -2.8982564E-16
  0.3048000       -2.9143214E-16
  0.3054000       -2.9138010E-16
  0.3060000       -2.8943621E-16
  0.3066000       -2.8540338E-16
  0.3072000       -2.7913473E-16
  0.3078000       -2.7054431E-16
  0.3084000       -2.5961287E-16
  0.3090000       -2.4638862E-16
  0.3096000       -2.3098263E-16
  0.3102000       -2.1355961E-16
  0.3108000       -1.9432511E-16
  0.3114000       -1.7351038E-16
  0.3120000       -1.5135675E-16
  0.3126000       -1.2810094E-16
  0.3132000       -1.0396283E-16
  0.3138000       -7.9137110E-17
  0.3144000       -5.3789090E-17
  0.3150000       -2.8055174E-17
  0.3156000       -2.0476571E-18
  0.3162000        2.4137104E-17
  0.3168000        5.0408148E-17
  0.3174000        7.6668506E-17
  0.3180000        1.0280436E-16
  0.3186000        1.2867611E-16
  0.3192000        1.5411259E-16
  0.3198000        1.7890903E-16
  0.3204000        2.0282917E-16
  0.3210000        2.2561130E-16
  0.3216000        2.4697768E-16
  0.3222000        2.6664621E-16
  0.3228000        2.8434319E-16
  0.3234000        2.9981589E-16
  0.3240000        3.1284355E-16
  0.3246000        3.2324545E-16
  0.3252000        3.3088596E-16
  0.3258000        3.3567532E-16
  0.3264000        3.3756709E-16
  0.3270000        3.3655197E-16
  0.3276000        3.3264977E-16
  0.3282000        3.2589987E-16
  0.3288000        3.1635214E-16
  0.3294000        3.0405936E-16
  0.3300000        2.8907225E-16
  0.3306000        2.7143795E-16
  0.3312000        2.5120260E-16
  0.3318000        2.2841752E-16
  0.3324000        2.0314878E-16
  0.3330000        1.7548913E-16
  0.3336000        1.4557067E-16
  0.3342000        1.1357701E-16
  0.3348000        7.9753042E-17
  0.3354000        4.4410976E-17
  0.3360000        7.9313841E-18
  0.3366000       -2.9241619E-17
  0.3372000       -6.6611187E-17
  0.3378000       -1.0364425E-16
  0.3384000       -1.3979277E-16
  0.3390000       -1.7451835E-16
  0.3396000       -2.0731813E-16
  0.3402000       -2.3775013E-16
  0.3408000       -2.6545568E-16
  0.3414000       -2.9017710E-16
  0.3420000       -3.1176882E-16
  0.3426000       -3.3020102E-16
  0.3432000       -3.4555522E-16
  0.3438000       -3.5801200E-16
  0.3444000       -3.6783189E-16
  0.3450000       -3.7533094E-16
  0.3456000       -3.8085262E-16
  0.3462000       -3.8473896E-16
  0.3468000       -3.8730264E-16
  0.3474000       -3.8880244E-16
  0.3480000       -3.8942406E-16
  0.3486000       -3.8926746E-16
  0.3492000       -3.8834142E-16
  0.3498000       -3.8656546E-16
  0.3504000       -3.8377880E-16
  0.3510000       -3.7975486E-16
  0.3516000       -3.7422019E-16
  0.3522000       -3.6687612E-16
  0.3528000       -3.5742120E-16
  0.3534000       -3.4557287E-16
  0.3540000       -3.3108721E-16
  0.3546000       -3.1377507E-16
  0.3552000       -2.9351484E-16
  0.3558000       -2.7026037E-16
  0.3564000       -2.4404541E-16
  0.3570000       -2.1498351E-16
  0.3576000       -1.8326512E-16
  0.3582000       -1.4915148E-16
  0.3588000       -1.1296667E-16
  0.3594000       -7.5087883E-17
  0.3600000       -3.5934814E-17
  0.3606000        4.0417691E-18
  0.3612000        4.4371579E-17
  0.3618000        8.4576465E-17
  0.3624000        1.2418178E-16
  0.3630000        1.6272728E-16
  0.3636000        1.9977730E-16
  0.3642000        2.3492988E-16
  0.3648000        2.6782472E-16
  0.3654000        2.9814930E-16
  0.3660000        3.2564354E-16
  0.3666000        3.5010212E-16
  0.3672000        3.7137469E-16
  0.3678000        3.8936389E-16
  0.3684000        4.0402124E-16
  0.3690000        4.1534096E-16
  0.3696000        4.2335223E-16
  0.3702000        4.2811020E-16
  0.3708000        4.2968639E-16
  0.3714000        4.2815909E-16
  0.3720000        4.2360433E-16
  0.3726000        4.1608829E-16
  0.3732000        4.0566176E-16
  0.3738000        3.9235741E-16
  0.3744000        3.7618988E-16
  0.3750000        3.5715970E-16
  0.3756000        3.3526048E-16
  0.3762000        3.1048932E-16
  0.3768000        2.8285998E-16
  0.3774000        2.5241783E-16
  0.3780000        2.1925523E-16
  0.3786000        1.8352652E-16
  0.3792000        1.4546025E-16
  0.3798000        1.0536811E-16
  0.3804000        6.3648418E-17
  0.3810000        2.0783695E-17
  0.3816000       -2.2668536E-17
  0.3822000       -6.6091678E-17
  0.3828000       -1.0883211E-16
  0.3834000       -1.5022622E-16
  0.3840000       -1.8963052E-16
  0.3846000       -2.2645286E-16
  0.3852000       -2.6018197E-16
  0.3858000       -2.9041324E-16
  0.3864000       -3.1686798E-16
  0.3870000       -3.3940470E-16
  0.3876000       -3.5802087E-16
  0.3882000       -3.7284498E-16
  0.3888000       -3.8411930E-16
  0.3894000       -3.9217451E-16
  0.3900000       -3.9739848E-16
  0.3906000       -4.0020192E-16
  0.3912000       -4.0098349E-16
  0.3918000       -4.0009816E-16
  0.3924000       -3.9783094E-16
  0.3930000       -3.9437851E-16
  0.3936000       -3.8984035E-16
  0.3942000       -3.8421957E-16
  0.3948000       -3.7743325E-16
  0.3954000       -3.6933088E-16
  0.3960000       -3.5971835E-16
  0.3966000       -3.4838537E-16
  0.3972000       -3.3513282E-16
  0.3978000       -3.1979755E-16
  0.3984000       -3.0227207E-16
  0.3990000       -2.8251723E-16
  0.3996000       -2.6056729E-16
  0.4002000       -2.3652733E-16
  0.4008000       -2.1056377E-16
  0.4014000       -1.8288990E-16
  0.4020000       -1.5374864E-16
  0.4026000       -1.2339495E-16
  0.4032000       -9.2080091E-17
  0.4038000       -6.0039992E-17
  0.4044000       -2.7488744E-17
  0.4050000        5.3820118E-18
  0.4056000        3.8398217E-17
  0.4062000        7.1394078E-17
  0.4068000        1.0419995E-16
  0.4074000        1.3662951E-16
  0.4080000        1.6846832E-16
  0.4086000        1.9946564E-16
  0.4092000        2.2933131E-16
  0.4098000        2.5773799E-16
  0.4104000        2.8432943E-16
  0.4110000        3.0873372E-16
  0.4116000        3.3058055E-16
  0.4122000        3.4952034E-16
  0.4128000        3.6524360E-16
  0.4134000        3.7749799E-16
  0.4140000        3.8610189E-16
  0.4146000        3.9095248E-16
  0.4152000        3.9202816E-16
  0.4158000        3.8938480E-16
  0.4164000        3.8314699E-16
  0.4170000        3.7349460E-16
  0.4176000        3.6064728E-16
  0.4182000        3.4484808E-16
  0.4188000        3.2634795E-16
  0.4194000        3.0539347E-16
  0.4200000        2.8221812E-16
  0.4206000        2.5703863E-16
  0.4212000        2.3005587E-16
  0.4218000        2.0146027E-16
  0.4224000        1.7144057E-16
  0.4230000        1.4019425E-16
  0.4236000        1.0793848E-16
  0.4242000        7.4919283E-17
  0.4248000        4.1417764E-17