 -0.1200000        0.0000000E+00
 -0.1194000       -2.4438160E-07
 -0.1188000       -7.5770294E-07
 -0.1182000       -1.5584128E-06
 -0.1176000       -2.6587877E-06
 -0.1170000       -4.0652330E-06
 -0.1164000       -5.7789352E-06
 -0.1158000       -7.7968407E-06
 -0.1152000       -1.0112916E-05
 -0.1146000       -1.2719636E-05
 -0.1140000       -1.5609638E-05
 -0.1134000       -1.8777464E-05
 -0.1128000       -2.2221342E-05
 -0.1122000       -2.5944906E-05
 -0.1116000       -2.9958817E-05
 -0.1110000       -3.4282231E-05
 -0.1104000       -3.8944076E-05
 -0.1098000       -4.3984091E-05
 -0.1092000       -4.9453643E-05
 -0.1086000       -5.5416334E-05
 -0.1080000       -6.1948354E-05
 -0.1074000       -6.9138696E-05
 -0.1068000       -7.7089215E-05
 -0.1062000       -8.5914558E-05
 -0.1056000       -9.5742093E-05
 -0.1050000       -1.0671179E-04
 -0.1044000       -1.1897619E-04
 -0.1038000       -1.3270041E-04
 -0.1032000       -1.4806238E-04
 -0.1026000       -1.6525306E-04
 -0.1020000       -1.8447715E-04
 -0.1014000       -2.0595363E-04
 -0.1008000       -2.2991694E-04
 -0.1002000       -2.5661802E-04
 -9.9600002E-02   -2.8632593E-04
 -9.8999999E-02   -3.1932938E-04
 -9.8399997E-02   -3.5593880E-04
 -9.7800002E-02   -3.9648838E-04
 -9.7199999E-02   -4.4133837E-04
 -9.6600004E-02   -4.9087760E-04
 -9.6000001E-02   -5.4552621E-04
 -9.5399998E-02   -6.0573797E-04
 -9.4800003E-02   -6.7200343E-04
 -9.4200000E-02   -7.4485253E-04
 -9.3599997E-02   -8.2485733E-04
 -9.3000002E-02   -9.1263512E-04
 -9.2399999E-02   -1.0088505E-03
 -9.1799997E-02   -1.1142186E-03
 -9.1200002E-02   -1.2295072E-03
 -9.0599999E-02   -1.3555395E-03
 -9.0000004E-02   -1.4931964E-03
 -8.9400001E-02   -1.6434182E-03
 -8.8799998E-02   -1.8072082E-03
 -8.8200003E-02   -1.9856335E-03
 -8.7600000E-02   -2.1798273E-03
 -8.6999997E-02   -2.3909926E-03
 -8.6400002E-02   -2.6204016E-03
 -8.5800000E-02   -2.8694000E-03
 -8.5199997E-02   -3.1394076E-03
 -8.4600002E-02   -3.4319218E-03
 -8.3999999E-02   -3.7485168E-03
 -8.3400004E-02   -4.0908474E-03
 -8.2800001E-02   -4.4606500E-03
 -8.2199998E-02   -4.8597422E-03
 -8.1600003E-02   -5.2900254E-03
 -8.1000000E-02   -5.7534827E-03
 -8.0399998E-02   -6.2521817E-03
 -7.9800002E-02   -6.7882715E-03
 -7.9200000E-02   -7.3639806E-03
 -7.8599997E-02   -7.9816179E-03
 -7.8000002E-02   -8.6435648E-03
 -7.7399999E-02   -9.3522780E-03
 -7.6800004E-02   -1.0110281E-02
 -7.6200001E-02   -1.0920159E-02
 -7.5599998E-02   -1.1784553E-02
 -7.5000003E-02   -1.2706155E-02
 -7.4400000E-02   -1.3687700E-02
 -7.3799998E-02   -1.4731956E-02
 -7.3200002E-02   -1.5841711E-02
 -7.2600000E-02   -1.7019773E-02
 -7.1999997E-02   -1.8268943E-02
 -7.1400002E-02   -1.9592017E-02
 -7.0799999E-02   -2.0991763E-02
 -7.0200004E-02   -2.2470910E-02
 -6.9600001E-02   -2.4032131E-02
 -6.8999998E-02   -2.5678024E-02
 -6.8400003E-02   -2.7411096E-02
 -6.7800000E-02   -2.9233743E-02
 -6.7199998E-02   -3.1148227E-02
 -6.6600002E-02   -3.3156659E-02
 -6.6000000E-02   -3.5260964E-02
 -6.5399997E-02   -3.7462875E-02
 -6.4800002E-02   -3.9763890E-02
 -6.4199999E-02   -4.2165257E-02
 -6.3600004E-02   -4.4667948E-02
 -6.3000001E-02   -4.7272615E-02
 -6.2399998E-02   -4.9979586E-02
 -6.1799999E-02   -5.2788813E-02
 -6.1200000E-02   -5.5699859E-02
 -6.0600001E-02   -5.8711857E-02
 -5.9999999E-02   -6.1823484E-02
 -5.9400000E-02   -6.5032937E-02
 -5.8800001E-02   -6.8337888E-02
 -5.8200002E-02   -7.1735464E-02
 -5.7599999E-02   -7.5222224E-02
 -5.7000000E-02   -7.8794137E-02
 -5.6400001E-02   -8.2446516E-02
 -5.5799998E-02   -8.6174034E-02
 -5.5199999E-02   -8.9970700E-02
 -5.4600000E-02   -9.3829788E-02
 -5.4000001E-02   -9.7743891E-02
 -5.3399999E-02   -0.1017048    
 -5.2800000E-02   -0.1057037    
 -5.2200001E-02   -0.1097309    
 -5.1600002E-02   -0.1137759    
 -5.0999999E-02   -0.1178276    
 -5.0400000E-02   -0.1218739    
 -4.9800001E-02   -0.1259021    
 -4.9199998E-02   -0.1298987    
 -4.8599999E-02   -0.1338494    
 -4.8000000E-02   -0.1377393    
 -4.7400001E-02   -0.1415526    
 -4.6799999E-02   -0.1452731    
 -4.6200000E-02   -0.1488836    
 -4.5600001E-02   -0.1523665    
 -4.5000002E-02   -0.1557038    
 -4.4399999E-02   -0.1588767    
 -4.3800000E-02   -0.1618659    
 -4.3200001E-02   -0.1646521    
 -4.2599998E-02   -0.1672154    
 -4.1999999E-02   -0.1695355    
 -4.1400000E-02   -0.1715923    
 -4.0800001E-02   -0.1733653    
 -4.0199999E-02   -0.1748341    
 -3.9600000E-02   -0.1759784    
 -3.9000001E-02   -0.1767782    
 -3.8400002E-02   -0.1772135    
 -3.7799999E-02   -0.1772649    
 -3.7200000E-02   -0.1769136    
 -3.6600001E-02   -0.1761412    
 -3.5999998E-02   -0.1749301    
 -3.5399999E-02   -0.1732635    
 -3.4800000E-02   -0.1711258    
 -3.4200002E-02   -0.1685023    
 -3.3599999E-02   -0.1653793    
 -3.3000000E-02   -0.1617448    
 -3.2400001E-02   -0.1575880    
 -3.1800002E-02   -0.1528997    
 -3.1199999E-02   -0.1476722    
 -3.0600000E-02   -0.1418999    
 -2.9999999E-02   -0.1355785    
 -2.9400000E-02   -0.1287062    
 -2.8800000E-02   -0.1212829    
 -2.8200001E-02   -0.1133106    
 -2.7600000E-02   -0.1047935    
 -2.7000001E-02   -9.5738210E-02
 -2.6400000E-02   -8.6153366E-02
 -2.5800001E-02   -7.6050043E-02
 -2.5200000E-02   -6.5441646E-02
 -2.4599999E-02   -5.4343943E-02
 -2.4000000E-02   -4.2775076E-02
 -2.3399999E-02   -3.0755559E-02
 -2.2800000E-02   -1.8308243E-02
 -2.2200000E-02   -5.4582958E-03
 -2.1600001E-02    7.7668452E-03
 -2.1000000E-02    2.1337537E-02
 -2.0400001E-02    3.5222001E-02
 -1.9800000E-02    4.9386412E-02
 -1.9200001E-02    6.3794993E-02
 -1.8600000E-02    7.8410126E-02
 -1.7999999E-02    9.3192495E-02
 -1.7400000E-02    0.1081012    
 -1.6799999E-02    0.1230939    
 -1.6200000E-02    0.1381270    
 -1.5600000E-02    0.1531559    
 -1.5000000E-02    0.1681349    
 -1.4400000E-02    0.1830178    
 -1.3800000E-02    0.1977576    
 -1.3200000E-02    0.2123073    
 -1.2600000E-02    0.2266196    
 -1.2000000E-02    0.2406473    
 -1.1400000E-02    0.2543435    
 -1.0800000E-02    0.2676619    
 -1.0200000E-02    0.2805570    
 -9.6000005E-03    0.2929841    
 -8.9999996E-03    0.3049000    
 -8.3999997E-03    0.3162625    
 -7.7999998E-03    0.3270313    
 -7.1999999E-03    0.3371678    
 -6.6000000E-03    0.3466355    
 -6.0000001E-03    0.3553999    
 -5.4000001E-03    0.3634292    
 -4.8000002E-03    0.3706937    
 -4.1999999E-03    0.3771667    
 -3.5999999E-03    0.3828244    
 -3.0000000E-03    0.3876455    
 -2.4000001E-03    0.3916121    
 -1.8000000E-03    0.3947096    
 -1.2000001E-03    0.3969262    
 -6.0000003E-04    0.3982537    
  0.0000000E+00    0.3986872    
  6.0000003E-04    0.3982251    
  1.2000001E-03    0.3968690    
  1.8000000E-03    0.3946243    
  2.4000001E-03    0.3914993    
  3.0000000E-03    0.3875059    
  3.5999999E-03    0.3826589    
  4.1999999E-03    0.3769766    
  4.8000002E-03    0.3704801    
  5.4000001E-03    0.3631936    
  6.0000001E-03    0.3551440    
  6.6000000E-03    0.3463609    
  7.1999999E-03    0.3368764    
  7.7999998E-03    0.3267251    
  8.3999997E-03    0.3159435    
  8.9999996E-03    0.3045704    
  9.6000005E-03    0.2926462    
  1.0200000E-02    0.2802129    
  1.0800000E-02    0.2673140    
  1.1400000E-02    0.2539941    
  1.2000000E-02    0.2402987    
  1.2600000E-02    0.2262741    
  1.3200000E-02    0.2119672    
  1.3800000E-02    0.1974251    
  1.4400000E-02    0.1826949    
  1.5000000E-02    0.1678238    
  1.5600000E-02    0.1528585    
  1.6200000E-02    0.1378451    
  1.6799999E-02    0.1228291    
  1.7400000E-02    0.1078551    
  1.7999999E-02    9.2966542E-02
  1.8600000E-02    7.8205518E-02
  1.9200001E-02    6.3612796E-02
  1.9800000E-02    4.9227513E-02
  2.0400001E-02    3.5087097E-02
  2.1000000E-02    2.1227136E-02
  2.1600001E-02    7.6812729E-03
  2.2200000E-02   -5.5189026E-03
  2.2800000E-02   -1.8343937E-02
  2.3399999E-02   -3.0766580E-02
  2.4000000E-02   -4.2761847E-02
  2.4599999E-02   -5.4307066E-02
  2.5200000E-02   -6.5381892E-02
  2.5800001E-02   -7.5968347E-02
  2.6400000E-02   -8.6050816E-02
  2.7000001E-02   -9.5616020E-02
  2.7600000E-02   -0.1046530    
  2.8200001E-02   -0.1131533    
  2.8800000E-02   -0.1211103    
  2.9400000E-02   -0.1285201    
  2.9999999E-02   -0.1353805    
  3.0600000E-02   -0.1416917    
  3.1199999E-02   -0.1474559    
  3.1800002E-02   -0.1526768    
  3.2400001E-02   -0.1573605    
  3.3000000E-02   -0.1615145    
  3.3599999E-02   -0.1651480    
  3.4200002E-02   -0.1682716    
  3.4800000E-02   -0.1708975    
  3.5399999E-02   -0.1730392    
  3.5999998E-02   -0.1747112    
  3.6600001E-02   -0.1759291    
  3.7200000E-02   -0.1767097    
  3.7799999E-02   -0.1770703    
  3.8400002E-02   -0.1770293    
  3.9000001E-02   -0.1766052    
  3.9600000E-02   -0.1758175    
  4.0199999E-02   -0.1746859    
  4.0800001E-02   -0.1732302    
  4.1400000E-02   -0.1714708    
  4.1999999E-02   -0.1694278    
  4.2599998E-02   -0.1671215    
  4.3200001E-02   -0.1645721    
  4.3800000E-02   -0.1617997    
  4.4399999E-02   -0.1588238    
  4.5000002E-02   -0.1556641    
  4.5600001E-02   -0.1523395    
  4.6200000E-02   -0.1488687    
  4.6799999E-02   -0.1452697    
  4.7400001E-02   -0.1415602    
  4.8000000E-02   -0.1377570    
  4.8599999E-02   -0.1338766    
  4.9199998E-02   -0.1299345    
  4.9800001E-02   -0.1259457    
  5.0400000E-02   -0.1219245    
  5.0999999E-02   -0.1178844    
  5.1600002E-02   -0.1138380    
  5.2200001E-02   -0.1097975    
  5.2800000E-02   -0.1057741    
  5.3399999E-02   -0.1017781    
  5.4000001E-02   -9.7819328E-02
  5.4600000E-02   -9.3906708E-02
  5.5199999E-02   -9.0048440E-02
  5.5799998E-02   -8.6251996E-02
  5.6400001E-02   -8.2524121E-02
  5.7000000E-02   -7.8870885E-02
  5.7599999E-02   -7.5297654E-02
  5.8200002E-02   -7.1809173E-02
  5.8800001E-02   -6.8409525E-02
  5.9400000E-02   -6.5102220E-02
  5.9999999E-02   -6.1890170E-02
  6.0600001E-02   -5.8775745E-02
  6.1200000E-02   -5.5760797E-02
  6.1799999E-02   -5.2846689E-02
  6.2399998E-02   -5.0034322E-02
  6.3000001E-02   -4.7324166E-02
  6.3600004E-02   -4.4716299E-02
  6.4199999E-02   -4.2210419E-02
  6.4800002E-02   -3.9805878E-02
  6.5399997E-02   -3.7501734E-02
  6.6000000E-02   -3.5296749E-02
  6.6600002E-02   -3.3189427E-02
  6.7199998E-02   -3.1178050E-02
  6.7800000E-02   -2.9260684E-02
  6.8400003E-02   -2.7435228E-02
  6.8999998E-02   -2.5699418E-02
  6.9600001E-02   -2.4050856E-02
  7.0200004E-02   -2.2487033E-02
  7.0799999E-02   -2.1005349E-02
  7.1400002E-02   -1.9603131E-02
  7.1999997E-02   -1.8277649E-02
  7.2600000E-02   -1.7026134E-02
  7.3200002E-02   -1.5845796E-02
  7.3799998E-02   -1.4733833E-02
  7.4400000E-02   -1.3687446E-02
  7.5000003E-02   -1.2703848E-02
  7.5599998E-02   -1.1780282E-02
  7.6200001E-02   -1.0914023E-02
  7.6800004E-02   -1.0102388E-02
  7.7399999E-02   -9.3427440E-03
  7.8000002E-02   -8.6325174E-03
  7.8599997E-02   -7.9691922E-03
  7.9200000E-02   -7.3503237E-03
  7.9800002E-02   -6.7735356E-03
  8.0399998E-02   -6.2365257E-03
  8.1000000E-02   -5.7370705E-03
  8.1600003E-02   -5.2730227E-03
  8.2199998E-02   -4.8423158E-03
  8.2800001E-02   -4.4429651E-03
  8.3400004E-02   -4.0730666E-03
  8.3999999E-02   -3.7307972E-03
  8.4600002E-02   -3.4144148E-03
  8.5199997E-02   -3.1222580E-03
  8.5800000E-02   -2.8527435E-03
  8.6400002E-02   -2.6043660E-03
  8.6999997E-02   -2.3756966E-03
  8.7600000E-02   -2.1653797E-03
  8.8200003E-02   -1.9721321E-03
  8.8799998E-02   -1.7947414E-03
  8.9400001E-02   -1.6320623E-03
  9.0000004E-02   -1.4830158E-03
  9.0599999E-02   -1.3465860E-03
  9.1200002E-02   -1.2218180E-03
  9.1799997E-02   -1.1078159E-03
  9.2399999E-02   -1.0037393E-03
  9.3000002E-02   -9.0880290E-04
  9.3599997E-02   -8.2227244E-04
  9.4200000E-02   -7.4346305E-04
  9.4800003E-02   -6.7173725E-04
  9.5399998E-02   -6.0650223E-04
  9.6000001E-02   -5.4720853E-04
  9.6600004E-02   -4.9334660E-04
  9.7199999E-02   -4.4444593E-04
  9.7800002E-02   -4.0007255E-04
  9.8399997E-02   -3.5982730E-04
  9.8999999E-02   -3.2334297E-04
  9.9600002E-02   -2.9028344E-04
  0.1002000       -2.6034133E-04
  0.1008000       -2.3323567E-04
  0.1014000       -2.0871100E-04
  0.1020000       -1.8653474E-04
  0.1026000       -1.6649578E-04
  0.1032000       -1.4840270E-04
  0.1038000       -1.3208167E-04
  0.1044000       -1.1737553E-04
  0.1050000       -1.0414161E-04
  0.1056000       -9.2250593E-05
  0.1062000       -8.1584942E-05
  0.1068000       -7.2037437E-05
  0.1074000       -6.3510503E-05
  0.1080000       -5.5914563E-05
  0.1086000       -4.9167375E-05
  0.1092000       -4.3193122E-05
  0.1098000       -3.7921593E-05
  0.1104000       -3.3287692E-05
  0.1110000       -2.9230790E-05
  0.1116000       -2.5694320E-05
  0.1122000       -2.2625441E-05
  0.1128000       -1.9974801E-05
  0.1134000       -1.7696306E-05
  0.1140000       -1.5746913E-05
  0.1146000       -1.4086585E-05
  0.1152000       -1.2678187E-05
  0.1158000       -1.1487406E-05
  0.1164000       -1.0482579E-05
  0.1170000       -9.6347758E-06
  0.1176000       -8.9177047E-06
  0.1182000       -8.3075765E-06
  0.1188000       -7.7830791E-06
  0.1194000       -7.3251304E-06
  0.1200000       -6.9169246E-06
  0.1206000       -6.5440204E-06
  0.1212000       -6.1936780E-06
  0.1218000       -5.8553060E-06
  0.1224000       -5.5199930E-06
  0.1230000       -5.1808829E-06
  0.1236000       -4.8320617E-06
  0.1242000       -4.4696467E-06
  0.1248000       -4.0912105E-06
  0.1254000       -3.6954730E-06
  0.1260000       -3.2824962E-06
  0.1266000       -2.8536833E-06
  0.1272000       -2.4110209E-06
  0.1278000       -1.9583351E-06
  0.1284000       -1.4998633E-06
  0.1290000       -1.0407468E-06
  0.1296000       -5.8663619E-07
  0.1302000       -1.4414709E-07
  0.1308000        2.8040006E-07
  0.1314000        6.8005858E-07
  0.1320000        1.0480451E-06
  0.1326000        1.3777278E-06
  0.1332000        1.6633140E-06
  0.1338000        1.8993958E-06
  0.1344000        2.0812013E-06
  0.1350000        2.2056872E-06
  0.1356000        2.2704157E-06
  0.1362000        2.2743529E-06
  0.1368000        2.2182376E-06
  0.1374000        2.1040958E-06
  0.1380000        1.9353699E-06
  0.1386000        1.7168798E-06
  0.1392000        1.4550589E-06
  0.1398000        1.1572682E-06
  0.1404000        8.3201348E-07
  0.1410000        4.8864433E-07
  0.1416000        1.3654642E-07
  0.1422000       -2.1431342E-07
  0.1428000       -5.5406520E-07
  0.1434000       -8.7360041E-07
  0.1440000       -1.1639264E-06
  0.1446000       -1.4175159E-06
  0.1452000       -1.6278299E-06
  0.1458000       -1.7897150E-06
  0.1464000       -1.8993107E-06
  0.1470000       -1.9550127E-06
  0.1476000       -1.9560371E-06
  0.1482000       -1.9037559E-06
  0.1488000       -1.8008043E-06
  0.1494000       -1.6512296E-06
  0.1500000       -1.4605762E-06
  0.1506000       -1.2349860E-06
  0.1512000       -9.8167914E-07
  0.1518000       -7.0846482E-07
  0.1524000       -4.2319377E-07
  0.1530000       -1.3415745E-07
  0.1536000        1.5090895E-07
  0.1542000        4.2440811E-07
  0.1548000        6.7945103E-07
  0.1554000        9.0992688E-07
  0.1560000        1.1106329E-06
  0.1566000        1.2773924E-06
  0.1572000        1.4071114E-06
  0.1578000        1.4978034E-06
  0.1584000        1.5485989E-06
  0.1590000        1.5597070E-06
  0.1596000        1.5323449E-06
  0.1602000        1.4686306E-06
  0.1608000        1.3714341E-06
  0.1614000        1.2443232E-06
  0.1620000        1.0913903E-06
  0.1626000        9.1701162E-07
  0.1632000        7.2581224E-07
  0.1638000        5.2242990E-07
  0.1644000        3.1149949E-07
  0.1650000        9.7538518E-08
  0.1656000       -1.1526598E-07
  0.1662000       -3.2292735E-07
  0.1668000       -5.2207531E-07
  0.1674000       -7.0950949E-07
  0.1680000       -8.8249357E-07
  0.1686000       -1.0387056E-06
  0.1692000       -1.1761377E-06
  0.1698000       -1.2931112E-06
  0.1704000       -1.3883514E-06
  0.1710000       -1.4607024E-06
  0.1716000       -1.5094826E-06
  0.1722000       -1.5340537E-06
  0.1728000       -1.5343234E-06
  0.1734000       -1.5102022E-06
  0.1740000       -1.4621934E-06
  0.1746000       -1.3909410E-06
  0.1752000       -1.2974519E-06
  0.1758000       -1.1832750E-06
  0.1764000       -1.0502002E-06
  0.1770000       -9.0056420E-07
  0.1776000       -7.3682668E-07
  0.1782000       -5.6219869E-07
  0.1788000       -3.7998481E-07
  0.1794000       -1.9362072E-07
  0.1800000       -7.0430022E-09
  0.1806000        1.7583459E-07
  0.1812000        3.5130631E-07
  0.1818000        5.1567218E-07
  0.1824000        6.6565894E-07
  0.1830000        7.9816493E-07
  0.1836000        9.1077948E-07
  0.1842000        1.0015274E-06
  0.1848000        1.0690405E-06
  0.1854000        1.1126579E-06
  0.1860000        1.1322726E-06
  0.1866000        1.1286227E-06
  0.1872000        1.1029616E-06
  0.1878000        1.0569296E-06
  0.1884000        9.9288570E-07
  0.1890000        9.1336466E-07
  0.1896000        8.2128395E-07
  0.1902000        7.1960534E-07
  0.1908000        6.1145573E-07
  0.1914000        4.9983402E-07
  0.1920000        3.8757105E-07
  0.1926000        2.7726063E-07
  0.1932000        1.7128154E-07
  0.1938000        7.1497908E-08
  0.1944000       -2.0465137E-08
  0.1950000       -1.0347306E-07
  0.1956000       -1.7677873E-07
  0.1962000       -2.3998905E-07
  0.1968000       -2.9295620E-07
  0.1974000       -3.3588515E-07
  0.1980000       -3.6917436E-07
  0.1986000       -3.9323604E-07
  0.1992000       -4.0858816E-07
  0.1998000       -4.1568654E-07
  0.2004000       -4.1488380E-07
  0.2010000       -4.0639156E-07
  0.2016000       -3.9026398E-07
  0.2022000       -3.6643468E-07
  0.2028000       -3.3462055E-07
  0.2034000       -2.9458218E-07
  0.2040000       -2.4600013E-07
  0.2046000       -1.8869716E-07
  0.2052000       -1.2263912E-07
  0.2058000       -4.8107701E-08
  0.2064000        3.4238543E-08
  0.2070000        1.2330531E-07
  0.2076000        2.1751565E-07
  0.2082000        3.1478578E-07
  0.2088000        4.1255299E-07
  0.2094000        5.0781262E-07
  0.2100000        5.9725340E-07
  0.2106000        6.7730008E-07
  0.2112000        7.4435206E-07
  0.2118000        7.9487432E-07
  0.2124000        8.2557597E-07
  0.2130000        8.3361721E-07
  0.2136000        8.1674580E-07
  0.2142000        7.7344299E-07
  0.2148000        7.0303878E-07
  0.2154000        6.0581561E-07
  0.2160000        4.8303014E-07
  0.2166000        3.3693934E-07
  0.2172000        1.7076260E-07
  0.2178000       -1.1401796E-08
  0.2184000       -2.0469345E-07
  0.2190000       -4.0363125E-07
  0.2196000       -6.0232020E-07
  0.2202000       -7.9465195E-07
  0.2208000       -9.7452505E-07
  0.2214000       -1.1360781E-06
  0.2220000       -1.2739239E-06
  0.2226000       -1.3833576E-06
  0.2232000       -1.4605433E-06
  0.2238000       -1.5026692E-06
  0.2244000       -1.5080687E-06
  0.2250000       -1.4762805E-06
  0.2256000       -1.4080662E-06
  0.2262000       -1.3053881E-06
  0.2268000       -1.1713146E-06
  0.2274000       -1.0098998E-06
  0.2280000       -8.2601429E-07
  0.2286000       -6.2515699E-07
  0.2292000       -4.1323995E-07
  0.2298000       -1.9635809E-07
  0.2304000        1.9425709E-08
  0.2310000        2.2829362E-07
  0.2316000        4.2485681E-07
  0.2322000        6.0433166E-07
  0.2328000        7.6265923E-07
  0.2334000        8.9661563E-07
  0.2340000        1.0038694E-06
  0.2346000        1.0830003E-06
  0.2352000        1.1335094E-06
  0.2358000        1.1557689E-06
  0.2364000        1.1509677E-06
  0.2370000        1.1210196E-06
  0.2376000        1.0684616E-06
  0.2382000        9.9633235E-07
  0.2388000        9.0804167E-07
  0.2394000        8.0723316E-07
  0.2400000        6.9764542E-07
  0.2406000        5.8297377E-07
  0.2412000        4.6674805E-07
  0.2418000        3.5220535E-07
  0.2424000        2.4220344E-07
  0.2430000        1.3914399E-07
  0.2436000        4.4921936E-08
  0.2442000       -3.9101007E-08
  0.2448000       -1.1207634E-07
  0.2454000       -1.7364439E-07
  0.2460000       -2.2386881E-07
  0.2466000       -2.6315149E-07
  0.2472000       -2.9214905E-07
  0.2478000       -3.1168028E-07
  0.2484000       -3.2262290E-07
  0.2490000       -3.2584055E-07
  0.2496000       -3.2211926E-07
  0.2502000       -3.1211891E-07
  0.2508000       -2.9636712E-07
  0.2514000       -2.7525778E-07
  0.2520000       -2.4908866E-07
  0.2526000       -2.1810226E-07
  0.2532000       -1.8254731E-07
  0.2538000       -1.4273907E-07
  0.2544000       -9.9114779E-08
  0.2550000       -5.2286257E-08
  0.2556000       -3.0705012E-09
  0.2562000        4.7494773E-08
  0.2568000        9.8163611E-08
  0.2574000        1.4750269E-07
  0.2580000        1.9393519E-07
  0.2586000        2.3580785E-07
  0.2592000        2.7145711E-07
  0.2598000        2.9928395E-07
  0.2604000        3.1783199E-07
  0.2610000        3.2585916E-07
  0.2616000        3.2240368E-07
  0.2622000        3.0683489E-07
  0.2628000        2.7889519E-07
  0.2634000        2.3872440E-07
  0.2640000        1.8687184E-07
  0.2646000        1.2429108E-07
  0.2652000        5.2324207E-08
  0.2658000       -2.7336098E-08
  0.2664000       -1.1268845E-07
  0.2670000       -2.0148131E-07
  0.2676000       -2.9128213E-07
  0.2682000       -3.7955141E-07
  0.2688000       -4.6372892E-07
  0.2694000       -5.4131959E-07
  0.2700000       -6.0998207E-07
  0.2706000       -6.6761294E-07
  0.2712000       -7.1242812E-07
  0.2718000       -7.4303193E-07
  0.2724000       -7.5847362E-07
  0.2730000       -7.5828382E-07
  0.2736000       -7.4249380E-07
  0.2742000       -7.1163345E-07
  0.2748000       -6.6670253E-07
  0.2754000       -6.0912544E-07
  0.2760000       -5.4067914E-07
  0.2766000       -4.6341265E-07
  0.2772000       -3.7954788E-07
  0.2778000       -2.9137669E-07
  0.2784000       -2.0115596E-07
  0.2790000       -1.1100988E-07
  0.2796000       -2.2846015E-08
  0.2802000        6.1716690E-08
  0.2808000        1.4139414E-07
  0.2814000        2.1526209E-07
  0.2820000        2.8275508E-07
  0.2826000        3.4364072E-07
  0.2832000        3.9797499E-07
  0.2838000        4.4603672E-07
  0.2844000        4.8825342E-07
  0.2850000        5.2511587E-07
  0.2856000        5.5710012E-07
  0.2862000        5.8459528E-07
  0.2868000        6.0784208E-07
  0.2874000        6.2688906E-07
  0.2880000        6.4157700E-07
  0.2886000        6.5154296E-07
  0.2892000        6.5624459E-07
  0.2898000        6.5500848E-07
  0.2904000        6.4710110E-07
  0.2910000        6.3180397E-07
  0.2916000        6.0849391E-07
  0.2922000        5.7673003E-07
  0.2928000        5.3632186E-07
  0.2934000        4.8738940E-07
  0.2940000        4.3040072E-07
  0.2946000        3.6618093E-07
  0.2952000        2.9590626E-07
  0.2958000        2.2105729E-07
  0.2964000        1.4337014E-07
  0.2970000        6.4747766E-08
  0.2976000       -1.2822422E-08
  0.2982000       -8.7366487E-08
  0.2988000       -1.5701666E-07
  0.2994000       -2.2009407E-07
  0.3000000       -2.7518368E-07
  0.3006000       -3.2118683E-07
  0.3012000       -3.5735269E-07
  0.3018000       -3.8329580E-07
  0.3024000       -3.9898788E-07
  0.3030000       -4.0473805E-07
  0.3036000       -4.0115745E-07
  0.3042000       -3.8911608E-07
  0.3048000       -3.6969274E-07
  0.3054000       -3.4412565E-07
  0.3060000       -3.1376024E-07
  0.3066000       -2.8000173E-07
  0.3072000       -2.4426853E-07
  0.3078000       -2.0795034E-07
  0.3084000       -1.7236813E-07
  0.3090000       -1.3873775E-07
  0.3096000       -1.0813654E-07
  0.3102000       -8.1472606E-08
  0.3108000       -5.9459630E-08
  0.3114000       -4.2597176E-08
  0.3120000       -3.1158013E-08
  0.3126000       -2.5187662E-08
  0.3132000       -2.4510479E-08
  0.3138000       -2.8750742E-08
  0.3144000       -3.7362536E-08
  0.3150000       -4.9671176E-08
  0.3156000       -6.4919533E-08
  0.3162000       -8.2320916E-08
  0.3168000       -1.0110724E-07
  0.3174000       -1.2057752E-07
  0.3180000       -1.4013155E-07
  0.3186000       -1.5929703E-07
  0.3192000       -1.7773641E-07
  0.3198000       -1.9524273E-07
  0.3204000       -2.1171641E-07
  0.3210000       -2.2713145E-07
  0.3216000       -2.4149216E-07
  0.3222000       -2.5478423E-07
  0.3228000       -2.6692663E-07
  0.3234000       -2.7772910E-07
  0.3240000       -2.8686040E-07
  0.3246000       -2.9383034E-07
  0.3252000       -2.9798989E-07
  0.3258000       -2.9854746E-07
  0.3264000       -2.9460577E-07
  0.3270000       -2.8520944E-07
  0.3276000       -2.6941083E-07
  0.3282000       -2.4633610E-07
  0.3288000       -2.1526077E-07
  0.3294000       -1.7567456E-07
  0.3300000       -1.2734137E-07
  0.3306000       -7.0348399E-08
  0.3312000       -5.1346603E-09
  0.3318000        6.7497645E-08
  0.3324000        1.4638827E-07
  0.3330000        2.3004444E-07
  0.3336000        3.1668691E-07
  0.3342000        4.0430317E-07
  0.3348000        4.9071497E-07
  0.3354000        5.7365281E-07
  0.3360000        6.5083270E-07
  0.3366000        7.2003235E-07
  0.3372000        7.7916462E-07
  0.3378000        8.2634995E-07
  0.3384000        8.5997033E-07
  0.3390000        8.7872485E-07
  0.3396000        8.8167008E-07
  0.3402000        8.6825327E-07
  0.3408000        8.3833476E-07
  0.3414000        7.9219893E-07
  0.3420000        7.3055509E-07
  0.3426000        6.5452707E-07
  0.3432000        5.6563471E-07
  0.3438000        4.6575593E-07
  0.3444000        3.5708686E-07
  0.3450000        2.4208541E-07
  0.3456000        1.2340620E-07
  0.3462000        3.8257641E-09
  0.3468000       -1.1384140E-07
  0.3474000       -2.2682772E-07
  0.3480000       -3.3250222E-07
  0.3486000       -4.2845809E-07
  0.3492000       -5.1259491E-07
  0.3498000       -5.8319176E-07
  0.3504000       -6.3896721E-07
  0.3510000       -6.7912276E-07
  0.3516000       -7.0336711E-07
  0.3522000       -7.1191891E-07
  0.3528000       -7.0548776E-07
  0.3534000       -6.8523303E-07
  0.3540000       -6.5270268E-07
  0.3546000       -6.0975538E-07
  0.3552000       -5.5846954E-07
  0.3558000       -5.0104512E-07
  0.3564000       -4.3970368E-07
  0.3570000       -3.7659206E-07
  0.3576000       -3.1369632E-07
  0.3582000       -2.5276918E-07
  0.3588000       -1.9527783E-07
  0.3594000       -1.4237280E-07
  0.3600000       -9.4876292E-08
  0.3606000       -5.3293107E-08
  0.3612000       -1.7840328E-08
  0.3618000        1.1510846E-08
  0.3624000        3.4979898E-08
  0.3630000        5.2919724E-08
  0.3636000        6.5758684E-08
  0.3642000        7.3948264E-08
  0.3648000        7.7920070E-08
  0.3654000        7.8054505E-08
  0.3660000        7.4663248E-08
  0.3666000        6.7986797E-08
  0.3672000        5.8203856E-08
  0.3678000        4.5453799E-08
  0.3684000        2.9867095E-08
  0.3690000        1.1601524E-08
  0.3696000       -9.1199750E-09
  0.3702000       -3.1972728E-08
  0.3708000       -5.6499360E-08
  0.3714000       -8.2086231E-08
  0.3720000       -1.0795240E-07
  0.3726000       -1.3314958E-07
  0.3732000       -1.5657817E-07
  0.3738000       -1.7701466E-07
  0.3744000       -1.9315567E-07
  0.3750000       -2.0367177E-07
  0.3756000       -2.0727117E-07
  0.3762000       -2.0276819E-07
  0.3768000       -1.8915601E-07
  0.3774000       -1.6567483E-07
  0.3780000       -1.3187552E-07
  0.3786000       -8.7668482E-08
  0.3792000       -3.3360919E-08
  0.3798000        3.0323147E-08
  0.3804000        1.0224411E-07
  0.3810000        1.8086558E-07
  0.3816000        2.6429586E-07
  0.3822000        3.5034066E-07
  0.3828000        4.3657556E-07
  0.3834000        5.2042782E-07
  0.3840000        5.9926708E-07
  0.3846000        6.7049785E-07
  0.3852000        7.3165126E-07
  0.3858000        7.8047623E-07
  0.3864000        8.1502088E-07
  0.3870000        8.3370622E-07
  0.3876000        8.3538731E-07
  0.3882000        8.1939982E-07
  0.3888000        7.8559322E-07
  0.3894000        7.3434779E-07
  0.3900000        6.6657054E-07
  0.3906000        5.8367664E-07
  0.3912000        4.8755010E-07
  0.3918000        3.8048722E-07
  0.3924000        2.6512365E-07
  0.3930000        1.4434396E-07
  0.3936000        2.1183638E-08
  0.3942000       -1.0128021E-07
  0.3948000       -2.2003989E-07
  0.3954000       -3.3226422E-07
  0.3960000       -4.3539862E-07
  0.3966000       -5.2725034E-07
  0.3972000       -6.0605419E-07
  0.3978000       -6.7051684E-07
  0.3984000       -7.1983459E-07
  0.3990000       -7.5368740E-07
  0.3996000       -7.7220818E-07
  0.4002000       -7.7593302E-07
  0.4008000       -7.6573497E-07
  0.4014000       -7.4275141E-07
  0.4020000       -7.0830748E-07
  0.4026000       -6.6384411E-07
  0.4032000       -6.1085939E-07
  0.4038000       -5.5085980E-07
  0.4044000       -4.8533030E-07
  0.4050000       -4.1572332E-07
  0.4056000       -3.4345615E-07
  0.4062000       -2.6992348E-07
  0.4068000       -1.9651203E-07
  0.4074000       -1.2461648E-07
  0.4080000       -5.5642097E-08
  0.4086000        8.9976453E-09
  0.4092000        6.7905461E-08
  0.4098000        1.1973631E-07
  0.4104000        1.6325234E-07
  0.4110000        1.9738665E-07
  0.4116000        2.2131259E-07
  0.4122000        2.3451223E-07
  0.4128000        2.3683307E-07
  0.4134000        2.2853008E-07
  0.4140000        2.1028350E-07
  0.4146000        1.8319069E-07
  0.4152000        1.4873012E-07
  0.4158000        1.0869977E-07
  0.4164000        6.5133236E-08
  0.4170000        2.0200723E-08
  0.4176000       -2.3898002E-08
  0.4182000       -6.5039231E-08
  0.4188000       -1.0127423E-07
  0.4194000       -1.3091162E-07
  0.4200000       -1.5258094E-07
  0.4206000       -1.6527284E-07
  0.4212000       -1.6835983E-07
  0.4218000       -1.6159153E-07
  0.4224000       -1.4507890E-07
  0.4230000       -1.1925940E-07
  0.4236000       -8.4858179E-08
  0.4242000       -4.2845475E-08
  0.4248000        5.6077782E-09