 -0.1200000        0.0000000E+00
 -0.1194000        0.0000000E+00
 -0.1188000        0.0000000E+00
 -0.1182000        6.2281838E-26
 -0.1176000       -1.2456368E-25
 -0.1170000       -2.5232742E-24
 -0.1164000       -4.0500387E-24
 -0.1158000       -7.1035678E-24
 -0.1152000       -1.3210627E-23
 -0.1146000       -2.8414271E-23
 -0.1140000       -2.8414271E-23
 -0.1134000       -5.2842507E-23
 -0.1128000       -4.8856472E-23
 -0.1122000       -4.4870434E-23
 -0.1116000       -1.0568501E-22
 -0.1110000       -1.0967105E-22
 -0.1104000       -1.1764313E-22
 -0.1098000       -3.9860376E-24
 -0.1092000       -2.4912734E-24
 -0.1086000       -9.9650937E-24
 -0.1080000       -2.3916224E-23
 -0.1074000       -2.3916224E-23
 -0.1068000       -1.5944151E-23
 -0.1062000       -1.5944151E-23
 -0.1056000        0.0000000E+00
 -0.1050000        0.0000000E+00
 -0.1044000        0.0000000E+00
 -0.1038000        0.0000000E+00
 -0.1032000        0.0000000E+00
 -0.1026000       -3.1888301E-23
 -0.1020000       -3.1888301E-23
 -0.1014000        8.7736842E-22
 -0.1008000        1.7866251E-21
 -0.1002000        2.6958820E-21
 -9.9600002E-02    2.6639935E-21
 -9.8999999E-02    1.6909602E-21
 -9.8399997E-02    1.5634071E-21
 -9.7800002E-02    1.4996305E-21
 -9.7199999E-02    1.4358539E-21
 -9.6600004E-02    1.3720773E-21
 -9.6000001E-02    1.3720773E-21
 -9.5399998E-02   -4.4643620E-22
 -9.4800003E-02   -3.8265959E-22
 -9.4200000E-02   -2.5510641E-22
 -9.3599997E-02   -1.2755320E-22
 -9.3000002E-02    0.0000000E+00
 -9.2399999E-02    3.7645802E-21
 -9.1799997E-02    3.8921332E-21
 -9.1200002E-02    7.5291603E-21
 -9.0599999E-02    7.2740534E-21
 -9.0000004E-02    6.7638409E-21
 -8.9400001E-02    6.5087345E-21
 -8.8799998E-02    6.2536284E-21
 -8.8200003E-02    6.2536284E-21
 -8.7600000E-02    6.2536284E-21
 -8.6999997E-02   -1.5306384E-21
 -8.6400002E-02   -2.0408513E-21
 -8.5800000E-02   -2.0408513E-21
 -8.5199997E-02   -2.0408513E-21
 -8.4600002E-02   -1.5306384E-21
 -8.3999999E-02    0.0000000E+00
 -8.3400004E-02    0.0000000E+00
 -8.2800001E-02   -2.9096214E-20
 -8.2199998E-02   -3.0116641E-20
 -8.1600003E-02   -3.0116641E-20
 -8.1000000E-02   -3.0116641E-20
 -8.0399998E-02   -3.0116641E-20
 -7.9800002E-02   -2.9096214E-20
 -7.9200000E-02   -2.9096214E-20
 -7.8599997E-02   -2.9096214E-20
 -7.8000002E-02    2.0408513E-21
 -7.7399999E-02    6.1225534E-21
 -7.6800004E-02    1.0204256E-20
 -7.6200001E-02    1.2245107E-20
 -7.5599998E-02    1.4285958E-20
 -7.5000003E-02   -4.5947324E-20
 -7.4400000E-02   -4.5947324E-20
 -7.3799998E-02   -4.5947324E-20
 -7.3200002E-02    1.2245107E-20
 -7.2600000E-02    8.1634051E-21
 -7.1999997E-02    8.1634051E-21
 -7.1400002E-02    4.0817025E-21
 -7.0799999E-02    0.0000000E+00
 -7.0200004E-02    0.0000000E+00
 -6.9600001E-02   -8.1634051E-21
 -6.8999998E-02   -8.1634051E-21
 -6.8400003E-02   -1.6326810E-20
 -6.7800000E-02   -1.6326810E-20
 -6.7199998E-02   -2.4490214E-20
 -6.6600002E-02   -2.4490214E-20
 -6.6000000E-02   -2.4490214E-20
 -6.5399997E-02   -8.1634051E-21
 -6.4800002E-02    0.0000000E+00
 -6.4199999E-02    1.6326810E-20
 -6.3600004E-02    3.2653620E-20
 -6.3000001E-02    3.2653620E-20
 -6.2399998E-02    3.2653620E-20
 -6.1799999E-02    0.0000000E+00
 -6.1200000E-02   -1.6326810E-20
 -6.0600001E-02   -4.8980427E-20
 -5.9999999E-02   -6.5307241E-20
 -5.9400000E-02    3.8390540E-19
 -5.8800001E-02    4.0023222E-19
 -5.8200002E-02    4.0023222E-19
 -5.7599999E-02    3.6757859E-19
 -5.7000000E-02    3.6757859E-19
 -5.6400001E-02    3.6757859E-19
 -5.5799998E-02    4.0023222E-19
 -5.5199999E-02    4.0023222E-19
 -5.4600000E-02    4.3288582E-19
 -5.4000001E-02    4.6553942E-19
 -5.3399999E-02    4.9819305E-19
 -5.2800000E-02    3.2653620E-20
 -5.2200001E-02    3.2653620E-20
 -5.1600002E-02    3.2653620E-20
 -5.0999999E-02    0.0000000E+00
 -5.0400000E-02   -8.6577164E-19
 -4.9800001E-02   -8.6577164E-19
 -4.9199998E-02   -8.6577164E-19
 -4.8599999E-02   -9.3107884E-19
 -4.8000000E-02   -9.3107884E-19
 -4.7400001E-02   -9.9638609E-19
 -4.6799999E-02   -9.9638609E-19
 -4.6200000E-02   -9.3107884E-19
 -4.5600001E-02   -8.6577164E-19
 -4.5000002E-02   -8.0046444E-19
 -4.4399999E-02    1.9592171E-19
 -4.3800000E-02    1.1923079E-18
 -4.3200001E-02    1.1923079E-18
 -4.2599998E-02    2.0580795E-18
 -4.1999999E-02    1.9927722E-18
 -4.1400000E-02    1.8621577E-18
 -4.0800001E-02    8.0046444E-19
 -4.0199999E-02    6.6984993E-19
 -3.9600000E-02   -3.9184342E-19
 -3.9000001E-02   -3.9184342E-19
 -3.8400002E-02   -3.9184342E-19
 -3.7799999E-02   -3.9184342E-19
 -3.7200000E-02   -1.3229224E-18
 -3.6600001E-02   -2.1233867E-18
 -3.5999998E-02   -2.9238512E-18
 -3.5399999E-02   -2.7932367E-18
 -3.4800000E-02   -1.7315433E-18
 -3.4200002E-02   -1.4703144E-18
 -3.3599999E-02   -1.3396999E-18
 -3.3000000E-02   -1.4739204E-19
 -3.2400001E-02   -1.6777564E-20
 -3.1800002E-02    9.1430134E-19
 -3.1199999E-02    1.7147658E-18
 -3.0600000E-02    1.5841513E-18
 -2.9999999E-02    1.3229224E-18
 -2.9400000E-02    1.9927722E-18
 -2.8800000E-02    1.7315433E-18
 -2.8200001E-02    1.4703144E-18
 -2.7600000E-02    1.3396999E-18
 -2.7000001E-02    1.2090855E-18
 -2.6400000E-02    1.2090855E-18
 -2.5800001E-02    2.7800651E-19
 -2.5200000E-02    4.0862099E-19
 -2.4599999E-02    6.6984993E-19
 -2.4000000E-02    4.6553942E-19
 -2.3399999E-02    1.9592171E-19
 -2.2800000E-02   -2.0431050E-19
 -2.2200000E-02   -6.0454273E-19
 -2.1600001E-02   -1.0047749E-18
 -2.1000000E-02   -1.4703144E-18
 -2.0400001E-02   -1.8847761E-18
 -1.9800000E-02   -2.2410455E-18
 -1.9200001E-02   -2.5391225E-18
 -1.8600000E-02   -2.6626222E-18
 -1.7999999E-02   -2.7279294E-18
 -1.7400000E-02   -2.4951597E-18
 -1.6799999E-02   -2.2297363E-18
 -1.6200000E-02   -1.6825629E-18
 -1.5600000E-02   -1.1190626E-18
 -1.5000000E-02   -5.0250012E-19
 -1.4400000E-02    6.1633703E-19
 -1.3800000E-02    1.7147658E-18
 -1.3200000E-02    2.7438054E-18
 -1.2600000E-02    2.7764590E-18
 -1.2000000E-02    2.7438054E-18
 -1.1400000E-02    2.5805374E-18
 -1.0800000E-02    4.1814662E-18
 -1.0200000E-02    3.8549301E-18
 -9.6000005E-03    1.6009289E-18
 -8.9999996E-03    1.2090855E-18
 -8.3999997E-03    8.8254919E-19
 -7.7999998E-03   -1.1755303E-18
 -7.1999999E-03   -1.3061448E-18
 -6.6000000E-03   -1.3061448E-18
 -6.0000001E-03   -1.1755303E-18
 -5.4000001E-03   -2.7764590E-18
 -4.8000002E-03   -2.5152302E-18
 -4.1999999E-03   -2.1233867E-18
 -3.5999999E-03   -1.7315433E-18
 -3.0000000E-03    5.2245792E-19
 -2.4000001E-03    2.5152302E-18
 -1.8000000E-03    2.5152302E-18
 -1.2000001E-03    2.3846157E-18
 -6.0000003E-04    1.8621577E-18
  0.0000000E+00    1.0784709E-18
  6.0000003E-04    1.8957129E-18
  1.2000001E-03    5.8956817E-19
  1.8000000E-03   -7.1657659E-19
  2.4000001E-03   -2.0227213E-18
  3.0000000E-03   -3.0676371E-18
  3.5999999E-03   -4.1125530E-18
  4.1999999E-03   -5.1574686E-18
  4.8000002E-03   -1.9556111E-18
  5.4000001E-03   -8.7714015E-19
  6.0000001E-03   -1.6608270E-18
  6.6000000E-03   -2.4445139E-18
  7.1999999E-03   -1.3660430E-18
  7.7999998E-03   -5.4880094E-19
  8.3999997E-03    1.6081409E-18
  8.9999996E-03    3.5038539E-18
  9.6000005E-03    4.8771090E-18
  1.0200000E-02    7.5900637E-18
  1.0800000E-02    7.9184031E-18
  1.1400000E-02    9.8476712E-18
  1.2000000E-02    1.0993252E-17
  1.2600000E-02    1.3478533E-17
  1.3200000E-02    1.7564744E-17
  1.3800000E-02    2.1128496E-17
  1.4400000E-02    2.3908560E-17
  1.5000000E-02    2.6166168E-17
  1.5600000E-02    2.9502247E-17
  1.6200000E-02    3.4439251E-17
  1.6799999E-02    4.0193500E-17
  1.7400000E-02    4.6095143E-17
  1.7999999E-02    5.2944641E-17
  1.8600000E-02    5.9549685E-17
  1.9200001E-02    6.6710747E-17
  1.9800000E-02    7.4297204E-17
  2.0400001E-02    8.2848293E-17
  2.1000000E-02    9.2029097E-17
  2.1600001E-02    1.0237884E-16
  2.2200000E-02    1.1330138E-16
  2.2800000E-02    1.2559717E-16
  2.3399999E-02    1.3936837E-16
  2.4000000E-02    1.5481929E-16
  2.4599999E-02    1.7240125E-16
  2.5200000E-02    1.9258025E-16
  2.5800001E-02    2.1591671E-16
  2.6400000E-02    2.4225886E-16
  2.7000001E-02    2.7214541E-16
  2.7600000E-02    3.0576648E-16
  2.8200001E-02    3.4372661E-16
  2.8800000E-02    3.8536852E-16
  2.9400000E-02    4.3189710E-16
  2.9999999E-02    4.8365565E-16
  3.0600000E-02    5.4021972E-16
  3.1199999E-02    6.0202644E-16
  3.1800002E-02    6.6995822E-16
  3.2400001E-02    7.4393358E-16
  3.3000000E-02    8.2527590E-16
  3.3599999E-02    9.1344234E-16
  3.4200002E-02    1.0097154E-15
  3.4800000E-02    1.1144548E-15
  3.5399999E-02    1.2289022E-15
  3.5999998E-02    1.3542014E-15
  3.6600001E-02    1.4915616E-15
  3.7200000E-02    1.6411300E-15
  3.7799999E-02    1.8030543E-15
  3.8400002E-02    1.9802747E-15
  3.9000001E-02    2.1728083E-15
  3.9600000E-02    2.3816027E-15
  4.0199999E-02    2.6094029E-15
  4.0800001E-02    2.8552291E-15
  4.1400000E-02    3.1228224E-15
  4.1999999E-02    3.4120692E-15
  4.2599998E-02    3.7246520E-15
  4.3200001E-02    4.0623853E-15
  4.3800000E-02    4.4270164E-15
  4.4399999E-02    4.8194938E-15
  4.5000002E-02    5.2414348E-15
  4.5600001E-02    5.6957803E-15
  4.6200000E-02    6.1833477E-15
  4.6799999E-02    6.7058849E-15
  4.7400001E-02    7.2663331E-15
  4.8000000E-02    7.8663094E-15
  4.8599999E-02    8.5068925E-15
  4.9199998E-02    9.1898306E-15
  4.9800001E-02    9.9180655E-15
  5.0400000E-02    1.0693474E-14
  5.0999999E-02    1.1517005E-14
  5.1600002E-02    1.2389869E-14
  5.2200001E-02    1.3315004E-14
  5.2800000E-02    1.4292951E-14
  5.3399999E-02    1.5325850E-14
  5.4000001E-02    1.6417293E-14
  5.4600000E-02    1.7566891E-14
  5.5199999E-02    1.8777435E-14
  5.5799998E-02    2.0049858E-14
  5.6400001E-02    2.1386281E-14
  5.7000000E-02    2.2787031E-14
  5.7599999E-02    2.4253630E-14
  5.8200002E-02    2.5787657E-14
  5.8800001E-02    2.7389166E-14
  5.9400000E-02    2.9058861E-14
  5.9999999E-02    3.0797057E-14
  6.0600001E-02    3.2603393E-14
  6.1200000E-02    3.4477768E-14
  6.1799999E-02    3.6418886E-14
  6.2399998E-02    3.8425965E-14
  6.3000001E-02    4.0497299E-14
  6.3600004E-02    4.2630640E-14
  6.4199999E-02    4.4824072E-14
  6.4800002E-02    4.7074595E-14
  6.5399997E-02    4.9378687E-14
  6.6000000E-02    5.1732944E-14
  6.6600002E-02    5.4132564E-14
  6.7199998E-02    5.6572900E-14
  6.7800000E-02    5.9048334E-14
  6.8400003E-02    6.1552360E-14
  6.8999998E-02    6.4078510E-14
  6.9600001E-02    6.6618802E-14
  7.0200004E-02    6.9165329E-14
  7.0799999E-02    7.1709064E-14
  7.1400002E-02    7.4240608E-14
  7.1999997E-02    7.6749845E-14
  7.2600000E-02    7.9226170E-14
  7.3200002E-02    8.1657879E-14
  7.3799998E-02    8.4033244E-14
  7.4400000E-02    8.6339722E-14
  7.5000003E-02    8.8564559E-14
  7.5599998E-02    9.0694047E-14
  7.6200001E-02    9.2714309E-14
  7.6800004E-02    9.4610965E-14
  7.7399999E-02    9.6369324E-14
  7.8000002E-02    9.7974275E-14
  7.8599997E-02    9.9410450E-14
  7.9200000E-02    1.0066209E-13
  7.9800002E-02    1.0171346E-13
  8.0399998E-02    1.0254833E-13
  8.1000000E-02    1.0315063E-13
  8.1600003E-02    1.0350411E-13
  8.2199998E-02    1.0359245E-13
  8.2800001E-02    1.0339939E-13
  8.3400004E-02    1.0290887E-13
  8.3999999E-02    1.0210493E-13
  8.4600002E-02    1.0097206E-13
  8.5199997E-02    9.9495065E-14
  8.5800000E-02    9.7659375E-14
  8.6400002E-02    9.5450998E-14
  8.6999997E-02    9.2856868E-14
  8.7600000E-02    8.9864795E-14
  8.8200003E-02    8.6463660E-14
  8.8799998E-02    8.2643521E-14
  8.9400001E-02    7.8395874E-14
  9.0000004E-02    7.3713645E-14
  9.0599999E-02    6.8591319E-14
  9.1200002E-02    6.3025092E-14
  9.1799997E-02    5.7012914E-14
  9.2399999E-02    5.0554758E-14
  9.3000002E-02    4.3652521E-14
  9.3599997E-02    3.6310124E-14
  9.4200000E-02    2.8533653E-14
  9.4800003E-02    2.0331345E-14
  9.5399998E-02    1.1713692E-14
  9.6000001E-02    2.6932728E-15
  9.6600004E-02   -6.7149388E-15
  9.7199999E-02   -1.6493825E-14
  9.7800002E-02   -2.6623984E-14
  9.8399997E-02   -3.7083838E-14
  9.8999999E-02   -4.7849630E-14
  9.9600002E-02   -5.8895488E-14
  0.1002000       -7.0193458E-14
  0.1008000       -8.1713485E-14
  0.1014000       -9.3423621E-14
  0.1020000       -1.0529002E-13
  0.1026000       -1.1727698E-13
  0.1032000       -1.2934711E-13
  0.1038000       -1.4146145E-13
  0.1044000       -1.5357956E-13
  0.1050000       -1.6565959E-13
  0.1056000       -1.7765855E-13
  0.1062000       -1.8953234E-13
  0.1068000       -2.0123597E-13
  0.1074000       -2.1272371E-13
  0.1080000       -2.2394924E-13
  0.1086000       -2.3486589E-13
  0.1092000       -2.4542681E-13
  0.1098000       -2.5558524E-13
  0.1104000       -2.6529468E-13
  0.1110000       -2.7450918E-13
  0.1116000       -2.8318361E-13
  0.1122000       -2.9127387E-13
  0.1128000       -2.9873730E-13
  0.1134000       -3.0553292E-13
  0.1140000       -3.1162163E-13
  0.1146000       -3.1696667E-13
  0.1152000       -3.2153371E-13
  0.1158000       -3.2529125E-13
  0.1164000       -3.2821079E-13
  0.1170000       -3.3026704E-13
  0.1176000       -3.3143803E-13
  0.1182000       -3.3170537E-13
  0.1188000       -3.3105436E-13
  0.1194000       -3.2947402E-13
  0.1200000       -3.2695713E-13
  0.1206000       -3.2350034E-13
  0.1212000       -3.1910417E-13
  0.1218000       -3.1377301E-13
  0.1224000       -3.0751511E-13
  0.1230000       -3.0034254E-13
  0.1236000       -2.9227106E-13
  0.1242000       -2.8332027E-13
  0.1248000       -2.7351331E-13
  0.1254000       -2.6287699E-13
  0.1260000       -2.5144161E-13
  0.1266000       -2.3924086E-13
  0.1272000       -2.2631175E-13
  0.1278000       -2.1269442E-13
  0.1284000       -1.9843209E-13
  0.1290000       -1.8357093E-13
  0.1296000       -1.6815981E-13
  0.1302000       -1.5225013E-13
  0.1308000       -1.3589564E-13
  0.1314000       -1.1915226E-13
  0.1320000       -1.0207774E-13
  0.1326000       -8.4731477E-14
  0.1332000       -6.7174192E-14
  0.1338000       -4.9467642E-14
  0.1344000       -3.1674394E-14
  0.1350000       -1.3857363E-14
  0.1356000        3.9203378E-15
  0.1362000        2.1595820E-14
  0.1368000        3.9106739E-14
  0.1374000        5.6391662E-14
  0.1380000        7.3390316E-14
  0.1386000        9.0044075E-14
  0.1392000        1.0629616E-13
  0.1398000        1.2209206E-13
  0.1404000        1.3737988E-13
  0.1410000        1.5211045E-13
  0.1416000        1.6623781E-13
  0.1422000        1.7971925E-13
  0.1428000        1.9251561E-13
  0.1434000        2.0459142E-13
  0.1440000        2.1591496E-13
  0.1446000        2.2645830E-13
  0.1452000        2.3619740E-13
  0.1458000        2.4511204E-13
  0.1464000        2.5318585E-13
  0.1470000        2.6040614E-13
  0.1476000        2.6676396E-13
  0.1482000        2.7225398E-13
  0.1488000        2.7687425E-13
  0.1494000        2.8062643E-13
  0.1500000        2.8351537E-13
  0.1506000        2.8554920E-13
  0.1512000        2.8673914E-13
  0.1518000        2.8709947E-13
  0.1524000        2.8664744E-13
  0.1530000        2.8540297E-13
  0.1536000        2.8338879E-13
  0.1542000        2.8063009E-13
  0.1548000        2.7715452E-13
  0.1554000        2.7299194E-13
  0.1560000        2.6817434E-13
  0.1566000        2.6273555E-13
  0.1572000        2.5671126E-13
  0.1578000        2.5013870E-13
  0.1584000        2.4305636E-13
  0.1590000        2.3550403E-13
  0.1596000        2.2752240E-13
  0.1602000        2.1915292E-13
  0.1608000        2.1043762E-13
  0.1614000        2.0141885E-13
  0.1620000        1.9213907E-13
  0.1626000        1.8264065E-13
  0.1632000        1.7296558E-13
  0.1638000        1.6315535E-13
  0.1644000        1.5325072E-13
  0.1650000        1.4329141E-13
  0.1656000        1.3331595E-13
  0.1662000        1.2336150E-13
  0.1668000        1.1346363E-13
  0.1674000        1.0365618E-13
  0.1680000        9.3971014E-14
  0.1686000        8.4438045E-14
  0.1692000        7.5085026E-14
  0.1698000        6.5937490E-14
  0.1704000        5.7018768E-14
  0.1710000        4.8349921E-14
  0.1716000        3.9949774E-14
  0.1722000        3.1834985E-14
  0.1728000        2.4020077E-14
  0.1734000        1.6517498E-14
  0.1740000        9.3377336E-15
  0.1746000        2.4894004E-15
  0.1752000       -4.0206994E-15
  0.1758000       -1.0187447E-14
  0.1764000       -1.6007308E-14
  0.1770000       -2.1478326E-14
  0.1776000       -2.6599943E-14
  0.1782000       -3.1372982E-14
  0.1788000       -3.5799512E-14
  0.1794000       -3.9882800E-14
  0.1800000       -4.3627259E-14
  0.1806000       -4.7038284E-14
  0.1812000       -5.0122304E-14
  0.1818000       -5.2886569E-14
  0.1824000       -5.5339153E-14
  0.1830000       -5.7488878E-14
  0.1836000       -5.9345209E-14
  0.1842000       -6.0918230E-14
  0.1848000       -6.2218527E-14
  0.1854000       -6.3257193E-14
  0.1860000       -6.4045686E-14
  0.1866000       -6.4595851E-14
  0.1872000       -6.4919790E-14
  0.1878000       -6.5029911E-14
  0.1884000       -6.4938750E-14
  0.1890000       -6.4659012E-14
  0.1896000       -6.4203498E-14
  0.1902000       -6.3585069E-14
  0.1908000       -6.2816580E-14
  0.1914000       -6.1910810E-14
  0.1920000       -6.0880486E-14
  0.1926000       -5.9738130E-14
  0.1932000       -5.8496048E-14
  0.1938000       -5.7166274E-14
  0.1944000       -5.5760491E-14
  0.1950000       -5.4289964E-14
  0.1956000       -5.2765477E-14
  0.1962000       -5.1197287E-14
  0.1968000       -4.9595080E-14
  0.1974000       -4.7967913E-14
  0.1980000       -4.6324208E-14
  0.1986000       -4.4671732E-14
  0.1992000       -4.3017585E-14
  0.1998000       -4.1368229E-14
  0.2004000       -3.9729477E-14
  0.2010000       -3.8106535E-14
  0.2016000       -3.6504027E-14
  0.2022000       -3.4925998E-14
  0.2028000       -3.3375968E-14
  0.2034000       -3.1856936E-14
  0.2040000       -3.0371447E-14
  0.2046000       -2.8921588E-14
  0.2052000       -2.7509018E-14
  0.2058000       -2.6135036E-14
  0.2064000       -2.4800605E-14
  0.2070000       -2.3506389E-14
  0.2076000       -2.2252819E-14
  0.2082000       -2.1040131E-14
  0.2088000       -1.9868411E-14
  0.2094000       -1.8737650E-14
  0.2100000       -1.7647772E-14
  0.2106000       -1.6598671E-14
  0.2112000       -1.5590233E-14
  0.2118000       -1.4622343E-14
  0.2124000       -1.3694898E-14
  0.2130000       -1.2807795E-14
  0.2136000       -1.1960920E-14
  0.2142000       -1.1154129E-14
  0.2148000       -1.0387233E-14
  0.2154000       -9.6599745E-15
  0.2160000       -8.9720068E-15
  0.2166000       -8.3228754E-15
  0.2172000       -7.7119995E-15
  0.2178000       -7.1386598E-15
  0.2184000       -6.6019933E-15
  0.2190000       -6.1009843E-15
  0.2196000       -5.6344674E-15
  0.2202000       -5.2011338E-15
  0.2208000       -4.7995411E-15
  0.2214000       -4.4281260E-15
  0.2220000       -4.0852242E-15
  0.2226000       -3.7690882E-15
  0.2232000       -3.4779177E-15
  0.2238000       -3.2098754E-15
  0.2244000       -2.9631199E-15
  0.2250000       -2.7358256E-15
  0.2256000       -2.5262091E-15
  0.2262000       -2.3325570E-15
  0.2268000       -2.1532437E-15
  0.2274000       -1.9867577E-15
  0.2280000       -1.8317187E-15
  0.2286000       -1.6868973E-15
  0.2292000       -1.5512305E-15
  0.2298000       -1.4238317E-15
  0.2304000       -1.3039950E-15
  0.2310000       -1.1911944E-15
  0.2316000       -1.0850723E-15
  0.2322000       -9.8542119E-16
  0.2328000       -8.9215863E-16
  0.2334000       -8.0529254E-16
  0.2340000       -7.2488513E-16
  0.2346000       -6.5101062E-16
  0.2352000       -5.8372201E-16
  0.2358000       -5.2301553E-16
  0.2364000       -4.6880685E-16
  0.2370000       -4.2091701E-16
  0.2376000       -3.7906911E-16
  0.2382000       -3.4289437E-16
  0.2388000       -3.1195083E-16
  0.2394000       -2.8574304E-16
  0.2400000       -2.6375102E-16
  0.2406000       -2.4545546E-16
  0.2412000       -2.3036173E-16
  0.2418000       -2.1801598E-16
  0.2424000       -2.0801951E-16
  0.2430000       -2.0003112E-16
  0.2436000       -1.9376572E-16
  0.2442000       -1.8898851E-16
  0.2448000       -1.8550697E-16
  0.2454000       -1.8316022E-16
  0.2460000       -1.8181159E-16
  0.2466000       -1.8134070E-16
  0.2472000       -1.8164007E-16
  0.2478000       -1.8261203E-16
  0.2484000       -1.8416765E-16
  0.2490000       -1.8622438E-16
  0.2496000       -1.8870592E-16
  0.2502000       -1.9153624E-16
  0.2508000       -1.9463666E-16
  0.2514000       -1.9791920E-16
  0.2520000       -2.0127777E-16
  0.2526000       -2.0458478E-16
  0.2532000       -2.0768549E-16
  0.2538000       -2.1039776E-16
  0.2544000       -2.1251376E-16
  0.2550000       -2.1380829E-16
  0.2556000       -2.1404767E-16
  0.2562000       -2.1300495E-16
  0.2568000       -2.1047461E-16
  0.2574000       -2.0628908E-16
  0.2580000       -2.0033455E-16
  0.2586000       -1.9256402E-16
  0.2592000       -1.8300858E-16
  0.2598000       -1.7178306E-16
  0.2604000       -1.5908806E-16
  0.2610000       -1.4520646E-16
  0.2616000       -1.3049415E-16
  0.2622000       -1.1536582E-16
  0.2628000       -1.0027592E-16
  0.2634000       -8.5694423E-17
  0.2640000       -7.2079665E-17
  0.2646000       -5.9849330E-17
  0.2652000       -4.9351571E-17
  0.2658000       -4.0838076E-17
  0.2664000       -3.4442166E-17
  0.2670000       -3.0163472E-17
  0.2676000       -2.7861835E-17
  0.2682000       -2.7260870E-17
  0.2688000       -2.7962652E-17
  0.2694000       -2.9471565E-17
  0.2700000       -3.1226753E-17
  0.2706000       -3.2640530E-17
  0.2712000       -3.3138652E-17
  0.2718000       -3.2200788E-17
  0.2724000       -2.9396007E-17
  0.2730000       -2.4411637E-17
  0.2736000       -1.7073954E-17
  0.2742000       -7.3579891E-18
  0.2748000        4.6122565E-18
  0.2754000        1.8572451E-17
  0.2760000        3.4135067E-17
  0.2766000        5.0811482E-17
  0.2772000        6.8038921E-17
  0.2778000        8.5208868E-17
  0.2784000        1.0169615E-16
  0.2790000        1.1688709E-16
  0.2796000        1.3020618E-16
  0.2802000        1.4113938E-16
  0.2808000        1.4925531E-16
  0.2814000        1.5422180E-16
  0.2820000        1.5581726E-16
  0.2826000        1.5393862E-16
  0.2832000        1.4860150E-16
  0.2838000        1.3993580E-16
  0.2844000        1.2817418E-16
  0.2850000        1.1363652E-16
  0.2856000        9.6707631E-17
  0.2862000        7.7815514E-17
  0.2868000        5.7406057E-17
  0.2874000        3.5920596E-17
  0.2880000        1.3776293E-17
  0.2886000       -8.6496928E-18
  0.2892000       -3.1029487E-17
  0.2898000       -5.3089848E-17
  0.2904000       -7.4610646E-17
  0.2910000       -9.5422708E-17
  0.2916000       -1.1540036E-16
  0.2922000       -1.3445511E-16
  0.2928000       -1.5252939E-16
  0.2934000       -1.6959208E-16
  0.2940000       -1.8563520E-16
  0.2946000       -2.0067227E-16
  0.2952000       -2.1473634E-16
  0.2958000       -2.2787931E-16
  0.2964000       -2.4016777E-16
  0.2970000       -2.5167908E-16
  0.2976000       -2.6249366E-16
  0.2982000       -2.7268608E-16
  0.2988000       -2.8231523E-16
  0.2994000       -2.9141459E-16
  0.3000000       -2.9998447E-16
  0.3006000       -3.0798608E-16
  0.3012000       -3.1534002E-16
  0.3018000       -3.2192842E-16
  0.3024000       -3.2760034E-16
  0.3030000       -3.3218038E-16
  0.3036000       -3.3547936E-16
  0.3042000       -3.3730522E-16
  0.3048000       -3.3747389E-16
  0.3054000       -3.3581812E-16
  0.3060000       -3.3219473E-16
  0.3066000       -3.2648951E-16
  0.3072000       -3.1861994E-16
  0.3078000       -3.0853641E-16
  0.3084000       -2.9622240E-16
  0.3090000       -2.8169372E-16
  0.3096000       -2.6499730E-16
  0.3102000       -2.4620977E-16
  0.3108000       -2.2543520E-16
  0.3114000       -2.0280245E-16
  0.3120000       -1.7846166E-16
  0.3126000       -1.5257971E-16
  0.3132000       -1.2533557E-16
  0.3138000       -9.6915485E-17
  0.3144000       -6.7508883E-17
  0.3150000       -3.7305988E-17
  0.3156000       -6.4970380E-18
  0.3162000        2.4725606E-17
  0.3168000        5.6163598E-17
  0.3174000        8.7606957E-17
  0.3180000        1.1882790E-16
  0.3186000        1.4957543E-16
  0.3192000        1.7957232E-16
  0.3198000        2.0851525E-16
  0.3204000        2.3607936E-16
  0.3210000        2.6192699E-16
  0.3216000        2.8571996E-16
  0.3222000        3.0713460E-16
  0.3228000        3.2587734E-16
  0.3234000        3.4169931E-16
  0.3240000        3.5440735E-16
  0.3246000        3.6387106E-16
  0.3252000        3.7002375E-16
  0.3258000        3.7285821E-16
  0.3264000        3.7241749E-16
  0.3270000        3.6878173E-16
  0.3276000        3.6205327E-16
  0.3282000        3.5234233E-16
  0.3288000        3.3975389E-16
  0.3294000        3.2437929E-16
  0.3300000        3.0629100E-16
  0.3306000        2.8554383E-16
  0.3312000        2.6218055E-16
  0.3318000        2.3624074E-16
  0.3324000        2.0777410E-16
  0.3330000        1.7685507E-16
  0.3336000        1.4359624E-16
  0.3342000        1.0816333E-16
  0.3348000        7.0785399E-17
  0.3354000        3.1762528E-17
  0.3360000       -8.5310768E-18
  0.3366000       -4.9649180E-17
  0.3372000       -9.1082551E-17
  0.3378000       -1.3227134E-16
  0.3384000       -1.7262574E-16
  0.3390000       -2.1154923E-16
  0.3396000       -2.4846679E-16
  0.3402000       -2.8285315E-16
  0.3408000       -3.1426103E-16
  0.3414000       -3.4234570E-16
  0.3420000       -3.6688337E-16
  0.3426000       -3.8778153E-16
  0.3432000       -4.0507948E-16
  0.3438000       -4.1893842E-16
  0.3444000       -4.2962197E-16
  0.3450000       -4.3746758E-16
  0.3456000       -4.4285312E-16
  0.3462000       -4.4616015E-16
  0.3468000       -4.4773839E-16
  0.3474000       -4.4787497E-16
  0.3480000       -4.4677065E-16
  0.3486000       -4.4452591E-16
  0.3492000       -4.4113733E-16
  0.3498000       -4.3650358E-16
  0.3504000       -4.3044076E-16
  0.3510000       -4.2270406E-16
  0.3516000       -4.1301321E-16
  0.3522000       -4.0107955E-16
  0.3528000       -3.8663118E-16
  0.3534000       -3.6943527E-16
  0.3540000       -3.4931554E-16
  0.3546000       -3.2616459E-16
  0.3552000       -2.9995120E-16
  0.3558000       -2.7072279E-16
  0.3564000       -2.3860418E-16
  0.3570000       -2.0379368E-16
  0.3576000       -1.6655667E-16
  0.3582000       -1.2721774E-16
  0.3588000       -8.6152409E-17
  0.3594000       -4.3776903E-17
  0.3600000       -5.3914412E-19
  0.3606000        4.3092742E-17
  0.3612000        8.6640115E-17
  0.3618000        1.2962460E-16
  0.3624000        1.7157776E-16
  0.3630000        2.1205049E-16
  0.3636000        2.5062077E-16
  0.3642000        2.8690067E-16
  0.3648000        3.2054183E-16
  0.3654000        3.5124013E-16
  0.3660000        3.7873927E-16
  0.3666000        4.0283336E-16
  0.3672000        4.2336898E-16
  0.3678000        4.4024596E-16
  0.3684000        4.5341658E-16
  0.3690000        4.6288318E-16
  0.3696000        4.6869271E-16
  0.3702000        4.7092872E-16
  0.3708000        4.6970052E-16
  0.3714000        4.6512924E-16
  0.3720000        4.5733305E-16
  0.3726000        4.4641220E-16
  0.3732000        4.3243615E-16
  0.3738000        4.1543456E-16
  0.3744000        3.9539511E-16
  0.3750000        3.7226778E-16
  0.3756000        3.4597807E-16
  0.3762000        3.1644780E-16
  0.3768000        2.8362091E-16
  0.3774000        2.4749419E-16
  0.3780000        2.0814710E-16
  0.3786000        1.6576811E-16
  0.3792000        1.2067459E-16
  0.3798000        7.3321627E-17
  0.3804000        2.4299732E-17
  0.3810000       -2.5680740E-17
  0.3816000       -7.5816854E-17
  0.3822000       -1.2525051E-16
  0.3828000       -1.7311167E-16
  0.3834000       -2.1856554E-16
  0.3840000       -2.6085788E-16
  0.3846000       -2.9935425E-16
  0.3852000       -3.3357153E-16
  0.3858000       -3.6319751E-16
  0.3864000       -3.8809843E-16
  0.3870000       -4.0831311E-16
  0.3876000       -4.2403563E-16
  0.3882000       -4.3558791E-16
  0.3888000       -4.4338480E-16
  0.3894000       -4.4789509E-16
  0.3900000       -4.4960138E-16
  0.3906000       -4.4896182E-16
  0.3912000       -4.4637779E-16
  0.3918000       -4.4216843E-16
  0.3924000       -4.3655477E-16
  0.3930000       -4.2965384E-16
  0.3936000       -4.2148330E-16
  0.3942000       -4.1197515E-16
  0.3948000       -4.0099720E-16
  0.3954000       -3.8837935E-16
  0.3960000       -3.7394239E-16
  0.3966000       -3.5752538E-16
  0.3972000       -3.3900943E-16
  0.3978000       -3.1833473E-16
  0.3984000       -2.9550986E-16
  0.3990000       -2.7061194E-16
  0.3996000       -2.4377934E-16
  0.4002000       -2.1519740E-16
  0.4008000       -1.8508060E-16
  0.4014000       -1.5365338E-16
  0.4020000       -1.2113322E-16
  0.4026000       -8.7718672E-17
  0.4032000       -5.3583208E-17
  0.4038000       -1.8877269E-17
  0.4044000        1.6263074E-17
  0.4050000        5.1702795E-17
  0.4056000        8.7290041E-17
  0.4062000        1.2283978E-16
  0.4068000        1.5811919E-16
  0.4074000        1.9283908E-16
  0.4080000        2.2665196E-16
  0.4086000        2.5915844E-16
  0.4092000        2.8992029E-16
  0.4098000        3.1848018E-16
  0.4104000        3.4438472E-16
  0.4110000        3.6720845E-16
  0.4116000        3.8657671E-16
  0.4122000        4.0218435E-16
  0.4128000        4.1380887E-16
  0.4134000        4.2131702E-16
  0.4140000        4.2466532E-16
  0.4146000        4.2389412E-16
  0.4152000        4.1911741E-16
  0.4158000        4.1050949E-16
  0.4164000        3.9828995E-16
  0.4170000        3.8270921E-16
  0.4176000        3.6403464E-16
  0.4182000        3.4253989E-16
  0.4188000        3.1849611E-16
  0.4194000        2.9216718E-16
  0.4200000        2.6380730E-16
  0.4206000        2.3366156E-16
  0.4212000        2.0196930E-16
  0.4218000        1.6896937E-16
  0.4224000        1.3490584E-16
  0.4230000        1.0003414E-16
  0.4236000        6.4627019E-17
  0.4242000        2.8977937E-17
  0.4248000       -6.5974445E-18