 -0.1200000        0.0000000E+00
 -0.1194000        0.0000000E+00
 -0.1188000        4.3597285E-25
 -0.1182000        2.1591036E-24
 -0.1176000        4.9825468E-24
 -0.1170000        1.1958112E-23
 -0.1164000        2.2587546E-23
 -0.1158000       -3.8531696E-23
 -0.1152000       -4.7832451E-22
 -0.1146000       -2.2693839E-21
 -0.1140000       -8.1208869E-21
 -0.1134000       -2.3576082E-20
 -0.1128000       -5.9099651E-20
 -0.1122000       -1.3051881E-19
 -0.1116000       -2.5861412E-19
 -0.1110000       -4.6387379E-19
 -0.1104000       -7.5451435E-19
 -0.1098000       -1.1107651E-18
 -0.1092000       -1.4573192E-18
 -0.1086000       -1.6425769E-18
 -0.1080000       -1.4184181E-18
 -0.1074000       -4.4409771E-19
 -0.1068000        1.6771545E-18
 -0.1062000        5.3096570E-18
 -0.1056000        1.0645080E-17
 -0.1050000        1.7519560E-17
 -0.1044000        2.5185803E-17
 -0.1038000        3.2121084E-17
 -0.1032000        3.5925189E-17
 -0.1026000        3.3370041E-17
 -0.1020000        2.0715489E-17
 -0.1014000       -5.6922740E-18
 -0.1008000       -4.8453464E-17
 -0.1002000       -1.0791341E-16
 -9.9600002E-02   -1.8081652E-16
 -9.8999999E-02   -2.5906794E-16
 -9.8399997E-02   -3.2895843E-16
 -9.7800002E-02   -3.7120745E-16
 -9.7199999E-02   -3.6219616E-16
 -9.6600004E-02   -2.7673125E-16
 -9.6000001E-02   -9.2318412E-17
 -9.5399998E-02    2.0513582E-16
 -9.4800003E-02    6.1477492E-16
 -9.4200000E-02    1.1142805E-15
 -9.3599997E-02    1.6547506E-15
 -9.3000002E-02    2.1583179E-15
 -9.2399999E-02    2.5201409E-15
 -9.1799997E-02    2.6160168E-15
 -9.1200002E-02    2.3162307E-15
 -9.0599999E-02    1.5056648E-15
 -9.0000004E-02    1.0887873E-16
 -8.9400001E-02   -1.8825940E-15
 -8.8799998E-02   -4.3842036E-15
 -8.8200003E-02   -7.1985349E-15
 -8.7600000E-02   -1.0007095E-14
 -8.6999997E-02   -1.2378029E-14
 -8.6400002E-02   -1.3795023E-14
 -8.5800000E-02   -1.3707731E-14
 -8.5199997E-02   -1.1603927E-14
 -8.4600002E-02   -7.0982161E-15
 -8.3999999E-02   -2.8899811E-17
 -8.3400004E-02    9.4494767E-15
 -8.2800001E-02    2.0791399E-14
 -8.2199998E-02    3.3021610E-14
 -8.1600003E-02    4.4745644E-14
 -8.1000000E-02    5.4222838E-14
 -8.0399998E-02    5.9507459E-14
 -7.9800002E-02    5.8656652E-14
 -7.9200000E-02    4.9993687E-14
 -7.8599997E-02    3.2402940E-14
 -7.8000002E-02    5.6277098E-15
 -7.7399999E-02   -2.9472210E-14
 -7.6800004E-02   -7.0743914E-14
 -7.6200001E-02   -1.1469191E-13
 -7.5599998E-02   -1.5658774E-13
 -7.5000003E-02   -1.9076581E-13
 -7.4400000E-02   -2.1110519E-13
 -7.3799998E-02   -2.1168404E-13
 -7.3200002E-02   -1.8755378E-13
 -7.2600000E-02   -1.3557090E-13
 -7.1999997E-02   -5.5186934E-14
 -7.1400002E-02    5.0900636E-14
 -7.0799999E-02    1.7635475E-13
 -7.0200004E-02    3.1115881E-13
 -6.9600001E-02    4.4200199E-13
 -6.8999998E-02    5.5314081E-13
 -6.8400003E-02    6.2771533E-13
 -6.7800000E-02    6.4946627E-13
 -6.7199998E-02    6.0471701E-13
 -6.6600002E-02    4.8445167E-13
 -6.6000000E-02    2.8625450E-13
 -6.5399997E-02    1.5882088E-14
 -6.4800002E-02   -3.1180204E-13
 -6.4199999E-02   -6.7272723E-13
 -6.3600004E-02   -1.0345247E-12
 -6.3000001E-02   -1.3585156E-12
 -6.2399998E-02   -1.6027460E-12
 -6.1799999E-02   -1.7259150E-12
 -6.1200000E-02   -1.6919267E-12
 -6.0600001E-02   -1.4746671E-12
 -5.9999999E-02   -1.0625404E-12
 -5.9400000E-02   -4.6224418E-13
 -5.8800001E-02    2.9874142E-13
 -5.8200002E-02    1.1714120E-12
 -5.7599999E-02    2.0865961E-12
 -5.7000000E-02    2.9585904E-12
 -5.6400001E-02    3.6910705E-12
 -5.5799998E-02    4.1849978E-12
 -5.5199999E-02    4.3480423E-12
 -5.4600000E-02    4.1048207E-12
 -5.4000001E-02    3.4070346E-12
 -5.3399999E-02    2.2425443E-12
 -5.2800000E-02    6.4230067E-13
 -5.2200001E-02   -1.3157680E-12
 -5.1600002E-02   -3.5067459E-12
 -5.0999999E-02   -5.7631018E-12
 -5.0400000E-02   -7.8836555E-12
 -4.9800001E-02   -9.6468892E-12
 -4.9199998E-02   -1.0827986E-11
 -4.8599999E-02   -1.1218548E-11
 -4.8000000E-02   -1.0647593E-11
 -4.7400001E-02   -9.0021055E-12
 -4.6799999E-02   -6.2453567E-12
 -4.6200000E-02   -2.4311130E-12
 -4.5600001E-02    2.2879708E-12
 -4.5000002E-02    7.6591216E-12
 -4.4399999E-02    1.3336393E-11
 -4.3800000E-02    1.8896105E-11
 -4.3200001E-02    2.3860514E-11
 -4.2599998E-02    2.7728746E-11
 -4.1999999E-02    3.0013346E-11
 -4.1400000E-02    3.0280209E-11
 -4.0800001E-02    2.8189191E-11
 -4.0199999E-02    2.3532346E-11
 -3.9600000E-02    1.6266670E-11
 -3.9000001E-02    6.5383862E-12
 -3.8400002E-02   -5.3039626E-12
 -3.7799999E-02   -1.8709645E-11
 -3.7200000E-02   -3.2940446E-11
 -3.6600001E-02   -4.7100365E-11
 -3.5999998E-02   -6.0179688E-11
 -3.5399999E-02   -7.1111811E-11
 -3.4800000E-02   -7.8840115E-11
 -3.4200002E-02   -8.2391316E-11
 -3.3599999E-02   -8.0950954E-11
 -3.3000000E-02   -7.3936093E-11
 -3.2400001E-02   -6.1060199E-11
 -3.1800002E-02   -4.2384984E-11
 -3.1199999E-02   -1.8354731E-11
 -3.0600000E-02    1.0191101E-11
 -2.9999999E-02    4.2029689E-11
 -2.9400000E-02    7.5592761E-11
 -2.8800000E-02    1.0903062E-10
 -2.8200001E-02    1.4030067E-10
 -2.7600000E-02    1.6727679E-10
 -2.7000001E-02    1.8787479E-10
 -2.6400000E-02    2.0018685E-10
 -2.5800001E-02    2.0261734E-10
 -2.5200000E-02    1.9401111E-10
 -2.4599999E-02    1.7376511E-10
 -2.4000000E-02    1.4191461E-10
 -2.3399999E-02    9.9185882E-11
 -2.2800000E-02    4.7009223E-11
 -2.2200000E-02   -1.2512337E-11
 -2.1600001E-02   -7.6679996E-11
 -2.1000000E-02   -1.4232045E-10
 -2.0400001E-02   -2.0594695E-10
 -1.9800000E-02   -2.6395217E-10
 -1.9200001E-02   -3.1282224E-10
 -1.8600000E-02   -3.4935901E-10
 -1.7999999E-02   -3.7089540E-10
 -1.7400000E-02   -3.7548889E-10
 -1.6799999E-02   -3.6207784E-10
 -1.6200000E-02   -3.3058739E-10
 -1.5600000E-02   -2.8197419E-10
 -1.5000000E-02   -2.1820272E-10
 -1.4400000E-02   -1.4215068E-10
 -1.3800000E-02   -5.7446013E-11
 -1.3200000E-02    3.1757180E-11
 -1.2600000E-02    1.2105135E-10
 -1.2000000E-02    2.0607993E-10
 -1.1400000E-02    2.8285366E-10
 -1.0800000E-02    3.4805633E-10
 -1.0200000E-02    3.9931763E-10
 -9.6000005E-03    4.3543125E-10
 -8.9999996E-03    4.5649934E-10
 -8.3999997E-03    4.6398871E-10
 -7.7999998E-03    4.6068954E-10
 -7.1999999E-03    4.5057344E-10
 -6.6000000E-03    4.3855525E-10
 -6.0000001E-03    4.3016876E-10
 -5.4000001E-03    4.3117390E-10
 -4.8000002E-03    4.4711729E-10
 -4.1999999E-03    4.8287241E-10
 -3.5999999E-03    5.4218802E-10
 -3.0000000E-03    6.2727262E-10
 -2.4000001E-03    7.3844281E-10
 -1.8000000E-03    8.7385754E-10
 -1.2000001E-03    1.0293570E-09
 -6.0000003E-04    1.1984174E-09
  0.0000000E+00    1.3722256E-09
  6.0000003E-04    1.5398700E-09
  1.2000001E-03    1.6886386E-09
  1.8000000E-03    1.8044037E-09
  2.4000001E-03    1.8720749E-09
  3.0000000E-03    1.8760897E-09
  3.5999999E-03    1.8009172E-09
  4.1999999E-03    1.6315417E-09
  4.8000002E-03    1.3539021E-09
  5.4000001E-03    9.5525821E-10
  6.0000001E-03    4.2446580E-10
  6.6000000E-03   -2.4786012E-10
  7.1999999E-03   -1.0693022E-09
  7.7999998E-03   -2.0457274E-09
  8.3999997E-03   -3.1815024E-09
  8.9999996E-03   -4.4798378E-09
  9.6000005E-03   -5.9432486E-09
  1.0200000E-02   -7.5741236E-09
  1.0800000E-02   -9.3753894E-09
  1.1400000E-02   -1.1351245E-08
  1.2000000E-02   -1.3507963E-08
  1.2600000E-02   -1.5854717E-08
  1.3200000E-02   -1.8404434E-08
  1.3800000E-02   -2.1174644E-08
  1.4400000E-02   -2.4188312E-08
  1.5000000E-02   -2.7474622E-08
  1.5600000E-02   -3.1069732E-08
  1.6200000E-02   -3.5017454E-08
  1.6799999E-02   -3.9369901E-08
  1.7400000E-02   -4.4188020E-08
  1.7999999E-02   -4.9542148E-08
  1.8600000E-02   -5.5512434E-08
  1.9200001E-02   -6.2189301E-08
  1.9800000E-02   -6.9673852E-08
  2.0400001E-02   -7.8078273E-08
  2.1000000E-02   -8.7526274E-08
  2.1600001E-02   -9.8153542E-08
  2.2200000E-02   -1.1010824E-07
  2.2800000E-02   -1.2355159E-07
  2.3399999E-02   -1.3865849E-07
  2.4000000E-02   -1.5561820E-07
  2.4599999E-02   -1.7463515E-07
  2.5200000E-02   -1.9592974E-07
  2.5800001E-02   -2.1973935E-07
  2.6400000E-02   -2.4631922E-07
  2.7000001E-02   -2.7594365E-07
  2.7600000E-02   -3.0890709E-07
  2.8200001E-02   -3.4552551E-07
  2.8800000E-02   -3.8613766E-07
  2.9400000E-02   -4.3110668E-07
  2.9999999E-02   -4.8082177E-07
  3.0600000E-02   -5.3569994E-07
  3.1199999E-02   -5.9618799E-07
  3.1800002E-02   -6.6276505E-07
  3.2400001E-02   -7.3594447E-07
  3.3000000E-02   -8.1627689E-07
  3.3599999E-02   -9.0435299E-07
  3.4200002E-02   -1.0008062E-06
  3.4800000E-02   -1.1063162E-06
  3.5399999E-02   -1.2216118E-06
  3.5999998E-02   -1.3474744E-06
  3.6600001E-02   -1.4847408E-06
  3.7200000E-02   -1.6343064E-06
  3.7799999E-02   -1.7971279E-06
  3.8400002E-02   -1.9742251E-06
  3.9000001E-02   -2.1666838E-06
  3.9600000E-02   -2.3756556E-06
  4.0199999E-02   -2.6023604E-06
  4.0800001E-02   -2.8480849E-06
  4.1400000E-02   -3.1141824E-06
  4.1999999E-02   -3.4020720E-06
  4.2599998E-02   -3.7132354E-06
  4.3200001E-02   -4.0492150E-06
  4.3800000E-02   -4.4116100E-06
  4.4399999E-02   -4.8020725E-06
  4.5000002E-02   -5.2223036E-06
  4.5600001E-02   -5.6740469E-06
  4.6200000E-02   -6.1590858E-06
  4.6799999E-02   -6.6792354E-06
  4.7400001E-02   -7.2363387E-06
  4.8000000E-02   -7.8322601E-06
  4.8599999E-02   -8.4688781E-06
  4.9199998E-02   -9.1480815E-06
  4.9800001E-02   -9.8717619E-06
  5.0400000E-02   -1.0641806E-05
  5.0999999E-02   -1.1460088E-05
  5.1600002E-02   -1.2328465E-05
  5.2200001E-02   -1.3248767E-05
  5.2800000E-02   -1.4222786E-05
  5.3399999E-02   -1.5252271E-05
  5.4000001E-02   -1.6338910E-05
  5.4600000E-02   -1.7484328E-05
  5.5199999E-02   -1.8690062E-05
  5.5799998E-02   -1.9957557E-05
  5.6400001E-02   -2.1288140E-05
  5.7000000E-02   -2.2683014E-05
  5.7599999E-02   -2.4143224E-05
  5.8200002E-02   -2.5669648E-05
  5.8800001E-02   -2.7262964E-05
  5.9400000E-02   -2.8923638E-05
  5.9999999E-02   -3.0651881E-05
  6.0600001E-02   -3.2447631E-05
  6.1200000E-02   -3.4310528E-05
  6.1799999E-02   -3.6239875E-05
  6.2399998E-02   -3.8234604E-05
  6.3000001E-02   -4.0293264E-05
  6.3600004E-02   -4.2413962E-05
  6.4199999E-02   -4.4594359E-05
  6.4800002E-02   -4.6831618E-05
  6.5399997E-02   -4.9122395E-05
  6.6000000E-02   -5.1462797E-05
  6.6600002E-02   -5.3848369E-05
  6.7199998E-02   -5.6274072E-05
  6.7800000E-02   -5.8734247E-05
  6.8400003E-02   -6.1222636E-05
  6.8999998E-02   -6.3732332E-05
  6.9600001E-02   -6.6255809E-05
  7.0200004E-02   -6.8784895E-05
  7.0799999E-02   -7.1310787E-05
  7.1400002E-02   -7.3824034E-05
  7.1999997E-02   -7.6314587E-05
  7.2600000E-02   -7.8771787E-05
  7.3200002E-02   -8.1184371E-05
  7.3799998E-02   -8.3540523E-05
  7.4400000E-02   -8.5827873E-05
  7.5000003E-02   -8.8033536E-05
  7.5599998E-02   -9.0144131E-05
  7.6200001E-02   -9.2145812E-05
  7.6800004E-02   -9.4024312E-05
  7.7399999E-02   -9.5764961E-05
  7.8000002E-02   -9.7352742E-05
  7.8599997E-02   -9.8772311E-05
  7.9200000E-02   -1.0000804E-04
  7.9800002E-02   -1.0104408E-04
  8.0399998E-02   -1.0186439E-04
  8.1000000E-02   -1.0245282E-04
  8.1600003E-02   -1.0279315E-04
  8.2199998E-02   -1.0286913E-04
  8.2800001E-02   -1.0266463E-04
  8.3400004E-02   -1.0216363E-04
  8.3999999E-02   -1.0135038E-04
  8.4600002E-02   -1.0020946E-04
  8.5199997E-02   -9.8725883E-05
  8.5800000E-02   -9.6885233E-05
  8.6400002E-02   -9.4673756E-05
  8.6999997E-02   -9.2078488E-05
  8.7600000E-02   -8.9087407E-05
  8.8200003E-02   -8.5689528E-05
  8.8799998E-02   -8.1875063E-05
  8.9400001E-02   -7.7635545E-05
  9.0000004E-02   -7.2963943E-05
  9.0599999E-02   -6.7854824E-05
  9.1200002E-02   -6.2304418E-05
  9.1799997E-02   -5.6310782E-05
  9.2399999E-02   -4.9873859E-05
  9.3000002E-02   -4.2995587E-05
  9.3599997E-02   -3.5679972E-05
  9.4200000E-02   -2.7933147E-05
  9.4800003E-02   -1.9763418E-05
  9.5399998E-02   -1.1181307E-05
  9.6000001E-02   -2.1995647E-06
  9.6600004E-02    7.1668178E-06
  9.7199999E-02    1.6900616E-05
  9.7800002E-02    2.6982394E-05
  9.8399997E-02    3.7390520E-05
  9.8999999E-02    4.8101225E-05
  9.9600002E-02    5.9088619E-05
  0.1002000        7.0324786E-05
  0.1008000        8.1779792E-05
  0.1014000        9.3421819E-05
  0.1020000        1.0521716E-04
  0.1026000        1.1713040E-04
  0.1032000        1.2912438E-04
  0.1038000        1.4116042E-04
  0.1044000        1.5319833E-04
  0.1050000        1.6519656E-04
  0.1056000        1.7711234E-04
  0.1062000        1.8890179E-04
  0.1068000        2.0052014E-04
  0.1074000        2.1192178E-04
  0.1080000        2.2306060E-04
  0.1086000        2.3389004E-04
  0.1092000        2.4436344E-04
  0.1098000        2.5443418E-04
  0.1104000        2.6405597E-04
  0.1110000        2.7318313E-04
  0.1116000        2.8177086E-04
  0.1122000        2.8977540E-04
  0.1128000        2.9715447E-04
  0.1134000        3.0386753E-04
  0.1140000        3.0987593E-04
  0.1146000        3.1514329E-04
  0.1152000        3.1963570E-04
  0.1158000        3.2332205E-04
  0.1164000        3.2617414E-04
  0.1170000        3.2816693E-04
  0.1176000        3.2927873E-04
  0.1182000        3.2949130E-04
  0.1188000        3.2879008E-04
  0.1194000        3.2716419E-04
  0.1200000        3.2460658E-04
  0.1206000        3.2111397E-04
  0.1212000        3.1668702E-04
  0.1218000        3.1133025E-04
  0.1224000        3.0505209E-04
  0.1230000        2.9786470E-04
  0.1236000        2.8978407E-04
  0.1242000        2.8083002E-04
  0.1248000        2.7102590E-04
  0.1254000        2.6039869E-04
  0.1260000        2.4897882E-04
  0.1266000        2.3680009E-04
  0.1272000        2.2389961E-04
  0.1278000        2.1031758E-04
  0.1284000        1.9609721E-04
  0.1290000        1.8128457E-04
  0.1296000        1.6592842E-04
  0.1302000        1.5008000E-04
  0.1308000        1.3379288E-04
  0.1314000        1.1712276E-04
  0.1320000        1.0012715E-04
  0.1326000        8.2865212E-05
  0.1332000        6.5397428E-05
  0.1338000        4.7785343E-05
  0.1344000        3.0091238E-05
  0.1350000        1.2377831E-05
  0.1356000       -5.2920809E-06
  0.1362000       -2.2855947E-05
  0.1368000       -4.0251820E-05
  0.1374000       -5.7418696E-05
  0.1380000       -7.4296862E-05
  0.1386000       -9.0828245E-05
  0.1392000       -1.0695671E-04
  0.1398000       -1.2262839E-04
  0.1404000       -1.3779197E-04
  0.1410000       -1.5239892E-04
  0.1416000       -1.6640380E-04
  0.1422000       -1.7976438E-04
  0.1428000       -1.9244185E-04
  0.1434000       -2.0440099E-04
  0.1440000       -2.1561023E-04
  0.1446000       -2.2604177E-04
  0.1452000       -2.3567158E-04
  0.1458000       -2.4447948E-04
  0.1464000       -2.5244907E-04
  0.1470000       -2.5956772E-04
  0.1476000       -2.6582656E-04
  0.1482000       -2.7122034E-04
  0.1488000       -2.7574744E-04
  0.1494000       -2.7940964E-04
  0.1500000       -2.8221216E-04
  0.1506000       -2.8416343E-04
  0.1512000       -2.8527505E-04
  0.1518000       -2.8556166E-04
  0.1524000       -2.8504076E-04
  0.1530000       -2.8373263E-04
  0.1536000       -2.8166012E-04
  0.1542000       -2.7884866E-04
  0.1548000       -2.7532599E-04
  0.1554000       -2.7112206E-04
  0.1560000       -2.6626882E-04
  0.1566000       -2.6080018E-04
  0.1572000       -2.5475174E-04
  0.1578000       -2.4816065E-04
  0.1584000       -2.4106546E-04
  0.1590000       -2.3350585E-04
  0.1596000       -2.2552248E-04
  0.1602000       -2.1715678E-04
  0.1608000       -2.0845069E-04
  0.1614000       -1.9944648E-04
  0.1620000       -1.9018650E-04
  0.1626000       -1.8071296E-04
  0.1632000       -1.7106764E-04
  0.1638000       -1.6129174E-04
  0.1644000       -1.5142561E-04
  0.1650000       -1.4150857E-04
  0.1656000       -1.3157866E-04
  0.1662000       -1.2167251E-04
  0.1668000       -1.1182515E-04
  0.1674000       -1.0206986E-04
  0.1680000       -9.2438051E-05
  0.1686000       -8.2959159E-05
  0.1692000       -7.3660573E-05
  0.1698000       -6.4567583E-05
  0.1704000       -5.5703324E-05
  0.1710000       -4.7088761E-05
  0.1716000       -3.8742717E-05
  0.1722000       -3.0681873E-05
  0.1728000       -2.2920809E-05
  0.1734000       -1.5472066E-05
  0.1740000       -8.3461891E-06
  0.1746000       -1.5518220E-06
  0.1752000        4.9042264E-06
  0.1758000        1.1016888E-05
  0.1764000        1.6782742E-05
  0.1770000        2.2199929E-05
  0.1776000        2.7268045E-05
  0.1782000        3.1988049E-05
  0.1788000        3.6362184E-05
  0.1794000        4.0393865E-05
  0.1800000        4.4087610E-05
  0.1806000        4.7448953E-05
  0.1812000        5.0484374E-05
  0.1818000        5.3201213E-05
  0.1824000        5.5607619E-05
  0.1830000        5.7712470E-05
  0.1836000        5.9525322E-05
  0.1842000        6.1056337E-05
  0.1848000        6.2316249E-05
  0.1854000        6.3316256E-05
  0.1860000        6.4068008E-05
  0.1866000        6.4583532E-05
  0.1872000        6.4875137E-05
  0.1878000        6.4955406E-05
  0.1884000        6.4837070E-05
  0.1890000        6.4533000E-05
  0.1896000        6.4056105E-05
  0.1902000        6.3419277E-05
  0.1908000        6.2635350E-05
  0.1914000        6.1717023E-05
  0.1920000        6.0676790E-05
  0.1926000        5.9526930E-05
  0.1932000        5.8279424E-05
  0.1938000        5.6945919E-05
  0.1944000        5.5537690E-05
  0.1950000        5.4065600E-05
  0.1956000        5.2540054E-05
  0.1962000        5.0970979E-05
  0.1968000        4.9367794E-05
  0.1974000        4.7739370E-05
  0.1980000        4.6094028E-05
  0.1986000        4.4439497E-05
  0.1992000        4.2782929E-05
  0.1998000        4.1130868E-05
  0.2004000        3.9489260E-05
  0.2010000        3.7863443E-05
  0.2016000        3.6258181E-05
  0.2022000        3.4677651E-05
  0.2028000        3.3125485E-05
  0.2034000        3.1604781E-05
  0.2040000        3.0118148E-05
  0.2046000        2.8667735E-05
  0.2052000        2.7255266E-05
  0.2058000        2.5882091E-05
  0.2064000        2.4549227E-05
  0.2070000        2.3257391E-05
  0.2076000        2.2007063E-05
  0.2082000        2.0798512E-05
  0.2088000        1.9631849E-05
  0.2094000        1.8507051E-05
  0.2100000        1.7424003E-05
  0.2106000        1.6382526E-05
  0.2112000        1.5382389E-05
  0.2118000        1.4423337E-05
  0.2124000        1.3505092E-05
  0.2130000        1.2627361E-05
  0.2136000        1.1789832E-05
  0.2142000        1.0992171E-05
  0.2148000        1.0234010E-05
  0.2154000        9.5149298E-06
  0.2160000        8.8344550E-06
  0.2166000        8.1920280E-06
  0.2172000        7.5870053E-06
  0.2178000        7.0186361E-06
  0.2184000        6.4860592E-06
  0.2190000        5.9882950E-06
  0.2196000        5.5242399E-06
  0.2202000        5.0926724E-06
  0.2208000        4.6922542E-06
  0.2214000        4.3215418E-06
  0.2220000        3.9789975E-06
  0.2226000        3.6630042E-06
  0.2232000        3.3718868E-06
  0.2238000        3.1039287E-06
  0.2244000        2.8573970E-06
  0.2250000        2.6305649E-06
  0.2256000        2.4217368E-06
  0.2262000        2.2292713E-06
  0.2268000        2.0516065E-06
  0.2274000        1.8872806E-06
  0.2280000        1.7349519E-06
  0.2286000        1.5934147E-06
  0.2292000        1.4616107E-06
  0.2298000        1.3386356E-06
  0.2304000        1.2237392E-06
  0.2310000        1.1163207E-06
  0.2316000        1.0159173E-06
  0.2322000        9.2218767E-07
  0.2328000        8.3489113E-07
  0.2334000        7.5386350E-07
  0.2340000        6.7899134E-07
  0.2346000        6.1018619E-07
  0.2352000        5.4736040E-07
  0.2358000        4.9040642E-07
  0.2364000        4.3918041E-07
  0.2370000        3.9349129E-07
  0.2376000        3.5309571E-07
  0.2382000        3.1769875E-07
  0.2388000        2.8695970E-07
  0.2394000        2.6050213E-07
  0.2400000        2.3792693E-07
  0.2406000        2.1882678E-07
  0.2412000        2.0280079E-07
  0.2418000        1.8946776E-07
  0.2424000        1.7847715E-07
  0.2430000        1.6951702E-07
  0.2436000        1.6231843E-07
  0.2442000        1.5665624E-07
  0.2448000        1.5234703E-07
  0.2454000        1.4924395E-07
  0.2460000        1.4723000E-07
  0.2466000        1.4620987E-07
  0.2472000        1.4610147E-07
  0.2478000        1.4682756E-07
  0.2484000        1.4830815E-07
  0.2490000        1.5045390E-07
  0.2496000        1.5316093E-07
  0.2502000        1.5630695E-07
  0.2508000        1.5974913E-07
  0.2514000        1.6332328E-07
  0.2520000        1.6684488E-07
  0.2526000        1.7011176E-07
  0.2532000        1.7290834E-07
  0.2538000        1.7501183E-07
  0.2544000        1.7619988E-07
  0.2550000        1.7625973E-07
  0.2556000        1.7499865E-07
  0.2562000        1.7225469E-07
  0.2568000        1.6790769E-07
  0.2574000        1.6188935E-07
  0.2580000        1.5419172E-07
  0.2586000        1.4487324E-07
  0.2592000        1.3406162E-07
  0.2598000        1.2195298E-07
  0.2604000        1.0880697E-07
  0.2610000        9.4937967E-08
  0.2616000        8.0702371E-08
  0.2622000        6.6482848E-08
  0.2628000        5.2670224E-08
  0.2634000        3.9644078E-08
  0.2640000        2.7753181E-08
  0.2646000        1.7296847E-08
  0.2652000        8.5083816E-09
  0.2658000        1.5414959E-09
  0.2664000       -3.5395125E-09
  0.2670000       -6.7652461E-09
  0.2676000       -8.2620293E-09
  0.2682000       -8.2479374E-09
  0.2688000       -7.0241124E-09
  0.2694000       -4.9616511E-09
  0.2700000       -2.4844931E-09
  0.2706000       -4.8948956E-11
  0.2712000        1.8793584E-09
  0.2718000        2.8501921E-09
  0.2724000        2.4539404E-09
  0.2730000        3.4616113E-10
  0.2736000       -3.7299026E-09
  0.2742000       -9.9242161E-09
  0.2748000       -1.8265606E-08
  0.2754000       -2.8653375E-08
  0.2760000       -4.0855859E-08
  0.2766000       -5.4516526E-08
  0.2772000       -6.9167768E-08
  0.2778000       -8.4251987E-08
  0.2784000       -9.9149062E-08
  0.2790000       -1.1320861E-07
  0.2796000       -1.2578518E-07
  0.2802000       -1.3627390E-07
  0.2808000       -1.4414432E-07
  0.2814000       -1.4896973E-07
  0.2820000       -1.5045009E-07
  0.2826000       -1.4842658E-07
  0.2832000       -1.4288705E-07
  0.2838000       -1.3396179E-07
  0.2844000       -1.2191040E-07
  0.2850000       -1.0710080E-07
  0.2856000       -8.9982514E-08
  0.2862000       -7.1056434E-08
  0.2868000       -5.0843667E-08
  0.2874000       -2.9855936E-08
  0.2880000       -8.5697955E-09
  0.2886000        1.2593692E-08
  0.2892000        3.3282795E-08
  0.2898000        5.3222099E-08
  0.2904000        7.2213084E-08
  0.2910000        9.0129205E-08
  0.2916000        1.0690697E-07
  0.2922000        1.2253457E-07
  0.2928000        1.3703973E-07
  0.2934000        1.5047816E-07
  0.2940000        1.6292378E-07
  0.2946000        1.7446111E-07
  0.2952000        1.8517996E-07
  0.2958000        1.9517228E-07
  0.2964000        2.0452997E-07
  0.2970000        2.1334344E-07
  0.2976000        2.2169938E-07
  0.2982000        2.2967764E-07
  0.2988000        2.3734646E-07
  0.2994000        2.4475631E-07
  0.3000000        2.5193265E-07
  0.3006000        2.5886845E-07
  0.3012000        2.6551766E-07
  0.3018000        2.7179041E-07
  0.3024000        2.7755141E-07
  0.3030000        2.8262187E-07
  0.3036000        2.8678585E-07
  0.3042000        2.8980045E-07
  0.3048000        2.9140949E-07
  0.3054000        2.9135953E-07
  0.3060000        2.8941704E-07
  0.3066000        2.8538457E-07
  0.3072000        2.7911520E-07
  0.3078000        2.7052283E-07
  0.3084000        2.5958835E-07
  0.3090000        2.4636009E-07
  0.3096000        2.3094940E-07
  0.3102000        2.1352139E-07
  0.3108000        1.9428201E-07
  0.3114000        1.7346304E-07
  0.3120000        1.5130625E-07
  0.3126000        1.2804877E-07
  0.3132000        1.0391091E-07
  0.3138000        7.9087620E-08
  0.3144000        5.3744348E-08
  0.3150000        2.8017533E-08
  0.3156000        2.0193420E-09
  0.3162000       -2.4154131E-08
  0.3168000       -5.0412325E-08
  0.3174000       -7.6658772E-08
  0.3180000       -1.0278023E-07
  0.3186000       -1.2863775E-07
  0.3192000       -1.5406080E-07
  0.3198000       -1.7884521E-07
  0.3204000       -2.0275526E-07
  0.3210000       -2.2552969E-07
  0.3216000       -2.4689106E-07
  0.3222000       -2.6655744E-07
  0.3228000       -2.8425518E-07
  0.3234000       -2.9973140E-07
  0.3240000       -3.1276502E-07
  0.3246000       -3.2317502E-07
  0.3252000       -3.3082517E-07
  0.3258000       -3.3562529E-07
  0.3264000       -3.3752823E-07
  0.3270000       -3.3652421E-07
  0.3276000       -3.3263245E-07
  0.3282000       -3.2589190E-07
  0.3288000       -3.1635207E-07
  0.3294000       -3.0406551E-07
  0.3300000       -2.8908281E-07
  0.3306000       -2.7145109E-07
  0.3312000       -2.5121665E-07
  0.3318000       -2.2843095E-07
  0.3324000       -2.0316044E-07
  0.3330000       -1.7549819E-07
  0.3336000       -1.4557668E-07
  0.3342000       -1.1357988E-07
  0.3348000       -7.9753043E-08
  0.3354000       -4.4408687E-08
  0.3360000       -7.9276070E-09
  0.3366000        2.9245932E-08
  0.3372000        6.6615016E-08
  0.3378000        1.0364658E-07
  0.3384000        1.3979273E-07
  0.3390000        1.7451516E-07
  0.3396000        2.0731127E-07
  0.3402000        2.3773929E-07
  0.3408000        2.6544080E-07
  0.3414000        2.9015837E-07
  0.3420000        3.1174656E-07
  0.3426000        3.3017577E-07
  0.3432000        3.4552752E-07
  0.3438000        3.5798249E-07
  0.3444000        3.6780116E-07
  0.3450000        3.7529946E-07
  0.3456000        3.8082078E-07
  0.3462000        3.8470694E-07
  0.3468000        3.8727043E-07
  0.3474000        3.8876985E-07
  0.3480000        3.8939081E-07
  0.3486000        3.8923312E-07
  0.3492000        3.8830552E-07
  0.3498000        3.8652757E-07
  0.3504000        3.8373858E-07
  0.3510000        3.7971211E-07
  0.3516000        3.7417493E-07
  0.3522000        3.6682863E-07
  0.3528000        3.5737207E-07
  0.3534000        3.4552301E-07
  0.3540000        3.3103774E-07
  0.3546000        3.1372741E-07
  0.3552000        2.9347055E-07
  0.3558000        2.7022111E-07
  0.3564000        2.4401282E-07
  0.3570000        2.1495919E-07
  0.3576000        1.8325036E-07
  0.3582000        1.4914737E-07
  0.3588000        1.1297389E-07
  0.3594000        7.5106719E-08
  0.3600000        3.5965073E-08
  0.3606000       -4.0007122E-09
  0.3612000       -4.4320771E-08
  0.3618000       -8.4517303E-08
  0.3624000       -1.2411594E-07
  0.3630000       -1.6265663E-07
  0.3636000       -1.9970376E-07
  0.3642000       -2.3485535E-07
  0.3648000       -2.6775089E-07
  0.3654000       -2.9807768E-07
  0.3660000       -3.2557531E-07
  0.3666000       -3.5003808E-07
  0.3672000       -3.7131528E-07
  0.3678000       -3.8930918E-07
  0.3684000       -4.0397097E-07
  0.3690000       -4.1529461E-07
  0.3696000       -4.2330907E-07
  0.3702000       -4.2806946E-07
  0.3708000       -4.2964729E-07
  0.3714000       -4.2812098E-07
  0.3720000       -4.2356675E-07
  0.3726000       -4.1605105E-07
  0.3732000       -4.0562500E-07
  0.3738000       -3.9232151E-07
  0.3744000       -3.7615564E-07
  0.3750000       -3.5712813E-07
  0.3756000       -3.3523281E-07
  0.3762000       -3.1046693E-07
  0.3768000       -2.8284427E-07
  0.3774000       -2.5241013E-07
  0.3780000       -2.1925679E-07
  0.3786000       -1.8353823E-07
  0.3792000       -1.4548274E-07
  0.3798000       -1.0540158E-07
  0.3804000       -6.3692639E-08
  0.3810000       -2.0838009E-08
  0.3816000        2.2605210E-08
  0.3822000        6.6020803E-08
  0.3828000        1.0875549E-07
  0.3834000        1.5014585E-07
  0.3840000        1.8954857E-07
  0.3846000        2.2637151E-07
  0.3852000        2.6010335E-07
  0.3858000        2.9033927E-07
  0.3864000        3.1680037E-07
  0.3870000        3.3934475E-07
  0.3876000        3.5796947E-07
  0.3882000        3.7280262E-07
  0.3888000        3.8408601E-07
  0.3894000        3.9214987E-07
  0.3900000        3.9738177E-07
  0.3906000        4.0019196E-07
  0.3912000        4.0097899E-07
  0.3918000        4.0009760E-07
  0.3924000        3.9783274E-07
  0.3930000        3.9438117E-07
  0.3936000        3.8984243E-07
  0.3942000        3.8421990E-07
  0.3948000        3.7743095E-07
  0.3954000        3.6932531E-07
  0.3960000        3.5970925E-07
  0.3966000        3.4837282E-07
  0.3972000        3.3511722E-07
  0.3978000        3.1977959E-07
  0.3984000        3.0225266E-07
  0.3990000        2.8249744E-07
  0.3996000        2.6054835E-07
  0.4002000        2.3651043E-07
  0.4008000        2.1055008E-07
  0.4014000        1.8288051E-07
  0.4020000        1.5374451E-07
  0.4026000        1.2339683E-07
  0.4032000        9.2088563E-08
  0.4038000        6.0055427E-08
  0.4044000        2.7511303E-08
  0.4050000       -5.3523412E-09
  0.4056000       -3.8361620E-08
  0.4062000       -7.1350868E-08
  0.4068000       -1.0415055E-07
  0.4074000       -1.3657444E-07
  0.4080000       -1.6840812E-07
  0.4086000       -1.9940096E-07
  0.4092000       -2.2926280E-07
  0.4098000       -2.5766633E-07
  0.4104000       -2.8425535E-07
  0.4110000       -3.0865803E-07
  0.4116000       -3.3050412E-07
  0.4122000       -3.4944412E-07
  0.4128000       -3.6516863E-07
  0.4134000       -3.7742544E-07
  0.4140000       -3.8603298E-07
  0.4146000       -3.9088846E-07
  0.4152000       -3.9197036E-07
  0.4158000       -3.8933459E-07
  0.4164000       -3.8310560E-07
  0.4170000       -3.7346317E-07
  0.4176000       -3.6062681E-07
  0.4182000       -3.4483924E-07
  0.4188000       -3.2635120E-07
  0.4194000       -3.0540883E-07
  0.4200000       -2.8224531E-07
  0.4206000       -2.5707695E-07
  0.4212000       -2.3010423E-07
  0.4218000       -2.0151728E-07
  0.4224000       -1.7150450E-07
  0.4230000       -1.4026318E-07
  0.4236000       -1.0801035E-07
  0.4242000       -7.4992016E-08
  0.4248000       -4.1489365E-08