  -5.9999999999999998E-002     0.0000000000000000     
  -5.9949999999999996E-002     4.6229541567088625E-019
  -5.9899999999999995E-002     1.7771880250049376E-018
  -5.9850000000000000E-002     3.9607980052252135E-018
  -5.9799999999999999E-002     7.0277945188792635E-018
  -5.9749999999999998E-002     1.0991374842584563E-017
  -5.9699999999999996E-002     1.5863238387319189E-017
  -5.9649999999999995E-002     2.1653579900992543E-017
  -5.9600000000000000E-002     2.8371078516596713E-017
  -5.9549999999999999E-002     3.6022880210136777E-017
  -5.9499999999999997E-002     4.4614590562775760E-017
  -5.9449999999999996E-002     5.4150292841311621E-017
  -5.9399999999999994E-002     6.4632543805291150E-017
  -5.9350000000000000E-002     7.6062359584515297E-017
  -5.9299999999999999E-002     8.8439260297914195E-017
  -5.9249999999999997E-002     1.0176126623067607E-016
  -5.9199999999999996E-002     1.1602489865318356E-016
  -5.9149999999999994E-002     1.3122524974154144E-016
  -5.9100000000000000E-002     1.4735592107833806E-016
  -5.9049999999999998E-002     1.6440913295423259E-016
  -5.8999999999999997E-002     1.8237575736790203E-016
  -5.8949999999999995E-002     2.0124531938892857E-016
  -5.8900000000000001E-002     2.2100594994735017E-016
  -5.8850000000000000E-002     2.4164462124153919E-016
  -5.8799999999999998E-002     2.6314708295786688E-016
  -5.8749999999999997E-002     2.8549784761907387E-016
  -5.8699999999999995E-002     3.0868037784383755E-016
  -5.8650000000000001E-002     3.3267698082179517E-016
  -5.8599999999999999E-002     3.5746896128760353E-016
  -5.8549999999999998E-002     3.8303681361337569E-016
  -5.8499999999999996E-002     4.0935986399487917E-016
  -5.8449999999999995E-002     4.3641681743484308E-016
  -5.8400000000000001E-002     4.6418554839308182E-016
  -5.8349999999999999E-002     4.9264318628099402E-016
  -5.8299999999999998E-002     5.2176625126590884E-016
  -5.8249999999999996E-002     5.5153071637348156E-016
  -5.8199999999999995E-002     5.8191191749601425E-016
  -5.8150000000000000E-002     6.1288492226888950E-016
  -5.8099999999999999E-002     6.4442413866029041E-016
  -5.8049999999999997E-002     6.7650425133621142E-016
  -5.7999999999999996E-002     7.0909919430113617E-016
  -5.7949999999999995E-002     7.4218287632841675E-016
  -5.7900000000000000E-002     7.7572944510736691E-016
  -5.7849999999999999E-002     8.0971272581191813E-016
  -5.7799999999999997E-002     8.4410656815706941E-016
  -5.7749999999999996E-002     8.7888520601286155E-016
  -5.7699999999999994E-002     9.1402319776190678E-016
  -5.7650000000000000E-002     9.4949483147364630E-016
  -5.7599999999999998E-002     9.8527539513433527E-016
  -5.7549999999999997E-002     1.0213406137370392E-015
  -5.7499999999999996E-002     1.0576662910190525E-015
  -5.7450000000000001E-002     1.0942287802055662E-015
  -5.7400000000000000E-002     1.1310055081189697E-015
  -5.7349999999999998E-002     1.1679746152216242E-015
  -5.7299999999999997E-002     1.2051146440032527E-015
  -5.7249999999999995E-002     1.2424051881234814E-015
  -5.7200000000000001E-002     1.2798267876318223E-015
  -5.7149999999999999E-002     1.3173607670705870E-015
  -5.7099999999999998E-002     1.3549896208550943E-015
  -5.7049999999999997E-002     1.3926968452249270E-015
  -5.6999999999999995E-002     1.4304673255307510E-015
  -5.6950000000000001E-002     1.4682869010222302E-015
  -5.6899999999999999E-002     1.5061429222914902E-015
  -5.6849999999999998E-002     1.5440231891806628E-015
  -5.6799999999999996E-002     1.5819176543017269E-015
  -5.6749999999999995E-002     1.6198173324067182E-015
  -5.6700000000000000E-002     1.6577144813908257E-015
  -5.6649999999999999E-002     1.6956026494213377E-015
  -5.6599999999999998E-002     1.7334771837167012E-015
  -5.6549999999999996E-002     1.7713348205212882E-015
  -5.6499999999999995E-002     1.8091736251461683E-015
  -5.6450000000000000E-002     1.8469936134423135E-015
  -5.6399999999999999E-002     1.8847967577521842E-015
  -5.6349999999999997E-002     1.9225853851618585E-015
  -5.6299999999999996E-002     1.9603635716610258E-015
  -5.6249999999999994E-002     1.9981370854593165E-015
  -5.6200000000000000E-002     2.0359147163335227E-015
  -5.6149999999999999E-002     2.0737044280485358E-015
  -5.6099999999999997E-002     2.1115172088115063E-015
  -5.6049999999999996E-002     2.1493655974564411E-015
  -5.5999999999999994E-002     2.1872639044441438E-015
  -5.5950000000000000E-002     2.2252262979659418E-015
  -5.5899999999999998E-002     2.2632714171176907E-015
  -5.5849999999999997E-002     2.3014164647317759E-015
  -5.5799999999999995E-002     2.3396816053853293E-015
  -5.5749999999999994E-002     2.3780893925165330E-015
  -5.5700000000000000E-002     2.4166617027807546E-015
  -5.5649999999999998E-002     2.4554241992260722E-015
  -5.5599999999999997E-002     2.4944014546888707E-015
  -5.5549999999999995E-002     2.5336214696771138E-015
  -5.5500000000000001E-002     2.5731128320742608E-015
  -5.5449999999999999E-002     2.6129054815657435E-015
  -5.5399999999999998E-002     2.6530303383901573E-015
  -5.5349999999999996E-002     2.6935209297882739E-015
  -5.5299999999999995E-002     2.7344099839560323E-015
  -5.5250000000000000E-002     2.7757336307309664E-015
  -5.5199999999999999E-002     2.8175260773328413E-015
  -5.5149999999999998E-002     2.8598263106037429E-015
  -5.5099999999999996E-002     2.9026713156068116E-015
  -5.5049999999999995E-002     2.9461008067646019E-015
  -5.5000000000000000E-002     2.9901551700429256E-015
  -5.4949999999999999E-002     3.0348745116482660E-015
  -5.4899999999999997E-002     3.0803010798946778E-015
  -5.4849999999999996E-002     3.1264773846508572E-015
  -5.4799999999999995E-002     3.1734478318120371E-015
  -5.4750000000000000E-002     3.2212558682661162E-015
  -5.4699999999999999E-002     3.2699463967258999E-015
  -5.4649999999999997E-002     3.3195647390004523E-015
  -5.4599999999999996E-002     3.3701573447399055E-015
  -5.4549999999999994E-002     3.4217706204313593E-015
  -5.4500000000000000E-002     3.4744509793334111E-015
  -5.4449999999999998E-002     3.5282462532084724E-015
  -5.4399999999999997E-002     3.5832049507820280E-015
  -5.4349999999999996E-002     3.6393741866343035E-015
  -5.4299999999999994E-002     3.6968025547719198E-015
  -5.4250000000000000E-002     3.7555385380575079E-015
  -5.4199999999999998E-002     3.8156309189967195E-015
  -5.4149999999999997E-002     3.8771296793721196E-015
  -5.4099999999999995E-002     3.9400824829672256E-015
  -5.4050000000000001E-002     4.0045392566242752E-015
  -5.3999999999999999E-002     4.0705499324667419E-015
  -5.3949999999999998E-002     4.1381617020588385E-015
  -5.3899999999999997E-002     4.2074253468713625E-015
  -5.3849999999999995E-002     4.2783891620313877E-015
  -5.3800000000000001E-002     4.3511010843521462E-015
  -5.3749999999999999E-002     4.4256131432046086E-015
  -5.3699999999999998E-002     4.5019693744670355E-015
  -5.3649999999999996E-002     4.5802232468466606E-015
  -5.3599999999999995E-002     4.6604183633208421E-015
  -5.3550000000000000E-002     4.7426053311242862E-015
  -5.3499999999999999E-002     4.8268316212119878E-015
  -5.3449999999999998E-002     4.9131439814174853E-015
  -5.3399999999999996E-002     5.0015917383391510E-015
  -5.3349999999999995E-002     5.0922194731218940E-015
  -5.3300000000000000E-002     5.1850754910917167E-015
  -5.3249999999999999E-002     5.2802037184175192E-015
  -5.3199999999999997E-002     5.3776531912306841E-015
  -5.3149999999999996E-002     5.4774666836931384E-015
  -5.3099999999999994E-002     5.5796919974302101E-015
  -5.3050000000000000E-002     5.6843731740427930E-015
  -5.2999999999999999E-002     5.7915545873253679E-015
  -5.2949999999999997E-002     5.9012794224259063E-015
  -5.2899999999999996E-002     6.0135948279272899E-015
  -5.2849999999999994E-002     6.1285412102547829E-015
  -5.2800000000000000E-002     6.2461624508781158E-015
  -5.2749999999999998E-002     6.3665041864665505E-015
  -5.2699999999999997E-002     6.4896051090079185E-015
  -5.2649999999999995E-002     6.6155124010130383E-015
  -5.2599999999999994E-002     6.7442633854763811E-015
  -5.2549999999999999E-002     6.8759038889326417E-015
  -5.2499999999999998E-002     7.0104737909458456E-015
  -5.2449999999999997E-002     7.1480158774069547E-015
  -5.2399999999999995E-002     7.2885685865761246E-015
  -5.2349999999999994E-002     7.4321762448406453E-015
  -5.2299999999999999E-002     7.5788779460925773E-015
  -5.2249999999999998E-002     7.7287165788750778E-015
  -5.2199999999999996E-002     7.8817335577716641E-015
  -5.2149999999999995E-002     8.0379706485376860E-015
  -5.2100000000000000E-002     8.1974611528297990E-015
  -5.2049999999999999E-002     8.3602526810055362E-015
  -5.1999999999999998E-002     8.5263875443026238E-015
  -5.1949999999999996E-002     8.6959000698857571E-015
  -5.1899999999999995E-002     8.8688349968432020E-015
  -5.1850000000000000E-002     9.0452392609799029E-015
  -5.1799999999999999E-002     9.2251466259124764E-015
  -5.1749999999999997E-002     9.4085995829324870E-015
  -5.1699999999999996E-002     9.5956409950218511E-015
  -5.1649999999999995E-002     9.7863179982591406E-015
  -5.1600000000000000E-002     9.9806650406661779E-015
  -5.1549999999999999E-002     1.0178726798532966E-014
  -5.1499999999999997E-002     1.0380552109462616E-014
  -5.1449999999999996E-002     1.0586178062150000E-014
  -5.1399999999999994E-002     1.0795648664765026E-014
  -5.1350000000000000E-002     1.1009013833446833E-014
  -5.1299999999999998E-002     1.1226316494404012E-014
  -5.1249999999999997E-002     1.1447599341346484E-014
  -5.1199999999999996E-002     1.1672906551273226E-014
  -5.1149999999999994E-002     1.1902295964664536E-014
  -5.1100000000000000E-002     1.2135803214524882E-014
  -5.1049999999999998E-002     1.2373485683403587E-014
  -5.0999999999999997E-002     1.2615387023109469E-014
  -5.0949999999999995E-002     1.2861554992169370E-014
  -5.0899999999999994E-002     1.3112043896502935E-014
  -5.0849999999999999E-002     1.3366907983826874E-014
  -5.0799999999999998E-002     1.3626188219663899E-014
  -5.0749999999999997E-002     1.3889945836668099E-014
  -5.0699999999999995E-002     1.4158234228446259E-014
  -5.0650000000000001E-002     1.4431110109382990E-014
  -5.0599999999999999E-002     1.4708626203681989E-014
  -5.0549999999999998E-002     1.4990838232137646E-014
  -5.0499999999999996E-002     1.5277804053300999E-014
  -5.0449999999999995E-002     1.5569586559729467E-014
  -5.0399999999999993E-002     1.5866242841693515E-014
  -5.0349999999999999E-002     1.6167826966746372E-014
  -5.0299999999999997E-002     1.6474420199718980E-014
  -5.0249999999999996E-002     1.6786070712907210E-014
  -5.0199999999999995E-002     1.7102840957883399E-014
  -5.0150000000000000E-002     1.7424796411883919E-014
  -5.0099999999999999E-002     1.7752009946962415E-014
  -5.0049999999999997E-002     1.8084568185826071E-014
  -4.9999999999999996E-002     1.8422506478549119E-014
  -4.9949999999999994E-002     1.8765910127067632E-014
  -4.9900000000000000E-002     1.9114851767471062E-014
  -4.9849999999999998E-002     1.9469416997290397E-014
  -4.9799999999999997E-002     1.9829661631950135E-014
  -4.9749999999999996E-002     2.0195666273345727E-014
  -4.9699999999999994E-002     2.0567507009868932E-014
  -4.9650000000000000E-002     2.0945279036403886E-014
  -4.9599999999999998E-002     2.1329043977130614E-014
  -4.9549999999999997E-002     2.1718886236626471E-014
  -4.9499999999999995E-002     2.2114894103228826E-014
  -4.9449999999999994E-002     2.2517160153065302E-014
  -4.9399999999999999E-002     2.2925756111986855E-014
  -4.9349999999999998E-002     2.3340771505819245E-014
  -4.9299999999999997E-002     2.3762313676628716E-014
  -4.9249999999999995E-002     2.4190448444056105E-014
  -4.9200000000000001E-002     2.4625273922723653E-014
  -4.9149999999999999E-002     2.5066898852891089E-014
  -4.9099999999999998E-002     2.5515420135708741E-014
  -4.9049999999999996E-002     2.5970906007991981E-014
  -4.8999999999999995E-002     2.6433481376678260E-014
  -4.8949999999999994E-002     2.6903246032293504E-014
  -4.8899999999999999E-002     2.7380300220950475E-014
  -4.8849999999999998E-002     2.7864746364021999E-014
  -4.8799999999999996E-002     2.8356680709835764E-014
  -4.8749999999999995E-002     2.8856219089994466E-014
  -4.8699999999999993E-002     2.9363481750047591E-014
  -4.8649999999999999E-002     2.9878575811207636E-014
  -4.8599999999999997E-002     3.0401592583770543E-014
  -4.8549999999999996E-002     3.0932652523282566E-014
  -4.8499999999999995E-002     3.1471917236939888E-014
  -4.8450000000000000E-002     3.2019466469298654E-014
  -4.8399999999999999E-002     3.2575412459607811E-014
  -4.8349999999999997E-002     3.3139882807697005E-014
  -4.8299999999999996E-002     3.3713011423779609E-014
  -4.8249999999999994E-002     3.4294936475484313E-014
  -4.8200000000000000E-002     3.4885788993726256E-014
  -4.8149999999999998E-002     3.5485667360188102E-014
  -4.8099999999999997E-002     3.6094721259338189E-014
  -4.8049999999999995E-002     3.6713078665149047E-014
  -4.7999999999999994E-002     3.7340916781955388E-014
  -4.7950000000000000E-002     3.7978324611838030E-014
  -4.7899999999999998E-002     3.8625458371599504E-014
  -4.7849999999999997E-002     3.9282453727743633E-014
  -4.7799999999999995E-002     3.9949469803443918E-014
  -4.7749999999999994E-002     4.0626665218919371E-014
  -4.7699999999999992E-002     4.1314157500149526E-014
  -4.7649999999999998E-002     4.2012109118983481E-014
  -4.7599999999999996E-002     4.2720708954181241E-014
  -4.7549999999999995E-002     4.3440080474356515E-014
  -4.7500000000000001E-002     4.4170378359297918E-014
  -4.7449999999999999E-002     4.4911765506101955E-014
  -4.7399999999999998E-002     4.5664426246638602E-014
  -4.7349999999999996E-002     4.6428524289656577E-014
  -4.7299999999999995E-002     4.7204202353781679E-014
  -4.7250000000000000E-002     4.7991632181213930E-014
  -4.7199999999999999E-002     4.8791026170218965E-014
  -4.7149999999999997E-002     4.9602549383343139E-014
  -4.7099999999999996E-002     5.0426325180935780E-014
  -4.7049999999999995E-002     5.1262603183326749E-014
  -4.6999999999999993E-002     5.2111538623501648E-014
  -4.6949999999999999E-002     5.2973295764524023E-014
  -4.6899999999999997E-002     5.3848091610874632E-014
  -4.6849999999999996E-002     5.4736128753124665E-014
  -4.6799999999999994E-002     5.5637554593216429E-014
  -4.6750000000000000E-002     5.6552597625877745E-014
  -4.6699999999999998E-002     5.7481482913549329E-014
  -4.6649999999999997E-002     5.8424360410266251E-014
  -4.6599999999999996E-002     5.9381433989063197E-014
  -4.6549999999999994E-002     6.0352919678432635E-014
  -4.6500000000000000E-002     6.1339070937549256E-014
  -4.6449999999999998E-002     6.2340099051636617E-014
  -4.6399999999999997E-002     6.3356160843046882E-014
  -4.6349999999999995E-002     6.4387490972134121E-014
  -4.6299999999999994E-002     6.5434300674224245E-014
  -4.6249999999999999E-002     6.6496800475013316E-014
  -4.6199999999999998E-002     6.7575302257041517E-014
  -4.6149999999999997E-002     6.8669960557403594E-014
  -4.6099999999999995E-002     6.9781004458106790E-014
  -4.6049999999999994E-002     7.0908688568304970E-014
  -4.5999999999999999E-002     7.2053203673104255E-014
  -4.5949999999999998E-002     7.3214863054487355E-014
  -4.5899999999999996E-002     7.4393859336810744E-014
  -4.5849999999999995E-002     7.5590472829911308E-014
  -4.5800000000000000E-002     7.6804911961456847E-014
  -4.5749999999999999E-002     7.8037385594636382E-014
  -4.5699999999999998E-002     7.9288220215605594E-014
  -4.5649999999999996E-002     8.0557686432714957E-014
  -4.5599999999999995E-002     8.1846002183808213E-014
  -4.5549999999999993E-002     8.3153350375070866E-014
  -4.5499999999999999E-002     8.4480071399032923E-014
  -4.5449999999999997E-002     8.5826473002081377E-014
  -4.5399999999999996E-002     8.7192751818061086E-014
  -4.5349999999999994E-002     8.8579189197040630E-014
  -4.5299999999999993E-002     8.9986065015152578E-014
  -4.5249999999999999E-002     9.1413621683670996E-014
  -4.5199999999999997E-002     9.2862201074943827E-014
  -4.5149999999999996E-002     9.4332031689920602E-014
  -4.5099999999999994E-002     9.5823426455149863E-014
  -4.5050000000000000E-002     9.7336590153474240E-014
  -4.4999999999999998E-002     9.8871942198699373E-014
  -4.4949999999999997E-002     1.0042964131019497E-013
  -4.4899999999999995E-002     1.0201003637699074E-013
  -4.4849999999999994E-002     1.0361340470835715E-013
  -4.4800000000000000E-002     1.0524010191846302E-013
  -4.4749999999999998E-002     1.0689036456602395E-013
  -4.4699999999999997E-002     1.0856449926923017E-013
  -4.4649999999999995E-002     1.1026276807437652E-013
  -4.4599999999999994E-002     1.1198560775432654E-013
  -4.4549999999999999E-002     1.1373319043797785E-013
  -4.4499999999999998E-002     1.1550584772570182E-013
  -4.4449999999999996E-002     1.1730391464571888E-013
  -4.4399999999999995E-002     1.1912765186248212E-013
  -4.4349999999999994E-002     1.2097747451316994E-013
  -4.4299999999999992E-002     1.2285369163554764E-013
  -4.4249999999999998E-002     1.2475661402296126E-013
  -4.4199999999999996E-002     1.2668651266827925E-013
  -4.4149999999999995E-002     1.2864370266757146E-013
  -4.4100000000000000E-002     1.3062847186699713E-013
  -4.4049999999999999E-002     1.3264116143413403E-013
  -4.3999999999999997E-002     1.3468221652849325E-013
  -4.3949999999999996E-002     1.3675204391310260E-013
  -4.3899999999999995E-002     1.3885073147549956E-013
  -4.3850000000000000E-002     1.4097868765382361E-013
  -4.3799999999999999E-002     1.4313628205358038E-013
  -4.3749999999999997E-002     1.4532388966416215E-013
  -4.3699999999999996E-002     1.4754176580906415E-013
  -4.3649999999999994E-002     1.4979033745173898E-013
  -4.3599999999999993E-002     1.5206996108082598E-013
  -4.3549999999999998E-002     1.5438093156596172E-013
  -4.3499999999999997E-002     1.5672365875850430E-013
  -4.3449999999999996E-002     1.5909836660820628E-013
  -4.3399999999999994E-002     1.6150545189523801E-013
  -4.3350000000000000E-002     1.6394536799989713E-013
  -4.3299999999999998E-002     1.6641846237490358E-013
  -4.3249999999999997E-002     1.6892505670382751E-013
  -4.3199999999999995E-002     1.7146543294984421E-013
  -4.3149999999999994E-002     1.7404005775272397E-013
  -4.3099999999999999E-002     1.7664925192074345E-013
  -4.3049999999999998E-002     1.7929351624521173E-013
  -4.2999999999999997E-002     1.8197315895395150E-013
  -4.2949999999999995E-002     1.8468846030651474E-013
  -4.2899999999999994E-002     1.8743974193837738E-013
  -4.2849999999999999E-002     1.9022747163945582E-013
  -4.2799999999999998E-002     1.9305209061812801E-013
  -4.2749999999999996E-002     1.9591412546673457E-013
  -4.2699999999999995E-002     1.9881376499462066E-013
  -4.2649999999999993E-002     2.0175142639048330E-013
  -4.2599999999999999E-002     2.0472740179827454E-013
  -4.2549999999999998E-002     2.0774212748235213E-013
  -4.2499999999999996E-002     2.1079620700720146E-013
  -4.2449999999999995E-002     2.1388988965377336E-013
  -4.2400000000000000E-002     2.1702366333347662E-013
  -4.2349999999999999E-002     2.2019787787139846E-013
  -4.2299999999999997E-002     2.2341278898373889E-013
  -4.2249999999999996E-002     2.2666909632547307E-013
  -4.2199999999999994E-002     2.2996701357331705E-013
  -4.2149999999999993E-002     2.3330716557537842E-013
  -4.2099999999999999E-002     2.3668978721755498E-013
  -4.2049999999999997E-002     2.4011539658922552E-013
  -4.1999999999999996E-002     2.4358427872024986E-013
  -4.1949999999999994E-002     2.4709692146073763E-013
  -4.1899999999999993E-002     2.5065406596505870E-013
  -4.1849999999999998E-002     2.5425594591669465E-013
  -4.1799999999999997E-002     2.5790288843552794E-013
  -4.1749999999999995E-002     2.6159548912072539E-013
  -4.1699999999999994E-002     2.6533407376316402E-013
  -4.1650000000000000E-002     2.6911913757448086E-013
  -4.1599999999999998E-002     2.7295120112169079E-013
  -4.1549999999999997E-002     2.7683054737919390E-013
  -4.1499999999999995E-002     2.8075775824237141E-013
  -4.1449999999999994E-002     2.8473365122289907E-013
  -4.1399999999999999E-002     2.8875848834394032E-013
  -4.1349999999999998E-002     2.9283260341650636E-013
  -4.1299999999999996E-002     2.9695641292025064E-013
  -4.1249999999999995E-002     3.0113059240328876E-013
  -4.1199999999999994E-002     3.0535545182860691E-013
  -4.1149999999999999E-002     3.0963159151119314E-013
  -4.1099999999999998E-002     3.1395947952693200E-013
  -4.1049999999999996E-002     3.1833986718837394E-013
  -4.0999999999999995E-002     3.2277303184048001E-013
  -4.0949999999999993E-002     3.2725943019444664E-013
  -4.0899999999999992E-002     3.3179966584785476E-013
  -4.0849999999999997E-002     3.3639423937547868E-013
  -4.0799999999999996E-002     3.4104368993244767E-013
  -4.0749999999999995E-002     3.4574876857633697E-013
  -4.0700000000000000E-002     3.5050988413345243E-013
  -4.0649999999999999E-002     3.5532772442092153E-013
  -4.0599999999999997E-002     3.6020234797282232E-013
  -4.0549999999999996E-002     3.6513444561746148E-013
  -4.0499999999999994E-002     3.7012467971380061E-013
  -4.0450000000000000E-002     3.7517361522940665E-013
  -4.0399999999999991E-002     3.8028177176198956E-013
  -4.0349999999999997E-002     3.8544977483606310E-013
  -4.0299999999999996E-002     3.9067842959811462E-013
  -4.0249999999999994E-002     3.9596813291596125E-013
  -4.0200000000000000E-002     4.0131922876383517E-013
  -4.0149999999999998E-002     4.0673241833998525E-013
  -4.0099999999999997E-002     4.1220836111384273E-013
  -4.0049999999999995E-002     4.1774759626119623E-013
  -3.9999999999999994E-002     4.2335072095573907E-013
  -3.9949999999999992E-002     4.2901858950462795E-013
  -3.9899999999999998E-002     4.3475128100980599E-013
  -3.9849999999999997E-002     4.4054941747181955E-013
  -3.9799999999999995E-002     4.4641456885641133E-013
  -3.9749999999999994E-002     4.5234684714658932E-013
  -3.9699999999999999E-002     4.5834658796868446E-013
  -3.9649999999999991E-002     4.6441451597308008E-013
  -3.9599999999999996E-002     4.7055108539625087E-013
  -3.9549999999999995E-002     4.7675700348932900E-013
  -3.9499999999999993E-002     4.8303284171226110E-013
  -3.9449999999999999E-002     4.8937942405105698E-013
  -3.9399999999999998E-002     4.9579736646237806E-013
  -3.9349999999999996E-002     5.0228755690957857E-013
  -3.9299999999999995E-002     5.0885029122051619E-013
  -3.9250000000000000E-002     5.1548628083122500E-013
  -3.9199999999999999E-002     5.2219661600869589E-013
  -3.9149999999999997E-002     5.2898147507669089E-013
  -3.9099999999999996E-002     5.3584160112913666E-013
  -3.9049999999999994E-002     5.4277765063548655E-013
  -3.8999999999999993E-002     5.4979023660574602E-013
  -3.8949999999999999E-002     5.5688003489348923E-013
  -3.8899999999999997E-002     5.6404765013909474E-013
  -3.8849999999999996E-002     5.7129383048589552E-013
  -3.8799999999999994E-002     5.7861935406695671E-013
  -3.8749999999999993E-002     5.8602482832620454E-013
  -3.8699999999999991E-002     5.9351073916317474E-013
  -3.8649999999999997E-002     6.0107846908325879E-013
  -3.8599999999999995E-002     6.0872848322427929E-013
  -3.8549999999999994E-002     6.1646090731374690E-013
  -3.8500000000000000E-002     6.2427639785036841E-013
  -3.8449999999999998E-002     6.3217592932412614E-013
  -3.8399999999999997E-002     6.4016022210526155E-013
  -3.8349999999999995E-002     6.4822993482896930E-013
  -3.8300000000000001E-002     6.5638570413825691E-013
  -3.8249999999999992E-002     6.6462812809380483E-013
  -3.8199999999999998E-002     6.7295798864602092E-013
  -3.8149999999999996E-002     6.8137653695171354E-013
  -3.8099999999999995E-002     6.8988409619919882E-013
  -3.8049999999999994E-002     6.9848169119960006E-013
  -3.7999999999999999E-002     7.0716911580070045E-013
  -3.7949999999999998E-002     7.1594732589739157E-013
  -3.7899999999999996E-002     7.2481710827023717E-013
  -3.7849999999999995E-002     7.3377936268959941E-013
  -3.7799999999999993E-002     7.4283468907092287E-013
  -3.7749999999999999E-002     7.5198351850517141E-013
  -3.7699999999999997E-002     7.6122690927779811E-013
  -3.7649999999999996E-002     7.7056585763823671E-013
  -3.7599999999999995E-002     7.8000088336726532E-013
  -3.7550000000000000E-002     7.8953201091766036E-013
  -3.7499999999999992E-002     7.9915995790598527E-013
  -3.7449999999999997E-002     8.0888591916750827E-013
  -3.7399999999999996E-002     8.1871102961162394E-013
  -3.7349999999999994E-002     8.2863530973903996E-013
  -3.7299999999999993E-002     8.3865947087989383E-013
  -3.7249999999999998E-002     8.4878451708141861E-013
  -3.7199999999999997E-002     8.5901084780986866E-013
  -3.7149999999999996E-002     8.6933931634892502E-013
  -3.7099999999999994E-002     8.7976981152327942E-013
  -3.7050000000000000E-002     8.9030390070328909E-013
  -3.6999999999999991E-002     9.0094184360222977E-013
  -3.6949999999999997E-002     9.1168535745036516E-013
  -3.6899999999999995E-002     9.2253486859790105E-013
  -3.6849999999999994E-002     9.3349055637798218E-013
  -3.6799999999999999E-002     9.4455331500677786E-013
  -3.6749999999999998E-002     9.5572394806046094E-013
  -3.6699999999999997E-002     9.6700223646699692E-013
  -3.6649999999999995E-002     9.7838960003157161E-013
  -3.6599999999999994E-002     9.8988635359808466E-013
  -3.6549999999999992E-002     1.0014935416348762E-012
  -3.6499999999999998E-002     1.0132107854961311E-012
  -3.6449999999999996E-002     1.0250402552572488E-012
  -3.6399999999999995E-002     1.0369817664109545E-012
  -3.6349999999999993E-002     1.0490362548444624E-012
  -3.6299999999999999E-002     1.0612038912082616E-012
  -3.6249999999999991E-002     1.0734856864942714E-012
  -3.6199999999999996E-002     1.0858827847293555E-012
  -3.6149999999999995E-002     1.0983956087952329E-012
  -3.6099999999999993E-002     1.1110244621225324E-012
  -3.6049999999999999E-002     1.1237711467040296E-012
  -3.5999999999999997E-002     1.1366352650981145E-012
  -3.5949999999999996E-002     1.1496177729098804E-012
  -3.5899999999999994E-002     1.1627188279624006E-012
  -3.5850000000000000E-002     1.1759394069957738E-012
  -3.5799999999999998E-002     1.1892803459803840E-012
  -3.5749999999999997E-002     1.2027414322978559E-012
  -3.5699999999999996E-002     1.2163236315159241E-012
  -3.5649999999999994E-002     1.2300279336583795E-012
  -3.5599999999999993E-002     1.2438545581749301E-012
  -3.5549999999999998E-002     1.2578039069812995E-012
  -3.5499999999999997E-002     1.2718771238243534E-012
  -3.5449999999999995E-002     1.2860750587616128E-012
  -3.5399999999999994E-002     1.3003980354625936E-012
  -3.5349999999999993E-002     1.3148461629216319E-012
  -3.5299999999999991E-002     1.3294205035867079E-012
  -3.5249999999999997E-002     1.3441220881411649E-012
  -3.5199999999999995E-002     1.3589522189357718E-012
  -3.5149999999999994E-002     1.3739102259939891E-012
  -3.5099999999999999E-002     1.3889964524998832E-012
  -3.5049999999999998E-002     1.4042112353130977E-012
  -3.4999999999999996E-002     1.4195559987108465E-012
  -3.4949999999999995E-002     1.4350313312336742E-012
  -3.4900000000000000E-002     1.4506371232953604E-012
  -3.4849999999999992E-002     1.4663752633236784E-012
  -3.4799999999999998E-002     1.4822456812316043E-012
  -3.4749999999999996E-002     1.4982489035461925E-012
  -3.4699999999999995E-002     1.5143851816114410E-012
  -3.4649999999999993E-002     1.5306543819881154E-012
  -3.4599999999999999E-002     1.5470581178030163E-012
  -3.4549999999999997E-002     1.5635971588924867E-012
  -3.4499999999999996E-002     1.5802724855856950E-012
  -3.4449999999999995E-002     1.5970832462185898E-012
  -3.4399999999999993E-002     1.6140297711510230E-012
  -3.4349999999999999E-002     1.6311134613956098E-012
  -3.4299999999999997E-002     1.6483341696063752E-012
  -3.4249999999999996E-002     1.6656929430537615E-012
  -3.4199999999999994E-002     1.6831904002501323E-012
  -3.4150000000000000E-002     1.7008267787837560E-012
  -3.4099999999999991E-002     1.7186024558551575E-012
  -3.4049999999999997E-002     1.7365178445792535E-012
  -3.3999999999999996E-002     1.7545739157829762E-012
  -3.3949999999999994E-002     1.7727701938207571E-012
  -3.3899999999999993E-002     1.7911079905247189E-012
  -3.3849999999999998E-002     1.8095879621009397E-012
  -3.3799999999999997E-002     1.8282094923845056E-012
  -3.3749999999999995E-002     1.8469738095756059E-012
  -3.3699999999999994E-002     1.8658808769973179E-012
  -3.3649999999999999E-002     1.8849319525813323E-012
  -3.3599999999999991E-002     1.9041274344676767E-012
  -3.3549999999999996E-002     1.9234671819495414E-012
  -3.3499999999999995E-002     1.9429498841041270E-012
  -3.3449999999999994E-002     1.9625780600675672E-012
  -3.3399999999999999E-002     1.9823516173992902E-012
  -3.3349999999999998E-002     2.0022714271023374E-012
  -3.3299999999999996E-002     2.0223373965445287E-012
  -3.3249999999999995E-002     2.0425493264714025E-012
  -3.3199999999999993E-002     2.0629099301354302E-012
  -3.3149999999999992E-002     2.0834190501094074E-012
  -3.3099999999999997E-002     2.1040751179114702E-012
  -3.3049999999999996E-002     2.1248794315175182E-012
  -3.2999999999999995E-002     2.1458314798843848E-012
  -3.2949999999999993E-002     2.1669321729779376E-012
  -3.2899999999999999E-002     2.1881823098609855E-012
  -3.2849999999999990E-002     2.2095809153366750E-012
  -3.2799999999999996E-002     2.2311295067780150E-012