  -5.9999999999999998E-002     0.0000000000000000     
  -5.9949999999999996E-002    -4.6485560244006996E-020
  -5.9899999999999995E-002    -1.7869366649799570E-019
  -5.9850000000000000E-002    -3.9821797381381358E-019
  -5.9799999999999999E-002    -7.0648926031686477E-019
  -5.9749999999999998E-002    -1.1047716040399649E-018
  -5.9699999999999996E-002    -1.5941619645818450E-018
  -5.9649999999999995E-002    -2.1755873719548240E-018
  -5.9600000000000000E-002    -2.8498064022361032E-018
  -5.9549999999999999E-002    -3.6174021401684359E-018
  -5.9499999999999997E-002    -4.4787891055676794E-018
  -5.9449999999999996E-002    -5.4342063386181107E-018
  -5.9399999999999994E-002    -6.4837436556550101E-018
  -5.9350000000000000E-002    -7.6272875209623748E-018
  -5.9299999999999999E-002    -8.8645936198344233E-018
  -5.9249999999999997E-002    -1.0195230824546058E-017
  -5.9199999999999996E-002    -1.1618619821281579E-017
  -5.9149999999999994E-002    -1.3134018028574112E-017
  -5.9100000000000000E-002    -1.4740517749946174E-017
  -5.9049999999999998E-002    -1.6437062277049827E-017
  -5.8999999999999997E-002    -1.8222469929006866E-017
  -5.8949999999999995E-002    -2.0095412211448307E-017
  -5.8900000000000001E-002    -2.2054389905534693E-017
  -5.8850000000000000E-002    -2.4097840112986076E-017
  -5.8799999999999998E-002    -2.6223995030952408E-017
  -5.8749999999999997E-002    -2.8431023140364559E-017
  -5.8699999999999995E-002    -3.0716990422041832E-017
  -5.8650000000000001E-002    -3.3079810518575653E-017
  -5.8599999999999999E-002    -3.5517318889447618E-017
  -5.8549999999999998E-002    -3.8027348845523273E-017
  -5.8499999999999996E-002    -4.0607464218976929E-017
  -5.8449999999999995E-002    -4.3255327021638441E-017
  -5.8400000000000001E-002    -4.5968490369397812E-017
  -5.8349999999999999E-002    -4.8744372162177620E-017
  -5.8299999999999998E-002    -5.1580416201659106E-017
  -5.8249999999999996E-002    -5.4474021693735607E-017
  -5.8199999999999995E-002    -5.7422541672590361E-017
  -5.8150000000000000E-002    -6.0423288436597238E-017
  -5.8099999999999999E-002    -6.3473588666235168E-017
  -5.8049999999999997E-002    -6.6570787890132069E-017
  -5.7999999999999996E-002    -6.9712139614339659E-017
  -5.7949999999999995E-002    -7.2894988905818162E-017
  -5.7900000000000000E-002    -7.6116862725140449E-017
  -5.7849999999999999E-002    -7.9374956371725715E-017
  -5.7799999999999997E-002    -8.2666736206054424E-017
  -5.7749999999999996E-002    -8.5989697592082807E-017
  -5.7699999999999994E-002    -8.9341309092546836E-017
  -5.7650000000000000E-002    -9.2719324027265643E-017
  -5.7599999999999998E-002    -9.6121172401490115E-017
  -5.7549999999999997E-002    -9.9544882974094022E-017
  -5.7499999999999996E-002    -1.0298816127912167E-016
  -5.7450000000000001E-002    -1.0644880307082128E-016
  -5.7400000000000000E-002    -1.0992511955264283E-016
  -5.7349999999999998E-002    -1.1341514742647527E-016
  -5.7299999999999997E-002    -1.1691709044647101E-016
  -5.7249999999999995E-002    -1.2042943505436893E-016
  -5.7200000000000001E-002    -1.2395055454056450E-016
  -5.7149999999999999E-002    -1.2747952090877855E-016
  -5.7099999999999998E-002    -1.3101493807188452E-016
  -5.7049999999999997E-002    -1.3455560792500215E-016
  -5.6999999999999995E-002    -1.3810078988376738E-016
  -5.6950000000000001E-002    -1.4164972574742406E-016
  -5.6899999999999999E-002    -1.4520174235551981E-016
  -5.6849999999999998E-002    -1.4875649865325715E-016
  -5.6799999999999996E-002    -1.5231379002551096E-016
  -5.6749999999999995E-002    -1.5587352576082310E-016
  -5.6700000000000000E-002    -1.5943582265504669E-016
  -5.6649999999999999E-002    -1.6300086569219542E-016
  -5.6599999999999998E-002    -1.6656909620278628E-016
  -5.6549999999999996E-002    -1.7014101033723891E-016
  -5.6499999999999995E-002    -1.7371751968639532E-016
  -5.6450000000000000E-002    -1.7729951733904615E-016
  -5.6399999999999999E-002    -1.8088822436114419E-016
  -5.6349999999999997E-002    -1.8448512082450347E-016
  -5.6299999999999996E-002    -1.8809159487480644E-016
  -5.6249999999999994E-002    -1.9170921836813798E-016
  -5.6200000000000000E-002    -1.9533992750305462E-016
  -5.6149999999999999E-002    -1.9898566575392516E-016
  -5.6099999999999997E-002    -2.0264873643023340E-016
  -5.6049999999999996E-002    -2.0633110683737761E-016
  -5.5999999999999994E-002    -2.1003579810072310E-016
  -5.5950000000000000E-002    -2.1376534742676937E-016
  -5.5899999999999998E-002    -2.1752212245672173E-016
  -5.5849999999999997E-002    -2.2130938399646364E-016
  -5.5799999999999995E-002    -2.2513024781461812E-016
  -5.5749999999999994E-002    -2.2898803101421372E-016
  -5.5700000000000000E-002    -2.3288548479271393E-016
  -5.5649999999999998E-002    -2.3682731264307194E-016
  -5.5599999999999997E-002    -2.4081558152928658E-016
  -5.5549999999999995E-002    -2.4485489814502181E-016
  -5.5500000000000001E-002    -2.4894920663436669E-016
  -5.5449999999999999E-002    -2.5310180707506073E-016
  -5.5399999999999998E-002    -2.5731765761954417E-016
  -5.5349999999999996E-002    -2.6159993558812343E-016
  -5.5299999999999995E-002    -2.6595327731617965E-016
  -5.5250000000000000E-002    -2.7038195851609940E-016
  -5.5199999999999999E-002    -2.7489032128923469E-016
  -5.5149999999999998E-002    -2.7948241023378841E-016
  -5.5099999999999996E-002    -2.8416305515912055E-016
  -5.5049999999999995E-002    -2.8893698284365919E-016
  -5.5000000000000000E-002    -2.9380812132484671E-016
  -5.4949999999999999E-002    -2.9878101601903076E-016
  -5.4899999999999997E-002    -3.0386115981066176E-016
  -5.4849999999999996E-002    -3.0905201673360757E-016
  -5.4799999999999995E-002    -3.1435884782497298E-016
  -5.4750000000000000E-002    -3.1978631864624067E-016
  -5.4699999999999999E-002    -3.2533904492158935E-016
  -5.4649999999999997E-002    -3.3102126170668526E-016
  -5.4599999999999996E-002    -3.3683814822873324E-016
  -5.4549999999999994E-002    -3.4279370074572739E-016
  -5.4500000000000000E-002    -3.4889345557080161E-016
  -5.4449999999999998E-002    -3.5514076410195996E-016
  -5.4399999999999997E-002    -3.6154112494829263E-016
  -5.4349999999999996E-002    -3.6809875488735745E-016
  -5.4299999999999994E-002    -3.7481757535561104E-016
  -5.4250000000000000E-002    -3.8170226577145105E-016
  -5.4199999999999998E-002    -3.8875722638501516E-016
  -5.4149999999999997E-002    -3.9598692583795346E-016
  -5.4099999999999995E-002    -4.0339522020206670E-016
  -5.4050000000000001E-002    -4.1098668126262429E-016
  -5.3999999999999999E-002    -4.1876519913047819E-016
  -5.3949999999999998E-002    -4.2673448027433103E-016
  -5.3899999999999997E-002    -4.3489926004671995E-016
  -5.3849999999999995E-002    -4.4326184540777516E-016
  -5.3800000000000001E-002    -4.5182761747018000E-016
  -5.3749999999999999E-002    -4.6060028350118240E-016
  -5.3699999999999998E-002    -4.6958239057686035E-016
  -5.3649999999999996E-002    -4.7877885646114619E-016
  -5.3599999999999995E-002    -4.8819156817519489E-016
  -5.3550000000000000E-002    -4.9782562302826854E-016
  -5.3499999999999999E-002    -5.0768299382122433E-016
  -5.3449999999999998E-002    -5.1776773211923503E-016
  -5.3399999999999996E-002    -5.2808406836750191E-016
  -5.3349999999999995E-002    -5.3863254163110134E-016
  -5.3300000000000000E-002    -5.4941925041892823E-016
  -5.3249999999999999E-002    -5.6044463667232422E-016
  -5.3199999999999997E-002    -5.7171397508891956E-016
  -5.3149999999999996E-002    -5.8322814039052426E-016
  -5.3099999999999994E-002    -5.9499175045973976E-016
  -5.3050000000000000E-002    -6.0700582904756271E-016
  -5.2999999999999999E-002    -6.1927481310051270E-016
  -5.2949999999999997E-002    -6.3180044033420087E-016
  -5.2899999999999996E-002    -6.4458660922785605E-016
  -5.2849999999999994E-002    -6.5763448483971587E-016
  -5.2800000000000000E-002    -6.7094734013946496E-016
  -5.2749999999999998E-002    -6.8452758422137569E-016
  -5.2699999999999997E-002    -6.9837956602424901E-016
  -5.2649999999999995E-002    -7.1250253855574485E-016
  -5.2599999999999994E-002    -7.2690155411007108E-016
  -5.2549999999999999E-002    -7.4157939214673490E-016
  -5.2499999999999998E-002    -7.5653567543080587E-016
  -5.2449999999999997E-002    -7.7177651194315051E-016
  -5.2399999999999995E-002    -7.8730365080625936E-016
  -5.2349999999999994E-002    -8.0311941048056601E-016
  -5.2299999999999999E-002    -8.1922688259876260E-016
  -5.2249999999999998E-002    -8.3562740746992113E-016
  -5.2199999999999996E-002    -8.5232632618804401E-016
  -5.2149999999999995E-002    -8.6932577699594632E-016
  -5.2100000000000000E-002    -8.8662485139661681E-016
  -5.2049999999999999E-002    -9.0423098991440536E-016
  -5.1999999999999998E-002    -9.2214717814592712E-016
  -5.1949999999999996E-002    -9.4037405265070102E-016
  -5.1899999999999995E-002    -9.5891561160968331E-016
  -5.1850000000000000E-002    -9.7777615465083082E-016
  -5.1799999999999999E-002    -9.9695955562861349E-016
  -5.1749999999999997E-002    -1.0164672778020915E-015
  -5.1699999999999996E-002    -1.0363045821096236E-015
  -5.1649999999999995E-002    -1.0564773528204208E-015
  -5.1600000000000000E-002    -1.0769841024290099E-015
  -5.1549999999999999E-002    -1.0978321338451245E-015
  -5.1499999999999997E-002    -1.1190267900361797E-015
  -5.1449999999999996E-002    -1.1405700151576808E-015
  -5.1399999999999994E-002    -1.1624662487028492E-015
  -5.1350000000000000E-002    -1.1847218068387394E-015
  -5.1299999999999998E-002    -1.2073425074176849E-015
  -5.1249999999999997E-002    -1.2303282282570615E-015
  -5.1199999999999996E-002    -1.2536873389948198E-015
  -5.1149999999999994E-002    -1.2774272025335807E-015
  -5.1100000000000000E-002    -1.3015491100243192E-015
  -5.1049999999999998E-002    -1.3260606124021126E-015
  -5.0999999999999997E-002    -1.3509699974801485E-015
  -5.0949999999999995E-002    -1.3762787363087035E-015
  -5.0899999999999994E-002    -1.4019959458713655E-015
  -5.0849999999999999E-002    -1.4281247280987407E-015
  -5.0799999999999998E-002    -1.4546722207250291E-015
  -5.0749999999999997E-002    -1.4816498466319895E-015
  -5.0699999999999995E-002    -1.5090614332821972E-015
  -5.0650000000000001E-002    -1.5369100496302123E-015
  -5.0599999999999999E-002    -1.5652100758320248E-015
  -5.0549999999999998E-002    -1.5939659865108513E-015
  -5.0499999999999996E-002    -1.6231859283833653E-015
  -5.0449999999999995E-002    -1.6528740553288489E-015
  -5.0399999999999993E-002    -1.6830407159205527E-015
  -5.0349999999999999E-002    -1.7136940678419891E-015
  -5.0299999999999997E-002    -1.7448492342026242E-015
  -5.0249999999999996E-002    -1.7765051816355440E-015
  -5.0199999999999995E-002    -1.8086731467629764E-015
  -5.0150000000000000E-002    -1.8413629911036332E-015
  -5.0099999999999999E-002    -1.8745798186271590E-015
  -5.0049999999999997E-002    -1.9083448611239979E-015
  -4.9999999999999996E-002    -1.9426579217304838E-015
  -4.9949999999999994E-002    -1.9775290878168201E-015
  -4.9900000000000000E-002    -2.0129661250618754E-015
  -4.9849999999999998E-002    -2.0489931004065923E-015
  -4.9799999999999997E-002    -2.0856057256928076E-015
  -4.9749999999999996E-002    -2.1228144638368233E-015
  -4.9699999999999994E-002    -2.1606327293940287E-015
  -4.9650000000000000E-002    -2.1990813893400389E-015
  -4.9599999999999998E-002    -2.2381575045924639E-015
  -4.9549999999999997E-002    -2.2778773371254235E-015
  -4.9499999999999995E-002    -2.3182539602221162E-015
  -4.9449999999999994E-002    -2.3592966102462241E-015
  -4.9399999999999999E-002    -2.4010179860045375E-015
  -4.9349999999999998E-002    -2.4434236895242608E-015
  -4.9299999999999997E-002    -2.4865372422480146E-015
  -4.9249999999999995E-002    -2.5303644738733579E-015
  -4.9200000000000001E-002    -2.5749173136940646E-015
  -4.9149999999999999E-002    -2.6202041189675510E-015
  -4.9099999999999998E-002    -2.6662422784650278E-015
  -4.9049999999999996E-002    -2.7130432270366261E-015
  -4.8999999999999995E-002    -2.7606263623959890E-015
  -4.8949999999999994E-002    -2.8090019504136535E-015
  -4.8899999999999999E-002    -2.8581685821076682E-015
  -4.8849999999999998E-002    -2.9081536204991161E-015
  -4.8799999999999996E-002    -2.9589671159721154E-015
  -4.8749999999999995E-002    -3.0106263990846476E-015
  -4.8699999999999993E-002    -3.0631411941051609E-015
  -4.8649999999999999E-002    -3.1165222878167154E-015
  -4.8599999999999997E-002    -3.1707832865333843E-015
  -4.8549999999999996E-002    -3.2259434564086755E-015
  -4.8499999999999995E-002    -3.2820233806514313E-015
  -4.8450000000000000E-002    -3.3390243555097915E-015
  -4.8399999999999999E-002    -3.3969633457692941E-015
  -4.8349999999999997E-002    -3.4558575513012412E-015
  -4.8299999999999996E-002    -3.5157135454256471E-015
  -4.8249999999999994E-002    -3.5765571526309904E-015
  -4.8200000000000000E-002    -3.6384073104793533E-015
  -4.8149999999999998E-002    -3.7012690265762558E-015
  -4.8099999999999997E-002    -3.7651519455858173E-015
  -4.8049999999999995E-002    -3.8300764192444629E-015
  -4.7999999999999994E-002    -3.8960782635675614E-015
  -4.7950000000000000E-002    -3.9631449303877131E-015
  -4.7899999999999998E-002    -4.0312998488537913E-015
  -4.7849999999999997E-002    -4.1005595078249139E-015
  -4.7799999999999995E-002    -4.1709447706516549E-015
  -4.7749999999999994E-002    -4.2424726591904962E-015
  -4.7699999999999992E-002    -4.3151530011548988E-015
  -4.7649999999999998E-002    -4.3890047160581110E-015
  -4.7599999999999996E-002    -4.4640476387804874E-015
  -4.7549999999999995E-002    -4.5402979940673033E-015
  -4.7500000000000001E-002    -4.6177677681705532E-015
  -4.7449999999999999E-002    -4.6964666125985112E-015
  -4.7399999999999998E-002    -4.7764366891172376E-015
  -4.7349999999999996E-002    -4.8576771012463996E-015
  -4.7299999999999995E-002    -4.9401986244323818E-015
  -4.7250000000000000E-002    -5.0240347873209144E-015
  -4.7199999999999999E-002    -5.1092166535284617E-015
  -4.7149999999999997E-002    -5.1957226482186947E-015
  -4.7099999999999996E-002    -5.2835853414760207E-015
  -4.7049999999999995E-002    -5.3728369586018345E-015
  -4.6999999999999993E-002    -5.4634968040347667E-015
  -4.6949999999999999E-002    -5.5555777974689901E-015
  -4.6899999999999997E-002    -5.6490905300854135E-015
  -4.6849999999999996E-002    -5.7440656433546139E-015
  -4.6799999999999994E-002    -5.8405212891337836E-015
  -4.6750000000000000E-002    -5.9384771045615992E-015
  -4.6699999999999998E-002    -6.0379624937004017E-015
  -4.6649999999999997E-002    -6.1389638683202059E-015
  -4.6599999999999996E-002    -6.2415222775022282E-015
  -4.6549999999999994E-002    -6.3456636562325029E-015
  -4.6500000000000000E-002    -6.4514252792518420E-015
  -4.6449999999999998E-002    -6.5588068260739193E-015
  -4.6399999999999997E-002    -6.6678271619787659E-015
  -4.6349999999999995E-002    -6.7785155152573512E-015
  -4.6299999999999994E-002    -6.8908905171360540E-015
  -4.6249999999999999E-002    -7.0049558064459443E-015
  -4.6199999999999998E-002    -7.1207793173310933E-015
  -4.6149999999999997E-002    -7.2383617236750466E-015
  -4.6099999999999995E-002    -7.3577181615615726E-015
  -4.6049999999999994E-002    -7.4788704993028914E-015
  -4.5999999999999999E-002    -7.6018382931296423E-015
  -4.5949999999999998E-002    -7.7266812842009006E-015
  -4.5899999999999996E-002    -7.8534122643067975E-015
  -4.5849999999999995E-002    -7.9820238419315918E-015
  -4.5800000000000000E-002    -8.1125558823475777E-015
  -4.5749999999999999E-002    -8.2450362603510938E-015
  -4.5699999999999998E-002    -8.3795015891058272E-015
  -4.5649999999999996E-002    -8.5159717591472720E-015
  -4.5599999999999995E-002    -8.6544711027978003E-015
  -4.5549999999999993E-002    -8.7950175393201237E-015
  -4.5499999999999999E-002    -8.9376244581739143E-015
  -4.5449999999999997E-002    -9.0823606431291306E-015
  -4.5399999999999996E-002    -9.2292375421631865E-015
  -4.5349999999999994E-002    -9.3782698820649026E-015
  -4.5299999999999993E-002    -9.5294860722156761E-015
  -4.5249999999999999E-002    -9.6829317143954038E-015
  -4.5199999999999997E-002    -9.8386482189034133E-015
  -4.5149999999999996E-002    -9.9966332086710190E-015
  -4.5099999999999994E-002    -1.0156885149515228E-014
  -4.5050000000000000E-002    -1.0319465183781375E-014
  -4.4999999999999998E-002    -1.0484438572046328E-014
  -4.4949999999999997E-002    -1.0651814109637581E-014
  -4.4899999999999995E-002    -1.0821617996074928E-014
  -4.4849999999999994E-002    -1.0993873987769324E-014
  -4.4800000000000000E-002    -1.1168609693070197E-014
  -4.4749999999999998E-002    -1.1345854992610347E-014
  -4.4699999999999997E-002    -1.1525656905209467E-014
  -4.4649999999999995E-002    -1.1708040226211536E-014
  -4.4599999999999994E-002    -1.1893071482421375E-014
  -4.4549999999999999E-002    -1.2080753496227450E-014
  -4.4499999999999998E-002    -1.2271062043237965E-014
  -4.4449999999999996E-002    -1.2464085763818247E-014
  -4.4399999999999995E-002    -1.2659842528014782E-014
  -4.4349999999999994E-002    -1.2858421406053263E-014
  -4.4299999999999992E-002    -1.3059850383396715E-014
  -4.4249999999999998E-002    -1.3264094785987157E-014
  -4.4199999999999996E-002    -1.3471216939257934E-014
  -4.4149999999999995E-002    -1.3681268221888707E-014
  -4.4100000000000000E-002    -1.3894266773329608E-014
  -4.4049999999999999E-002    -1.4110246473425247E-014
  -4.3999999999999997E-002    -1.4329246826430104E-014
  -4.3949999999999996E-002    -1.4551351240927626E-014
  -4.3899999999999995E-002    -1.4776556827488416E-014
  -4.3850000000000000E-002    -1.5004897013580289E-014
  -4.3799999999999999E-002    -1.5236407044352023E-014
  -4.3749999999999997E-002    -1.5471103706912898E-014
  -4.3699999999999996E-002    -1.5709026294513676E-014
  -4.3649999999999994E-002    -1.5950284013131246E-014
  -4.3599999999999993E-002    -1.6194879241389733E-014
  -4.3549999999999998E-002    -1.6442843282720065E-014
  -4.3499999999999997E-002    -1.6694191516751845E-014
  -4.3449999999999996E-002    -1.6948951928686005E-014
  -4.3399999999999994E-002    -1.7207193973859302E-014
  -4.3350000000000000E-002    -1.7468998737984505E-014
  -4.3299999999999998E-002    -1.7734370478505708E-014
  -4.3249999999999997E-002    -1.8003334982602621E-014
  -4.3199999999999995E-002    -1.8275926911229599E-014
  -4.3149999999999994E-002    -1.8552161193011597E-014
  -4.3099999999999999E-002    -1.8832112279389619E-014
  -4.3049999999999998E-002    -1.9115909831365876E-014
  -4.2999999999999997E-002    -1.9403501198959873E-014
  -4.2949999999999995E-002    -1.9694963093487624E-014
  -4.2899999999999994E-002    -1.9990327005139725E-014
  -4.2849999999999999E-002    -2.0289636209679254E-014
  -4.2799999999999998E-002    -2.0592874486148540E-014
  -4.2749999999999996E-002    -2.0900172416027279E-014
  -4.2699999999999995E-002    -2.1211539652113766E-014
  -4.2649999999999993E-002    -2.1527011053292833E-014
  -4.2599999999999999E-002    -2.1846651517384670E-014
  -4.2549999999999998E-002    -2.2170495202599926E-014
  -4.2499999999999996E-002    -2.2498648213156154E-014
  -4.2449999999999995E-002    -2.2831114082712038E-014
  -4.2400000000000000E-002    -2.3167823405219512E-014
  -4.2349999999999999E-002    -2.3508941117219427E-014
  -4.2299999999999997E-002    -2.3854492052590251E-014
  -4.2249999999999996E-002    -2.4204590754819560E-014
  -4.2199999999999994E-002    -2.4559206695256986E-014
  -4.2149999999999993E-002    -2.4918475873592139E-014
  -4.2099999999999999E-002    -2.5282293915963949E-014
  -4.2049999999999997E-002    -2.5650746070537769E-014
  -4.1999999999999996E-002    -2.6023913436175112E-014
  -4.1949999999999994E-002    -2.6401853870074373E-014
  -4.1899999999999993E-002    -2.6784754217992118E-014
  -4.1849999999999998E-002    -2.7172547647409598E-014
  -4.1799999999999997E-002    -2.7565252460826542E-014
  -4.1749999999999995E-002    -2.7962893469811049E-014
  -4.1699999999999994E-002    -2.8365532786378284E-014
  -4.1650000000000000E-002    -2.8773265436601788E-014
  -4.1599999999999998E-002    -2.9186174922651286E-014
  -4.1549999999999997E-002    -2.9604229054637084E-014
  -4.1499999999999995E-002    -3.0027516958843484E-014
  -4.1449999999999994E-002    -3.0456216546956933E-014
  -4.1399999999999999E-002    -3.0890240996529784E-014
  -4.1349999999999998E-002    -3.1329687970017748E-014
  -4.1299999999999996E-002    -3.1774572318254059E-014
  -4.1249999999999995E-002    -3.2225050443223904E-014
  -4.1199999999999994E-002    -3.2681070868918494E-014
  -4.1149999999999999E-002    -3.3142627602783024E-014
  -4.1099999999999998E-002    -3.3609876419766581E-014
  -4.1049999999999996E-002    -3.4082925250278096E-014
  -4.0999999999999995E-002    -3.4561866059641934E-014
  -4.0949999999999993E-002    -3.5046680322640662E-014
  -4.0899999999999992E-002    -3.5537461833031407E-014
  -4.0849999999999997E-002    -3.6034193625940417E-014
  -4.0799999999999996E-002    -3.6536965120685412E-014
  -4.0749999999999995E-002    -3.7045656338708565E-014
  -4.0700000000000000E-002    -3.7560593052197065E-014
  -4.0649999999999999E-002    -3.8081880711421039E-014
  -4.0599999999999997E-002    -3.8609454285076594E-014
  -4.0549999999999996E-002    -3.9143338108774903E-014
  -4.0499999999999994E-002    -3.9683722774970522E-014
  -4.0450000000000000E-002    -4.0230519304617014E-014
  -4.0399999999999991E-002    -4.0783901001800454E-014
  -4.0349999999999997E-002    -4.1343914003196363E-014
  -4.0299999999999996E-002    -4.1910686720026680E-014
  -4.0249999999999994E-002    -4.2484137804675779E-014
  -4.0200000000000000E-002    -4.3064297623748807E-014
  -4.0149999999999998E-002    -4.3651320151342571E-014
  -4.0099999999999997E-002    -4.4245309214269105E-014
  -4.0049999999999995E-002    -4.4846283701069540E-014
  -3.9999999999999994E-002    -4.5454362057624524E-014
  -3.9949999999999992E-002    -4.6069709878023413E-014
  -3.9899999999999998E-002    -4.6692133637699002E-014
  -3.9849999999999997E-002    -4.7321845220600840E-014
  -3.9799999999999995E-002    -4.7959119792240946E-014
  -3.9749999999999994E-002    -4.8603708060971511E-014
  -3.9699999999999999E-002    -4.9255749144575231E-014
  -3.9649999999999991E-002    -4.9915356241723182E-014
  -3.9599999999999996E-002    -5.0582630301537680E-014
  -3.9549999999999995E-002    -5.1257607435342694E-014
  -3.9499999999999993E-002    -5.1940361975455573E-014
  -3.9449999999999999E-002    -5.2630992761009316E-014
  -3.9399999999999998E-002    -5.3329527019468981E-014
  -3.9349999999999996E-002    -5.4035904028857846E-014
  -3.9299999999999995E-002    -5.4750271758962138E-014
  -3.9250000000000000E-002    -5.5472856113113635E-014
  -3.9199999999999999E-002    -5.6203931081614131E-014
  -3.9149999999999997E-002    -5.6943267831202914E-014
  -3.9099999999999996E-002    -5.7690921397216706E-014
  -3.9049999999999994E-002    -5.8447024960633359E-014
  -3.8999999999999993E-002    -5.9211639507007968E-014
  -3.8949999999999999E-002    -5.9984585466188764E-014
  -3.8899999999999997E-002    -6.0766232448074622E-014
  -3.8849999999999996E-002    -6.1556607097333714E-014
  -3.8799999999999994E-002    -6.2355869007290026E-014
  -3.8749999999999993E-002    -6.3163977729115928E-014
  -3.8699999999999991E-002    -6.3980989361784398E-014
  -3.8649999999999997E-002    -6.4807310483938002E-014
  -3.8599999999999995E-002    -6.5642707611059316E-014
  -3.8549999999999994E-002    -6.6487213038066924E-014
  -3.8500000000000000E-002    -6.7340951401904821E-014
  -3.8449999999999998E-002    -6.8204006117014894E-014
  -3.8399999999999997E-002    -6.9076440863958347E-014
  -3.8349999999999995E-002    -6.9958447295462697E-014
  -3.8300000000000001E-002    -7.0850038593367467E-014
  -3.8249999999999992E-002    -7.1751289187124293E-014
  -3.8199999999999998E-002    -7.2662255575600861E-014
  -3.8149999999999996E-002    -7.3583224181454531E-014
  -3.8099999999999995E-002    -7.4514183789302958E-014
  -3.8049999999999994E-002    -7.5454719839147316E-014
  -3.7999999999999999E-002    -7.6405294301440325E-014
  -3.7949999999999998E-002    -7.7366006334102904E-014
  -3.7899999999999996E-002    -7.8336898165179548E-014
  -3.7849999999999995E-002    -7.9318077992275451E-014
  -3.7799999999999993E-002    -8.0309622241081237E-014
  -3.7749999999999999E-002    -8.1311614938938154E-014
  -3.7699999999999997E-002    -8.2324049524310222E-014
  -3.7649999999999996E-002    -8.3347309790168652E-014
  -3.7599999999999995E-002    -8.4381301308750504E-014
  -3.7550000000000000E-002    -8.5426055337805391E-014
  -3.7499999999999992E-002    -8.6481623850857641E-014
  -3.7449999999999997E-002    -8.7548091030955318E-014
  -3.7399999999999996E-002    -8.8625169213058067E-014
  -3.7349999999999994E-002    -8.9713327257725885E-014
  -3.7299999999999993E-002    -9.0812636909677526E-014
  -3.7249999999999998E-002    -9.1923244245438001E-014
  -3.7199999999999997E-002    -9.3045069406045542E-014
  -3.7149999999999996E-002    -9.4178216514776234E-014
  -3.7099999999999994E-002    -9.5322894474522681E-014
  -3.7050000000000000E-002    -9.6479056092711719E-014
  -3.6999999999999991E-002    -9.7646726108393845E-014
  -3.6949999999999997E-002    -9.8826517814700905E-014
  -3.6899999999999995E-002    -1.0001829715819178E-013
  -3.6849999999999994E-002    -1.0122198421229304E-013
  -3.6799999999999999E-002    -1.0243725937254046E-013
  -3.6749999999999998E-002    -1.0366449900975440E-013
  -3.6699999999999997E-002    -1.0490376409640324E-013
  -3.6649999999999995E-002    -1.0615521756011459E-013
  -3.6599999999999994E-002    -1.0741893722611450E-013
  -3.6549999999999992E-002    -1.0869500558141931E-013
  -3.6499999999999998E-002    -1.0998318887917169E-013
  -3.6449999999999996E-002    -1.1128406602957915E-013
  -3.6399999999999995E-002    -1.1259739342502378E-013
  -3.6349999999999993E-002    -1.1392334219509855E-013
  -3.6299999999999999E-002    -1.1526203328909237E-013
  -3.6249999999999991E-002    -1.1661350375304440E-013
  -3.6199999999999996E-002    -1.1797747824877899E-013
  -3.6149999999999995E-002    -1.1935431279571662E-013
  -3.6099999999999993E-002    -1.2074414060802966E-013
  -3.6049999999999999E-002    -1.2214760863518304E-013
  -3.5999999999999997E-002    -1.2356432489640242E-013
  -3.5949999999999996E-002    -1.2499420283505871E-013
  -3.5899999999999994E-002    -1.2643750010487103E-013
  -3.5850000000000000E-002    -1.2789394241419462E-013
  -3.5799999999999998E-002    -1.2936370907293043E-013
  -3.5749999999999997E-002    -1.3084696758413597E-013
  -3.5699999999999996E-002    -1.3234383383546765E-013
  -3.5649999999999994E-002    -1.3385460999211442E-013
  -3.5599999999999993E-002    -1.3537898854391140E-013
  -3.5549999999999998E-002    -1.3691724616968978E-013
  -3.5499999999999997E-002    -1.3846929541628427E-013
  -3.5449999999999995E-002    -1.4003533231905052E-013
  -3.5399999999999994E-002    -1.4161525469688522E-013
  -3.5349999999999993E-002    -1.4320952356625195E-013
  -3.5299999999999991E-002    -1.4481805748889514E-013
  -3.5249999999999997E-002    -1.4644095986544939E-013
  -3.5199999999999995E-002    -1.4807878980636649E-013
  -3.5149999999999994E-002    -1.4973100098302106E-013
  -3.5099999999999999E-002    -1.5139771568299083E-013
  -3.5049999999999998E-002    -1.5307896998062622E-013
  -3.4999999999999996E-002    -1.5477486379020913E-013
  -3.4949999999999995E-002    -1.5648555378070033E-013
  -3.4900000000000000E-002    -1.5821108303103967E-013
  -3.4849999999999992E-002    -1.5995077766180068E-013
  -3.4799999999999998E-002    -1.6170528242002762E-013
  -3.4749999999999996E-002    -1.6347491417381291E-013
  -3.4699999999999995E-002    -1.6525964888298189E-013
  -3.4649999999999993E-002    -1.6705946426165660E-013
  -3.4599999999999999E-002    -1.6887450867770635E-013
  -3.4549999999999997E-002    -1.7070497821661658E-013
  -3.4499999999999996E-002    -1.7255132686476377E-013
  -3.4449999999999995E-002    -1.7441306152656492E-013
  -3.4399999999999993E-002    -1.7629019052416319E-013
  -3.4349999999999999E-002    -1.7818273535803577E-013
  -3.4299999999999997E-002    -1.8009109465311949E-013
  -3.4249999999999996E-002    -1.8201507809253796E-013
  -3.4199999999999994E-002    -1.8395484030376858E-013
  -3.4150000000000000E-002    -1.8591053201241724E-013
  -3.4099999999999991E-002    -1.8788207099425850E-013
  -3.4049999999999997E-002    -1.8986937888905937E-013
  -3.3999999999999996E-002    -1.9187303902380339E-013
  -3.3949999999999994E-002    -1.9389250030890702E-013
  -3.3899999999999993E-002    -1.9592813102294383E-013
  -3.3849999999999998E-002    -1.9797956034535506E-013
  -3.3799999999999997E-002    -2.0004698886655422E-013
  -3.3749999999999995E-002    -2.0213071968355161E-013
  -3.3699999999999994E-002    -2.0423080094256810E-013
  -3.3649999999999999E-002    -2.0634742200382164E-013
  -3.3599999999999991E-002    -2.0848035641349064E-013
  -3.3549999999999996E-002    -2.1062995980390227E-013
  -3.3499999999999995E-002    -2.1279626881583276E-013
  -3.3449999999999994E-002    -2.1497904915322889E-013
  -3.3399999999999999E-002    -2.1717863148212386E-013
  -3.3349999999999998E-002    -2.1939467732205255E-013
  -3.3299999999999996E-002    -2.2162795479530651E-013
  -3.3249999999999995E-002    -2.2387791445864924E-013
  -3.3199999999999993E-002    -2.2614560574744632E-013
  -3.3149999999999992E-002    -2.2843103859936131E-013
  -3.3099999999999997E-002    -2.3073322513783145E-013
  -3.3049999999999996E-002    -2.3305229736420419E-013
  -3.2999999999999995E-002    -2.3538846944276749E-013
  -3.2949999999999993E-002    -2.3774181726012038E-013
  -3.2899999999999999E-002    -2.4011217496591557E-013
  -3.2849999999999990E-002    -2.4250004051259416E-013
  -3.2799999999999996E-002    -2.4490496860805758E-013