  -1.2000000000000000          8.0788371548123905E-009
  -1.1996000000000000          9.5142445033502554E-009
  -1.1992000000000000          1.0949008810712257E-008
  -1.1987999999999999          1.2383485348266277E-008
  -1.1983999999999999          1.3817135879889975E-008
  -1.1980000000000000          1.5248959428504349E-008
  -1.1976000000000000          1.6681067194213028E-008
  -1.1972000000000000          1.8113091471150256E-008
  -1.1967999999999999          1.9543904272723012E-008
  -1.1963999999999999          2.0973255132616941E-008
  -1.1960000000000000          2.2403167321272122E-008
  -1.1956000000000000          2.3832273043922214E-008
  -1.1952000000000000          2.5259238256580829E-008
  -1.1947999999999999          2.6684439546897920E-008
  -1.1943999999999999          2.8107987048997529E-008
  -1.1940000000000000          2.9529282130624779E-008
  -1.1936000000000000          3.0950545237828919E-008
  -1.1932000000000000          3.2371431757383107E-008
  -1.1927999999999999          3.3789103071057980E-008
  -1.1923999999999999          3.5205573567509418E-008
  -1.1919999999999999          3.6621322863084060E-008
  -1.1916000000000000          3.8033672211668090E-008
  -1.1912000000000000          3.9445314570230039E-008
  -1.1907999999999999          4.0856782845821726E-008
  -1.1903999999999999          4.2266762534381996E-008
  -1.1899999999999999          4.3672415017681487E-008
  -1.1896000000000000          4.5075744026235043E-008
  -1.1892000000000000          4.6477808268718945E-008
  -1.1887999999999999          4.7876245190536793E-008
  -1.1883999999999999          4.9275126201564490E-008
  -1.1879999999999999          5.0670276863229446E-008
  -1.1876000000000000          5.2067012035195148E-008
  -1.1872000000000000          5.3459984883375000E-008
  -1.1867999999999999          5.4851302166980531E-008
  -1.1863999999999999          5.6241038492998996E-008
  -1.1859999999999999          5.7621736715418592E-008
  -1.1856000000000000          5.8999606977749863E-008
  -1.1852000000000000          6.0373508858901914E-008
  -1.1847999999999999          6.1742099433104158E-008
  -1.1843999999999999          6.3110690007306403E-008
  -1.1839999999999999          6.4481092465484835E-008
  -1.1836000000000000          6.5847515884343011E-008
  -1.1832000000000000          6.7215836452305666E-008
  -1.1827999999999999          6.8582622247959080E-008
  -1.1823999999999999          6.9945926384207269E-008
  -1.1819999999999999          7.1298423165444547E-008
  -1.1816000000000000          7.2646201942916377E-008
  -1.1812000000000000          7.3989369298033125E-008
  -1.1807999999999998          7.5323939086047176E-008
  -1.1803999999999999          7.6658231762394280E-008
  -1.1799999999999999          7.7995025549171260E-008
  -1.1796000000000000          7.9329460334065516E-008
  -1.1792000000000000          8.0666922031014110E-008
  -1.1787999999999998          8.2000447321206593E-008
  -1.1783999999999999          8.3328494326906366E-008
  -1.1779999999999999          8.4650707776745548E-008
  -1.1776000000000000          8.5964842355679139E-008
  -1.1772000000000000          8.7271494919605175E-008
  -1.1767999999999998          8.8569635181556805E-008
  -1.1763999999999999          8.9865601182737009E-008
  -1.1759999999999999          9.1161552973062498E-008
  -1.1756000000000000          9.2453703359751671E-008
  -1.1752000000000000          9.3744013440755225E-008
  -1.1747999999999998          9.5039979441935429E-008
  -1.1743999999999999          9.6325436516053742E-008
  -1.1739999999999999          9.7608435112306324E-008
  -1.1736000000000000          9.8877798393459670E-008
  -1.1732000000000000          1.0013470586045514E-007
  -1.1728000000000001          1.0139194728253642E-007
  -1.1723999999999999          1.0264179195473844E-007
  -1.1719999999999999          1.0388978921582748E-007
  -1.1716000000000000          1.0513741699469392E-007
  -1.1712000000000000          1.0638252234684842E-007
  -1.1708000000000001          1.0763104540956192E-007
  -1.1703999999999999          1.0888187063073929E-007
  -1.1699999999999999          1.1012331668780462E-007
  -1.1696000000000000          1.1134392252643011E-007
  -1.1692000000000000          1.1255736609427913E-007
  -1.1688000000000001          1.1375843200767122E-007
  -1.1683999999999999          1.1495353646751028E-007
  -1.1679999999999999          1.1615282602406296E-007
  -1.1676000000000000          1.1734969973531406E-007
  -1.1672000000000000          1.1854267256694584E-007
  -1.1668000000000001          1.1973482116900414E-007
  -1.1663999999999999          1.2092243650840828E-007
  -1.1659999999999999          1.2210661282097135E-007
  -1.1656000000000000          1.2328523268934077E-007
  -1.1652000000000000          1.2444725427940284E-007
  -1.1648000000000001          1.2560212780954316E-007
  -1.1643999999999999          1.2673989147060638E-007
  -1.1639999999999999          1.2787151604243263E-007
  -1.1636000000000000          1.2899899104468204E-007
  -1.1632000000000000          1.3012655131205975E-007
  -1.1628000000000001          1.3125489317644679E-007
  -1.1623999999999999          1.3238643248314474E-007
  -1.1619999999999999          1.3351352379231685E-007
  -1.1616000000000000          1.3463889558806841E-007
  -1.1612000000000000          1.3575811408372829E-007
  -1.1608000000000001          1.3686648969724047E-007
  -1.1603999999999999          1.3796267239740700E-007
  -1.1599999999999999          1.3904416107379802E-007
  -1.1596000000000000          1.4011014570769476E-007
  -1.1592000000000000          1.4117262026047683E-007
  -1.1588000000000001          1.4223294897419692E-007
  -1.1583999999999999          1.4330038311527460E-007
  -1.1579999999999999          1.4435862283335155E-007
  -1.1576000000000000          1.4540847814714652E-007
  -1.1572000000000000          1.4644265888819064E-007
  -1.1568000000000001          1.4748108867479459E-007
  -1.1563999999999999          1.4850240859232144E-007
  -1.1559999999999999          1.4949908688777214E-007
  -1.1556000000000000          1.5049026558244805E-007
  -1.1552000000000000          1.5148151533139753E-007
  -1.1548000000000000          1.5246732232299109E-007
  -1.1543999999999999          1.5345574411185225E-007
  -1.1539999999999999          1.5444354062310595E-007
  -1.1536000000000000          1.5543542986051762E-007
  -1.1532000000000000          1.5642790174297261E-007
  -1.1528000000000000          1.5741382242140389E-007
  -1.1523999999999999          1.5838844547033659E-007
  -1.1519999999999999          1.5934512020976399E-007
  -1.1516000000000000          1.6028876359541755E-007
  -1.1512000000000000          1.6120630164095928E-007
  -1.1508000000000000          1.6211492948059458E-007
  -1.1503999999999999          1.6301439131893858E-007
  -1.1499999999999999          1.6390998780480004E-007
  -1.1496000000000000          1.6481217812724935E-007
  -1.1492000000000000          1.6571993910474703E-007
  -1.1488000000000000          1.6662629320762790E-007
  -1.1483999999999999          1.6752115072904417E-007
  -1.1479999999999999          1.6841370609199657E-007
  -1.1476000000000000          1.6929024582168495E-007
  -1.1472000000000000          1.7014427555750444E-007
  -1.1468000000000000          1.7096948567996151E-007
  -1.1463999999999999          1.7178379607685201E-007
  -1.1459999999999999          1.7259527851365419E-007
  -1.1456000000000000          1.7339588964659924E-007
  -1.1452000000000000          1.7419708342458762E-007
  -1.1448000000000000          1.7500502735856571E-007
  -1.1443999999999999          1.7581659506049618E-007
  -1.1439999999999999          1.7662884488345298E-007
  -1.1435999999999999          1.7743016655913380E-007
  -1.1432000000000000          1.7822119957600080E-007
  -1.1428000000000000          1.7899751014738285E-007
  -1.1423999999999999          1.7976125832319667E-007
  -1.1419999999999999          1.8051231620574981E-007
  -1.1415999999999999          1.8124657685802958E-007
  -1.1412000000000000          1.8197594897628733E-007
  -1.1408000000000000          1.8269861357111949E-007
  -1.1403999999999999          1.8341657437304093E-007
  -1.1399999999999999          1.8412923452615360E-007
  -1.1395999999999999          1.8484148256447952E-007
  -1.1392000000000000          1.8553660652287363E-007
  -1.1388000000000000          1.8622073127971817E-007
  -1.1383999999999999          1.8688925251808541E-007
  -1.1379999999999999          1.8754116126729059E-007
  -1.1375999999999999          1.8818327873759699E-007
  -1.1372000000000000          1.8882685992593906E-007
  -1.1368000000000000          1.8946529678487423E-007
  -1.1363999999999999          1.9010235519090202E-007
  -1.1359999999999999          1.9073063128871581E-007
  -1.1355999999999999          1.9136030005029170E-007
  -1.1352000000000000          1.9197634060219571E-007
  -1.1348000000000000          1.9257498706792830E-007
  -1.1343999999999999          1.9316748023356922E-007
  -1.1339999999999999          1.9374759574475320E-007
  -1.1335999999999999          1.9430166275924421E-007
  -1.1332000000000000          1.9484598112740059E-007
  -1.1328000000000000          1.9538275353170320E-007
  -1.1323999999999999          1.9592954458858003E-007
  -1.1319999999999999          1.9646540749818087E-007
  -1.1315999999999999          1.9700759423812997E-007
  -1.1312000000000000          1.9755113100927701E-007
  -1.1308000000000000          1.9805409579021216E-007
  -1.1303999999999998          1.9855586685935123E-007
  -1.1299999999999999          1.9905259307506640E-007
  -1.1295999999999999          1.9951730223510822E-007
  -1.1292000000000000          1.9994797639810713E-007
  -1.1288000000000000          2.0038069692418503E-007
  -1.1284000000000001          2.0082121920950158E-007
  -1.1279999999999999          2.0127787081491988E-007
  -1.1275999999999999          2.0172171844023978E-007
  -1.1272000000000000          2.0216988616539311E-007
  -1.1268000000000000          2.0260591782061965E-007
  -1.1263999999999998          2.0303293979395676E-007
  -1.1259999999999999          2.0343466644590080E-007
  -1.1255999999999999          2.0382626075843291E-007
  -1.1252000000000000          2.0418539747879549E-007
  -1.1248000000000000          2.0452853277674876E-007
  -1.1244000000000001          2.0486864116264769E-007
  -1.1239999999999999          2.0518980647921126E-007
  -1.1235999999999999          2.0551181023620302E-007
  -1.1232000000000000          2.0584798221534584E-007
  -1.1228000000000000          2.0619226859253104E-007
  -1.1223999999999998          2.0652342413995939E-007
  -1.1219999999999999          2.0684747426003014E-007
  -1.1215999999999999          2.0715404502880119E-007
  -1.1212000000000000          2.0743688367019786E-007
  -1.1208000000000000          2.0770630726474337E-007
  -1.1204000000000001          2.0794665545054158E-007
  -1.1199999999999999          2.0818021084778593E-007
  -1.1195999999999999          2.0839132730543497E-007
  -1.1192000000000000          2.0859793892213929E-007
  -1.1188000000000000          2.0881219597868039E-007
  -1.1183999999999998          2.0904008124489337E-007
  -1.1179999999999999          2.0925922683545650E-007
  -1.1175999999999999          2.0948012036114960E-007
  -1.1172000000000000          2.0969321212760406E-007
  -1.1168000000000000          2.0987806692573940E-007
  -1.1164000000000001          2.1005428152420791E-007
  -1.1159999999999999          2.1020208862410072E-007
  -1.1155999999999999          2.1033379482560122E-007
  -1.1152000000000000          2.1044371578682330E-007
  -1.1148000000000000          2.1054637500128592E-007
  -1.1143999999999998          2.1065069688575022E-007
  -1.1139999999999999          2.1076992595681077E-007
  -1.1135999999999999          2.1089743995617027E-007
  -1.1132000000000000          2.1102458447330719E-007
  -1.1128000000000000          2.1113524439897446E-007
  -1.1124000000000001          2.1122991711308714E-007
  -1.1119999999999999          2.1129166327682469E-007
  -1.1115999999999999          2.1132188976480393E-007
  -1.1112000000000000          2.1133023153652175E-007
  -1.1108000000000000          2.1131243954641832E-007
  -1.1104000000000001          2.1128474259057839E-007
  -1.1099999999999999          2.1124326110566471E-007
  -1.1095999999999999          2.1122214377555792E-007
  -1.1092000000000000          2.1121469728768716E-007
  -1.1088000000000000          2.1123052817983989E-007
  -1.1084000000000001          2.1125023863532988E-007
  -1.1079999999999999          2.1126140836713603E-007
  -1.1075999999999999          2.1125923410636460E-007
  -1.1072000000000000          2.1121908844179416E-007
  -1.1068000000000000          2.1112687420554721E-007
  -1.1064000000000001          2.1102813718698599E-007
  -1.1059999999999999          2.1090363588882610E-007
  -1.1055999999999999          2.1075742040466139E-007
  -1.1052000000000000          2.1062363941837248E-007
  -1.1048000000000000          2.1051978649211378E-007
  -1.1044000000000000          2.1041191189397068E-007
  -1.1039999999999999          2.1031441121976968E-007
  -1.1035999999999999          2.1019705798153154E-007
  -1.1032000000000000          2.1008341377637407E-007
  -1.1028000000000000          2.0994298211007845E-007
  -1.1024000000000000          2.0976798964511545E-007
  -1.1019999999999999          2.0956612445388600E-007
  -1.1015999999999999          2.0933924815835780E-007
  -1.1012000000000000          2.0909001818836259E-007
  -1.1008000000000000          2.0884301932255767E-007
  -1.1004000000000000          2.0859435778675106E-007
  -1.0999999999999999          2.0834717417983484E-007
  -1.0995999999999999          2.0811020817745884E-007
  -1.0992000000000000          2.0786754362234205E-007
  -1.0988000000000000          2.0762287533671042E-007
  -1.0984000000000000          2.0736946737542894E-007
  -1.0979999999999999          2.0709759951387241E-007
  -1.0975999999999999          2.0679912893228902E-007
  -1.0972000000000000          2.0650176679737342E-007
  -1.0968000000000000          2.0620053930997528E-007
  -1.0964000000000000          2.0590370297668414E-007
  -1.0959999999999999          2.0559116364893271E-007
  -1.0955999999999999          2.0526663035980164E-007
  -1.0952000000000000          2.0493560271006572E-007
  -1.0948000000000000          2.0456668892165908E-007
  -1.0944000000000000          2.0417303403519327E-007
  -1.0939999999999999          2.0375587439502851E-007
  -1.0935999999999999          2.0332565497938049E-007
  -1.0931999999999999          2.0289081703595002E-007
  -1.0928000000000000          2.0247274790108349E-007
  -1.0924000000000000          2.0207657769333309E-007
  -1.0919999999999999          2.0170790548945661E-007
  -1.0915999999999999          2.0134031331053848E-007
  -1.0911999999999999          2.0098615038932621E-007
  -1.0908000000000000          2.0060421945800044E-007
  -1.0904000000000000          2.0016477719764225E-007
  -1.0899999999999999          1.9967924913544266E-007
  -1.0895999999999999          1.9913474602617498E-007
  -1.0891999999999999          1.9856315702782013E-007
  -1.0888000000000000          1.9796165418028977E-007
  -1.0884000000000000          1.9736164347250451E-007
  -1.0879999999999999          1.9679170293329662E-007
  -1.0875999999999999          1.9624789615590998E-007
  -1.0871999999999999          1.9574989096327045E-007
  -1.0868000000000000          1.9528394545886840E-007
  -1.0864000000000000          1.9483192659208726E-007
  -1.0859999999999999          1.9437624132478959E-007
  -1.0855999999999999          1.9388590999369626E-007
  -1.0851999999999999          1.9334972023443697E-007
  -1.0848000000000000          1.9275229590220988E-007
  -1.0844000000000000          1.9211005053421104E-007
  -1.0839999999999999          1.9143665497267648E-007
  -1.0835999999999999          1.9074758483839105E-007
  -1.0831999999999999          1.9006704121693474E-007
  -1.0828000000000000          1.8938956714009691E-007
  -1.0824000000000000          1.8873905105465383E-007
  -1.0819999999999999          1.8809795676588692E-007
  -1.0815999999999999          1.8746725061191682E-007
  -1.0811999999999999          1.8683935820718034E-007
  -1.0808000000000000          1.8619434172251204E-007
  -1.0804000000000000          1.8552806579918979E-007
  -1.0799999999999998          1.8484811903363152E-007
  -1.0795999999999999          1.8415269664728839E-007
  -1.0791999999999999          1.8345772900829616E-007
  -1.0788000000000000          1.8274826629749441E-007
  -1.0784000000000000          1.8202878493411845E-007
  -1.0779999999999998          1.8129185264115222E-007
  -1.0775999999999999          1.8053005135243438E-007
  -1.0771999999999999          1.7975673927139724E-007
  -1.0768000000000000          1.7895860082717263E-007
  -1.0764000000000000          1.7814615205224982E-007
  -1.0760000000000001          1.7733295010202710E-007
  -1.0755999999999999          1.7652891415309568E-007
  -1.0751999999999999          1.7573869115494745E-007
  -1.0748000000000000          1.7497193027793401E-007
  -1.0744000000000000          1.7422529197119729E-007
  -1.0739999999999998          1.7348456538002210E-007
  -1.0735999999999999          1.7273595176447998E-007
  -1.0731999999999999          1.7196151702592033E-007
  -1.0728000000000000          1.7115387151989125E-007
  -1.0724000000000000          1.7028682464115263E-007
  -1.0720000000000001          1.6937745783707214E-007
  -1.0715999999999999          1.6841931937960908E-007
  -1.0711999999999999          1.6744921538247581E-007
  -1.0708000000000000          1.6648293410526094E-007
  -1.0704000000000000          1.6554216131225985E-007
  -1.0699999999999998          1.6463262397792278E-007
  -1.0695999999999999          1.6376087330627342E-007
  -1.0691999999999999          1.6291731697037903E-007
  -1.0688000000000000          1.6207967235004617E-007
  -1.0684000000000000          1.6122989165978652E-007
  -1.0680000000000001          1.6035421879223577E-007
  -1.0675999999999999          1.5943369646720384E-007
  -1.0671999999999999          1.5847514589495404E-007
  -1.0668000000000000          1.5748337034438009E-007
  -1.0664000000000000          1.5646006090719311E-007
  -1.0659999999999998          1.5543899678505113E-007
  -1.0655999999999999          1.5442343226368394E-007
  -1.0651999999999999          1.5342845927079907E-007
  -1.0648000000000000          1.5244725659613323E-007
  -1.0644000000000000          1.5147092824463471E-007
  -1.0640000000000001          1.5050078161493730E-007
  -1.0635999999999999          1.4951368143556465E-007
  -1.0631999999999999          1.4851032403839781E-007
  -1.0628000000000000          1.4748174237411149E-007
  -1.0624000000000000          1.4643674717262911E-007
  -1.0619999999999998          1.4538501602601173E-007
  -1.0615999999999999          1.4433500439281488E-007
  -1.0611999999999999          1.4329522457501298E-007
  -1.0608000000000000          1.4226930034055840E-007
  -1.0604000000000000          1.4123476432814641E-007
  -1.0600000000000001          1.4019083494076767E-007
  -1.0595999999999999          1.3912473662003322E-007
  -1.0591999999999999          1.3803158083192102E-007
  -1.0588000000000000          1.3690976174984826E-007
  -1.0584000000000000          1.3575741775184724E-007
  -1.0579999999999998          1.3459622039135866E-007
  -1.0575999999999999          1.3343455407266447E-007
  -1.0571999999999999          1.3228972761680780E-007
  -1.0568000000000000          1.3115480612668762E-007
  -1.0564000000000000          1.3004539312078123E-007
  -1.0560000000000000          1.2894976464394858E-007
  -1.0555999999999999          1.2785626779532322E-007
  -1.0551999999999999          1.2675512550686108E-007
  -1.0548000000000000          1.2563229745410354E-007
  -1.0544000000000000          1.2448063557712885E-007
  -1.0539999999999998          1.2329439869063208E-007
  -1.0535999999999999          1.2209861210976669E-007
  -1.0531999999999999          1.2089553536043240E-007
  -1.0528000000000000          1.1969660818067496E-007
  -1.0524000000000000          1.1850001158109080E-007
  -1.0520000000000000          1.1731317783869599E-007
  -1.0515999999999999          1.1613532535648119E-007
  -1.0511999999999999          1.1496464935589756E-007
  -1.0508000000000000          1.1379011510825876E-007
  -1.0504000000000000          1.1260196686180279E-007
  -1.0500000000000000          1.1139735534015927E-007
  -1.0495999999999999          1.1017231571486263E-007
  -1.0491999999999999          1.0892685509134026E-007
  -1.0488000000000000          1.0768251001991302E-007
  -1.0484000000000000          1.0642482806133557E-007
  -1.0480000000000000          1.0517148041344626E-007
  -1.0475999999999999          1.0391781302132586E-007
  -1.0471999999999999          1.0265662098163375E-007
  -1.0468000000000000          1.0139280703924669E-007
  -1.0464000000000000          1.0012016815608149E-007
  -1.0460000000000000          9.8833361050765234E-008
  -1.0455999999999999          9.7531440701459360E-008
  -1.0451999999999999          9.6234138879935927E-008
  -1.0448000000000000          9.4933959360332665E-008
  -1.0444000000000000          9.3644331400355441E-008
  -1.0440000000000000          9.2364530246413779E-008
  -1.0435999999999999          9.1101128418813460E-008
  -1.0431999999999999          8.9846736273102579E-008
  -1.0427999999999999          8.8594418912180117E-008
  -1.0424000000000000          8.7335365606122650E-008
  -1.0420000000000000          8.6051429093458864E-008
  -1.0415999999999999          8.4741103023588948E-008
  -1.0411999999999999          8.3403527639802633E-008
  -1.0407999999999999          8.2042610927146598E-008
  -1.0404000000000000          8.0668208113365836E-008
  -1.0400000000000000          7.9294920851680217E-008
  -1.0395999999999999          7.7931716191415035E-008
  -1.0391999999999999          7.6589202535615186E-008
  -1.0387999999999999          7.5270769173130248E-008
  -1.0384000000000000          7.3968578817584785E-008
  -1.0380000000000000          7.2669763540034182E-008
  -1.0375999999999999          7.1359963271788729E-008
  -1.0371999999999999          7.0031241250489984E-008
  -1.0367999999999999          6.8672562747451593E-008
  -1.0364000000000000          6.7287565741480648E-008
  -1.0360000000000000          6.5885465971859958E-008
  -1.0355999999999999          6.4470455640730506E-008
  -1.0351999999999999          6.3055871635242511E-008
  -1.0347999999999999          6.1652194460748433E-008
  -1.0344000000000000          6.0268590118539578E-008
  -1.0340000000000000          5.8906049815732331E-008
  -1.0335999999999999          5.7560448851745605E-008
  -1.0331999999999999          5.6216428845345945E-008
  -1.0327999999999999          5.4867399512659176E-008
  -1.0324000000000000          5.3500933461236855E-008
  -1.0320000000000000          5.2111683856992386E-008
  -1.0315999999999999          5.0698496067980159E-008
  -1.0311999999999999          4.9274046176606134E-008
  -1.0307999999999999          4.7846985040678192E-008
  -1.0304000000000000          4.6424663224797769E-008
  -1.0300000000000000          4.5015507765810980E-008
  -1.0295999999999998          4.3620016043632859E-008
  -1.0291999999999999          4.2237051189886188E-008
  -1.0287999999999999          4.0859649885760518E-008
  -1.0284000000000000          3.9481928837403757E-008
  -1.0280000000000000          3.8096853671731878E-008
  -1.0276000000000001          3.6700082972629389E-008
  -1.0271999999999999          3.5286657151800682E-008
  -1.0267999999999999          3.3861454085126752E-008
  -1.0264000000000000          3.2426896723336540E-008
  -1.0260000000000000          3.0988470456350115E-008
  -1.0255999999999998          2.9551113556181008E-008
  -1.0251999999999999          2.8114792272049272E-008
  -1.0247999999999999          2.6681890474833381E-008
  -1.0244000000000000          2.5245869395007503E-008
  -1.0240000000000000          2.3808384597145960E-008
  -1.0236000000000001          2.2367091290220742E-008
  -1.0231999999999999          2.0924010968315088E-008
  -1.0227999999999999          1.9482190083408568E-008
  -1.0224000000000000          1.8045584582182528E-008
  -1.0220000000000000          1.6617661913187476E-008
  -1.0215999999999998          1.5199701053347781E-008
  -1.0211999999999999          1.3788658215219129E-008
  -1.0207999999999999          1.2380260372424345E-008
  -1.0204000000000000          1.0968510544273613E-008
  -1.0200000000000000          9.5461807347874128E-009
  -1.0196000000000001          8.1092403902971455E-009
  -1.0191999999999999          6.6569709744612737E-009
  -1.0187999999999999          5.1946535961633344E-009
  -1.0184000000000000          3.7291028043284769E-009
  -1.0180000000000000          2.2702599800084045E-009
  -1.0175999999999998          8.2641854470821841E-010
  -1.0171999999999999         -5.9707028210453927E-010
  -1.0167999999999999         -2.0002017819820139E-009
  -1.0164000000000000         -3.3884655081806159E-009
  -1.0160000000000000         -4.7724970642093467E-009
  -1.0156000000000001         -6.1648472993169889E-009
  -1.0151999999999999         -7.5762036644277941E-009
  -1.0147999999999999         -9.0139895547736160E-009
  -1.0144000000000000         -1.0479590528689187E-008
  -1.0140000000000000         -1.1966506896499141E-008
  -1.0135999999999998         -1.3464518389127988E-008
  -1.0131999999999999         -1.4959908867240301E-008
  -1.0127999999999999         -1.6439651417954337E-008
  -1.0124000000000000         -1.7893958315085001E-008
  -1.0120000000000000         -1.9319170263543128E-008
  -1.0116000000000001         -2.0718472271141763E-008
  -1.0111999999999999         -2.2102437213789017E-008
  -1.0107999999999999         -2.3481847577500048E-008
  -1.0104000000000000         -2.4867846448728415E-008
  -1.0100000000000000         -2.6270614128520720E-008
  -1.0095999999999998         -2.7690559178950025E-008
  -1.0091999999999999         -2.9125011735686712E-008
  -1.0087999999999999         -3.0568351405690919E-008
  -1.0084000000000000         -3.2013808493047691E-008
  -1.0080000000000000         -3.3451492242875247E-008
  -1.0076000000000001         -3.4874634735615473E-008
  -1.0071999999999999         -3.6285165094795957E-008
  -1.0067999999999999         -3.7683498987917119E-008
  -1.0064000000000000         -3.9076251567848885E-008
  -1.0060000000000000         -4.0468293605044892E-008
  -1.0055999999999998         -4.1867352251756529E-008
  -1.0051999999999999         -4.3276337180486735E-008
  -1.0047999999999999         -4.4691535805441163E-008
  -1.0044000000000000         -4.6111388485314819E-008
  -1.0040000000000000         -4.7530541280593752E-008
  -1.0036000000000000         -4.8942780495053739E-008
  -1.0031999999999999         -5.0350060121218121E-008
  -1.0027999999999999         -5.1744990514634992E-008
  -1.0024000000000000         -5.3130605692786048E-008
  -1.0020000000000000         -5.4516839043117216E-008
  -1.0015999999999998         -5.5898471629234336E-008
  -1.0011999999999999         -5.7280473697574052E-008
  -1.0007999999999999         -5.8664092250637623E-008
  -1.0004000000000000         -6.0053139350202400E-008
  -1.0000000000000000         -6.1437773979378107E-008
 -0.99959999999999993         -6.2811992052047572E-008
 -0.99919999999999998         -6.4172517966198939E-008
 -0.99879999999999991         -6.5523678927092988E-008
 -0.99839999999999995         -6.6867251291569119E-008
 -0.99800000000000000         -6.8207008041554218E-008
 -0.99759999999999993         -6.9545293968076294E-008
 -0.99719999999999998         -7.0888503955757187E-008
 -0.99679999999999991         -7.2234861647757498E-008
 -0.99639999999999995         -7.3588488191944634E-008
 -0.99600000000000000         -7.4949831230242125E-008
 -0.99559999999999993         -7.6313185104481818E-008
 -0.99519999999999997         -7.7671636233844765E-008
 -0.99479999999999991         -7.9024907506664022E-008
 -0.99439999999999995         -8.0369005672764615E-008
 -0.99399999999999999         -8.1705699983558588E-008
 -0.99359999999999993         -8.3038969478366198E-008
 -0.99319999999999997         -8.4365915142825543E-008
 -0.99279999999999990         -8.5686821194030927E-008
 -0.99239999999999995         -8.7003996895873570E-008
 -0.99199999999999999         -8.8313974799802963E-008
 -0.99159999999999993         -8.9609528686196427E-008
 -0.99119999999999997         -9.0892960713517823E-008
 -0.99079999999999990         -9.2160625797532703E-008
 -0.99039999999999995         -9.3410854162812029E-008
 -0.98999999999999999         -9.4657529814412555E-008
 -0.98959999999999992         -9.5898577967545862E-008
 -0.98919999999999997         -9.7148898703380837E-008
 -0.98879999999999990         -9.8408726501020283E-008
 -0.98839999999999995         -9.9689685839621234E-008
 -0.98799999999999999         -1.0098956693127548E-007
 -0.98759999999999992         -1.0230385782961093E-007
 -0.98719999999999997         -1.0361414837234406E-007
 -0.98679999999999990         -1.0491038437976385E-007
 -0.98639999999999994         -1.0618293089237341E-007
 -0.98599999999999999         -1.0743652723022024E-007
 -0.98559999999999992         -1.0865717570140987E-007
 -0.98519999999999996         -1.0984778242573157E-007
 -0.98479999999999990         -1.1101887764652929E-007
 -0.98439999999999994         -1.1220023310443139E-007
 -0.98399999999999999         -1.1338531891169623E-007
 -0.98359999999999992         -1.1458559612265162E-007
 -0.98319999999999996         -1.1579857073229505E-007
 -0.98279999999999990         -1.1703465929713275E-007
 -0.98239999999999994         -1.1827696511090835E-007