  -1.2000000000000000         -5.1334996697960378E-008
  -1.1996000000000000         -6.0453970718299388E-008
  -1.1992000000000000         -6.9569779270750587E-008
  -1.1987999999999999         -7.8682887760805897E-008
  -1.1983999999999999         -8.7792315639489971E-008
  -1.1980000000000000         -9.6897665002870781E-008
  -1.1976000000000000         -1.0599796951282769E-007
  -1.1972000000000000         -1.1509401787179740E-007
  -1.1967999999999999         -1.2418398398494901E-007
  -1.1963999999999999         -1.3326808812053059E-007
  -1.1960000000000000         -1.4234619527542236E-007
  -1.1956000000000000         -1.5141830544962431E-007
  -1.1952000000000000         -1.6048318229877623E-007
  -1.1947999999999999         -1.6954146531134029E-007
  -1.1943999999999999         -1.7859120760022051E-007
  -1.1940000000000000         -1.8763302023216966E-007
  -1.1936000000000000         -1.9666595107992180E-007
  -1.1932000000000000         -2.0569018488458823E-007
  -1.1927999999999999         -2.1470297895120893E-007
  -1.1923999999999999         -2.2370673491423076E-007
  -1.1919999999999999         -2.3269961957339547E-007
  -1.1916000000000000         -2.4168139134417288E-007
  -1.1912000000000000         -2.5065321551664965E-007
  -1.1907999999999999         -2.5961222149817331E-007
  -1.1903999999999999         -2.6855926194002677E-007
  -1.1899999999999999         -2.7749695163947763E-007
  -1.1896000000000000         -2.8642128313549620E-007
  -1.1892000000000000         -2.9533140377679956E-007
  -1.1887999999999999         -3.0422745567193488E-007
  -1.1883999999999999         -3.1311279258261493E-007
  -1.1879999999999999         -3.2198195754062908E-007
  -1.1876000000000000         -3.3083560424529423E-007
  -1.1872000000000000         -3.3967418744396127E-007
  -1.1867999999999999         -3.4849594499064551E-007
  -1.1863999999999999         -3.5729888736568682E-007
  -1.1859999999999999         -3.6609006315302395E-007
  -1.1856000000000000         -3.7486688597709872E-007
  -1.1852000000000000         -3.8362620102816436E-007
  -1.1847999999999999         -3.9236508087014954E-007
  -1.1843999999999999         -4.0108375287672970E-007
  -1.1839999999999999         -4.0977994331115042E-007
  -1.1836000000000000         -4.1845615328384156E-007
  -1.1832000000000000         -4.2711315018095775E-007
  -1.1827999999999999         -4.3574863184403512E-007
  -1.1823999999999999         -4.4436961843530298E-007
  -1.1819999999999999         -4.5297576889424818E-007
  -1.1816000000000000         -4.6156003463693196E-007
  -1.1812000000000000         -4.7012778736643668E-007
  -1.1807999999999998         -4.7867268904155935E-007
  -1.1803999999999999         -4.8719294909460586E-007
  -1.1799999999999999         -4.9568558324608603E-007
  -1.1796000000000000         -5.0415741270626313E-007
  -1.1792000000000000         -5.1259388555990881E-007
  -1.1787999999999998         -5.2101040637353435E-007
  -1.1783999999999999         -5.2940208661311772E-007
  -1.1779999999999999         -5.3777324637849233E-007
  -1.1776000000000000         -5.4612320354863186E-007
  -1.1772000000000000         -5.5445497082473594E-007
  -1.1767999999999998         -5.6276763871210278E-007
  -1.1763999999999999         -5.7105376072286163E-007
  -1.1759999999999999         -5.7930918728743563E-007
  -1.1756000000000000         -5.8753067833094974E-007
  -1.1752000000000000         -5.9572028021648293E-007
  -1.1747999999999998         -6.0386855693650432E-007
  -1.1743999999999999         -6.1200017853479949E-007
  -1.1739999999999999         -6.2010605006435071E-007
  -1.1736000000000000         -6.2818395463182242E-007
  -1.1732000000000000         -6.3623974710935727E-007
  -1.1728000000000001         -6.4426751578139374E-007
  -1.1723999999999999         -6.5226618062297348E-007
  -1.1719999999999999         -6.6023665112879826E-007
  -1.1716000000000000         -6.6816414800996426E-007
  -1.1712000000000000         -6.7606470111059025E-007
  -1.1708000000000001         -6.8392517960091936E-007
  -1.1703999999999999         -6.9175337102933554E-007
  -1.1699999999999999         -6.9955262915755156E-007
  -1.1696000000000000         -7.0733420898250188E-007
  -1.1692000000000000         -7.1508941346110078E-007
  -1.1688000000000001         -7.2280602125829319E-007
  -1.1683999999999999         -7.3048869353442569E-007
  -1.1679999999999999         -7.3813646395137766E-007
  -1.1676000000000000         -7.4574018071871251E-007
  -1.1672000000000000         -7.5329938908907934E-007
  -1.1668000000000001         -7.6082284294898272E-007
  -1.1663999999999999         -7.6831508977193153E-007
  -1.1659999999999999         -7.7577203683176776E-007
  -1.1656000000000000         -7.8320317697944120E-007
  -1.1652000000000000         -7.9061015867409878E-007
  -1.1648000000000001         -7.9798530805419432E-007
  -1.1643999999999999         -8.0533033042229363E-007
  -1.1639999999999999         -8.1263738138659392E-007
  -1.1636000000000000         -8.1989571754093049E-007
  -1.1632000000000000         -8.2710914739436703E-007
  -1.1628000000000001         -8.3427522667989251E-007
  -1.1623999999999999         -8.4138207512296503E-007
  -1.1619999999999999         -8.4845049741488765E-007
  -1.1616000000000000         -8.5548225570164504E-007
  -1.1612000000000000         -8.6247683839246747E-007
  -1.1608000000000001         -8.6944788790788152E-007
  -1.1603999999999999         -8.7638790091659757E-007
  -1.1599999999999999         -8.8329886693827575E-007
  -1.1596000000000000         -8.9017476057051681E-007
  -1.1592000000000000         -8.9700876060305745E-007
  -1.1588000000000001         -9.0379387529537780E-007
  -1.1583999999999999         -9.1052447714901064E-007
  -1.1579999999999999         -9.1720147565865773E-007
  -1.1576000000000000         -9.2383044147936744E-007
  -1.1572000000000000         -9.3041137461113976E-007
  -1.1568000000000001         -9.3695251734970952E-007
  -1.1563999999999999         -9.4346597734329407E-007
  -1.1559999999999999         -9.4994499022504897E-007
  -1.1556000000000000         -9.5639245500933612E-007
  -1.1552000000000000         -9.6279643457819475E-007
  -1.1548000000000000         -9.6915744052239461E-007
  -1.1543999999999999         -9.7546535471337847E-007
  -1.1539999999999999         -9.8171699391969014E-007
  -1.1536000000000000         -9.8791792879637796E-007
  -1.1532000000000000         -9.9406690878822701E-007
  -1.1528000000000000         -1.0001613190979697E-006
  -1.1523999999999999         -1.0062083219963824E-006
  -1.1519999999999999         -1.0122206504092901E-006
  -1.1516000000000000         -1.0181967127209646E-006
  -1.1512000000000000         -1.0241315067105461E-006
  -1.1508000000000000         -1.0300242365701706E-006
  -1.1503999999999999         -1.0358647841712809E-006
  -1.1499999999999999         -1.0416561053716578E-006
  -1.1496000000000000         -1.0473881957295816E-006
  -1.1492000000000000         -1.0530649205975351E-006
  -1.1488000000000000         -1.0586861662886804E-006
  -1.1483999999999999         -1.0642615961842239E-006
  -1.1479999999999999         -1.0697905281631392E-006
  -1.1476000000000000         -1.0752752359621809E-006
  -1.1472000000000000         -1.0807250419020420E-006
  -1.1468000000000000         -1.0861291457331390E-006
  -1.1463999999999999         -1.0914992571997573E-006
  -1.1459999999999999         -1.0968132073685410E-006
  -1.1456000000000000         -1.1020733836630825E-006
  -1.1452000000000000         -1.1072794450228685E-006
  -1.1448000000000000         -1.1124252523586620E-006
  -1.1443999999999999         -1.1175010286024190E-006
  -1.1439999999999999         -1.1225223488509073E-006
  -1.1435999999999999         -1.1274772759861662E-006
  -1.1432000000000000         -1.1323909347993322E-006
  -1.1428000000000000         -1.1372511607987690E-006
  -1.1423999999999999         -1.1420739838285954E-006
  -1.1419999999999999         -1.1468454204077716E-006
  -1.1415999999999999         -1.1515797950778506E-006
  -1.1412000000000000         -1.1562561894606915E-006
  -1.1408000000000000         -1.1608799468376674E-006
  -1.1403999999999999         -1.1654373111014138E-006
  -1.1399999999999999         -1.1699416972987819E-006
  -1.1395999999999999         -1.1743908316930174E-006
  -1.1392000000000000         -1.1787969924625941E-006
  -1.1388000000000000         -1.1831377833004808E-006
  -1.1383999999999999         -1.1874261645061779E-006
  -1.1379999999999999         -1.1916713447135407E-006
  -1.1375999999999999         -1.1958521781707532E-006
  -1.1372000000000000         -1.1999791240668856E-006
  -1.1368000000000000         -1.2040510455335607E-006
  -1.1363999999999999         -1.2080683973181294E-006
  -1.1359999999999999         -1.2120331120968331E-006
  -1.1355999999999999         -1.2159425750724040E-006
  -1.1352000000000000         -1.2197996284157853E-006
  -1.1348000000000000         -1.2236049542480032E-006
  -1.1343999999999999         -1.2273437732801540E-006
  -1.1339999999999999         -1.2310108559177024E-006
  -1.1335999999999999         -1.2346288258413551E-006
  -1.1332000000000000         -1.2381777878545108E-006
  -1.1328000000000000         -1.2416674053383758E-006
  -1.1323999999999999         -1.2450984741008142E-006
  -1.1319999999999999         -1.2484562148529221E-006
  -1.1315999999999999         -1.2517489267338533E-006
  -1.1312000000000000         -1.2549998018585029E-006
  -1.1308000000000000         -1.2582164572449983E-006
  -1.1303999999999998         -1.2613818398676813E-006
  -1.1299999999999999         -1.2645099332075915E-006
  -1.1295999999999999         -1.2675970992859220E-006
  -1.1292000000000000         -1.2706270808848785E-006
  -1.1288000000000000         -1.2736053349726717E-006
  -1.1284000000000001         -1.2764779739882215E-006
  -1.1279999999999999         -1.2792776260539540E-006
  -1.1275999999999999         -1.2820092933907290E-006
  -1.1272000000000000         -1.2846704748881166E-006
  -1.1268000000000000         -1.2872715160483494E-006
  -1.1263999999999998         -1.2898134400529671E-006
  -1.1259999999999999         -1.2923101166961715E-006
  -1.1255999999999999         -1.2947516552230809E-006
  -1.1252000000000000         -1.2971439673492569E-006
  -1.1248000000000000         -1.2994955795875285E-006
  -1.1244000000000001         -1.3017847777518909E-006
  -1.1239999999999999         -1.3040212252235506E-006
  -1.1235999999999999         -1.3061853678664193E-006
  -1.1232000000000000         -1.3082831173960585E-006
  -1.1228000000000000         -1.3102896900818450E-006
  -1.1223999999999998         -1.3122386235409067E-006
  -1.1219999999999999         -1.3141127510607475E-006
  -1.1215999999999999         -1.3159344689483987E-006
  -1.1212000000000000         -1.3177025266486453E-006
  -1.1208000000000000         -1.3194240864322637E-006
  -1.1204000000000001         -1.3211000577939558E-006
  -1.1199999999999999         -1.3227225963419187E-006
  -1.1195999999999999         -1.3243087551018107E-006
  -1.1192000000000000         -1.3258368198876269E-006
  -1.1188000000000000         -1.3272867818159284E-006
  -1.1183999999999998         -1.3286653484101407E-006
  -1.1179999999999999         -1.3299638794705970E-006
  -1.1175999999999999         -1.3311769180290867E-006
  -1.1172000000000000         -1.3323244729690487E-006
  -1.1168000000000000         -1.3334185950952815E-006
  -1.1164000000000001         -1.3344525768843596E-006
  -1.1159999999999999         -1.3354318753044936E-006
  -1.1155999999999999         -1.3363513744479860E-006
  -1.1152000000000000         -1.3372271041589556E-006
  -1.1148000000000000         -1.3380530390350032E-006
  -1.1143999999999998         -1.3387989383772947E-006
  -1.1139999999999999         -1.3394802635957603E-006
  -1.1135999999999999         -1.3400904208538122E-006
  -1.1132000000000000         -1.3406345260591479E-006
  -1.1128000000000000         -1.3411199688562192E-006
  -1.1124000000000001         -1.3415375406111707E-006
  -1.1119999999999999         -1.3419089555100072E-006
  -1.1115999999999999         -1.3422240954241715E-006
  -1.1112000000000000         -1.3424797771222075E-006
  -1.1108000000000000         -1.3426789564618957E-006
  -1.1104000000000001         -1.3428206102616969E-006
  -1.1099999999999999         -1.3429053069557995E-006
  -1.1095999999999999         -1.3429228147288086E-006
  -1.1092000000000000         -1.3428650618152460E-006
  -1.1088000000000000         -1.3427426210910198E-006
  -1.1084000000000001         -1.3425513998299721E-006
  -1.1079999999999999         -1.3422942402030458E-006
  -1.1075999999999999         -1.3419814877124736E-006
  -1.1072000000000000         -1.3416101865004748E-006
  -1.1068000000000000         -1.3411897725745803E-006
  -1.1064000000000001         -1.3406997823040001E-006
  -1.1059999999999999         -1.3401496516962652E-006
  -1.1055999999999999         -1.3395288078754675E-006
  -1.1052000000000000         -1.3388300885708304E-006
  -1.1048000000000000         -1.3380438304011477E-006
  -1.1044000000000000         -1.3372028888625209E-006
  -1.1039999999999999         -1.3363086281970027E-006
  -1.1035999999999999         -1.3353482017919305E-006
  -1.1032000000000000         -1.3343574210011866E-006
  -1.1028000000000000         -1.3333257129488629E-006
  -1.1024000000000000         -1.3322410268301610E-006
  -1.1019999999999999         -1.3310976783031947E-006
  -1.1015999999999999         -1.3298882777235121E-006
  -1.1012000000000000         -1.3286272633195040E-006
  -1.1008000000000000         -1.3272824617160950E-006
  -1.1004000000000000         -1.3258588751341449E-006
  -1.0999999999999999         -1.3243572993815178E-006
  -1.0995999999999999         -1.3227812587501830E-006
  -1.0992000000000000         -1.3211453051553690E-006
  -1.0988000000000000         -1.3194552366257994E-006
  -1.0984000000000000         -1.3177289019949967E-006
  -1.0979999999999999         -1.3159688023733906E-006
  -1.0975999999999999         -1.3141665249349899E-006
  -1.0972000000000000         -1.3122966038281447E-006
  -1.0968000000000000         -1.3103664286973071E-006
  -1.0964000000000000         -1.3083413250569720E-006
  -1.0959999999999999         -1.3062270909358631E-006
  -1.0955999999999999         -1.3040182693657698E-006
  -1.0952000000000000         -1.3017308901908109E-006
  -1.0948000000000000         -1.2993928066862281E-006
  -1.0944000000000000         -1.2970299394510221E-006
  -1.0939999999999999         -1.2946347851539031E-006
  -1.0935999999999999         -1.2922154155603494E-006
  -1.0931999999999999         -1.2897472743134131E-006
  -1.0928000000000000         -1.2872385468654102E-006
  -1.0924000000000000         -1.2846662684751209E-006
  -1.0919999999999999         -1.2820079291486763E-006
  -1.0915999999999999         -1.2792969528163667E-006
  -1.0911999999999999         -1.2764804750986514E-006
  -1.0908000000000000         -1.2735905556837679E-006
  -1.0904000000000000         -1.2706294683084707E-006
  -1.0899999999999999         -1.2676184724114137E-006
  -1.0895999999999999         -1.2645444940062589E-006
  -1.0891999999999999         -1.2614286788448226E-006
  -1.0888000000000000         -1.2582637509694905E-006
  -1.0884000000000000         -1.2550547126011224E-006
  -1.0879999999999999         -1.2517949699031305E-006
  -1.0875999999999999         -1.2484864555517561E-006
  -1.0871999999999999         -1.2450988151613274E-006
  -1.0868000000000000         -1.2416385288815945E-006
  -1.0864000000000000         -1.2381357237245538E-006
  -1.0859999999999999         -1.2345786899459199E-006
  -1.0855999999999999         -1.2309654948694515E-006
  -1.0851999999999999         -1.2273130778339691E-006
  -1.0848000000000000         -1.2236023394507356E-006
  -1.0844000000000000         -1.2198445347166853E-006
  -1.0839999999999999         -1.2160046480858000E-006
  -1.0835999999999999         -1.2120887049604789E-006
  -1.0831999999999999         -1.2080882925147307E-006
  -1.0828000000000000         -1.2040294450343936E-006
  -1.0824000000000000         -1.1999073876722832E-006
  -1.0819999999999999         -1.1957439483012422E-006
  -1.0815999999999999         -1.1915465165657224E-006
  -1.0811999999999999         -1.1873195262523950E-006
  -1.0808000000000000         -1.1830750281660585E-006
  -1.0804000000000000         -1.1787976745836204E-006
  -1.0799999999999998         -1.1744617722797557E-006
  -1.0795999999999999         -1.1700366258082795E-006
  -1.0791999999999999         -1.1655441767288721E-006
  -1.0788000000000000         -1.1609590728767216E-006
  -1.0784000000000000         -1.1562902955120080E-006
  -1.0779999999999998         -1.1515543292262009E-006
  -1.0775999999999999         -1.1467739113868447E-006
  -1.0771999999999999         -1.1419505199228297E-006
  -1.0768000000000000         -1.1371191703801742E-006
  -1.0764000000000000         -1.1322654245304875E-006
  -1.0760000000000001         -1.1273937161604408E-006
  -1.0755999999999999         -1.1224891522942926E-006
  -1.0751999999999999         -1.1175403642482706E-006
  -1.0748000000000000         -1.1125268883915851E-006
  -1.0744000000000000         -1.1074210988226696E-006
  -1.0739999999999998         -1.1022171975128003E-006
  -1.0735999999999999         -1.0969301911245566E-006
  -1.0731999999999999         -1.0915572374869953E-006
  -1.0728000000000000         -1.0861239161386038E-006
  -1.0724000000000000         -1.0806668342411285E-006
  -1.0720000000000001         -1.0751924719443195E-006
  -1.0715999999999999         -1.0696981007640716E-006
  -1.0711999999999999         -1.0641831522661960E-006
  -1.0708000000000000         -1.0586329608486267E-006
  -1.0704000000000000         -1.0530395684327232E-006
  -1.0699999999999998         -1.0473855809323140E-006
  -1.0695999999999999         -1.0416678151159431E-006
  -1.0691999999999999         -1.0358762665418908E-006
  -1.0688000000000000         -1.0300228723281180E-006
  -1.0684000000000000         -1.0241135441901861E-006
  -1.0680000000000001         -1.0181602192460559E-006
  -1.0675999999999999         -1.0121754030478769E-006
  -1.0671999999999999         -1.0061619377665920E-006
  -1.0668000000000000         -1.0001231203204952E-006
  -1.0664000000000000         -9.9404928732838016E-007
  -1.0659999999999998         -9.8791963409894379E-007
  -1.0655999999999999         -9.8173870810569497E-007
  -1.0651999999999999         -9.7548297617322532E-007
  -1.0648000000000000         -9.6916505754052196E-007
  -1.0644000000000000         -9.6279654826503247E-007
  -1.0640000000000001         -9.5638461061753333E-007
  -1.0635999999999999         -9.4994447863427922E-007
  -1.0631999999999999         -9.4346791001953534E-007
  -1.0628000000000000         -9.3696240810459130E-007
  -1.0624000000000000         -9.3042967819201294E-007
  -1.0619999999999998         -9.2385010930229328E-007
  -1.0615999999999999         -9.1722716888398281E-007
  -1.0611999999999999         -9.1054079121022369E-007
  -1.0608000000000000         -9.0379000994289527E-007
  -1.0604000000000000         -8.9698971805773908E-007
  -1.0600000000000001         -8.9014400828091311E-007
  -1.0595999999999999         -8.8326373770541977E-007
  -1.0591999999999999         -8.7635669387964299E-007
  -1.0588000000000000         -8.6943265387162683E-007
  -1.0584000000000000         -8.6247666786221089E-007
  -1.0579999999999998         -8.5548839479088201E-007
  -1.0575999999999999         -8.4846033132635057E-007
  -1.0571999999999999         -8.4137286648910958E-007
  -1.0568000000000000         -8.3423736896293121E-007
  -1.0564000000000000         -8.2704383430609596E-007
  -1.0560000000000000         -8.1979356991723762E-007
  -1.0555999999999999         -8.1250766470475355E-007
  -1.0551999999999999         -8.0519913581156288E-007
  -1.0548000000000000         -7.9786508422330371E-007
  -1.0544000000000000         -7.9052358614717377E-007
  -1.0539999999999998         -7.8317106044778484E-007
  -1.0535999999999999         -7.7578687296409043E-007
  -1.0531999999999999         -7.6836420248582726E-007
  -1.0528000000000000         -7.6088844025434810E-007
  -1.0524000000000000         -7.5336760119171231E-007
  -1.0520000000000000         -7.4578719022611040E-007
  -1.0515999999999999         -7.3815527912302059E-007
  -1.0511999999999999         -7.3047812065851758E-007
  -1.0508000000000000         -7.2277282470167847E-007
  -1.0504000000000000         -7.1504200604977086E-007
  -1.0500000000000000         -7.0730061452195514E-007
  -1.0495999999999999         -6.9954688797224662E-007
  -1.0491999999999999         -6.9177241357465391E-007
  -1.0488000000000000         -6.8396792585190269E-007
  -1.0484000000000000         -6.7612688781082397E-007
  -1.0480000000000000         -6.6824787836594624E-007
  -1.0475999999999999         -6.6031282131007174E-007
  -1.0471999999999999         -6.5232524093516986E-007
  -1.0468000000000000         -6.4428581936226692E-007
  -1.0464000000000000         -6.3621189383411547E-007
  -1.0460000000000000         -6.2811704992782325E-007
  -1.0455999999999999         -6.2000788147997810E-007
  -1.0451999999999999         -6.1188802646938711E-007
  -1.0448000000000000         -6.0376248711691005E-007
  -1.0444000000000000         -5.9562927390288678E-007
  -1.0440000000000000         -5.8746945796883665E-007
  -1.0435999999999999         -5.7928087926484295E-007
  -1.0431999999999999         -5.7105444284388795E-007
  -1.0427999999999999         -5.6278412330357241E-007
  -1.0424000000000000         -5.5447645763706532E-007
  -1.0420000000000000         -5.4613582278761896E-007
  -1.0415999999999999         -5.3776795994053828E-007
  -1.0411999999999999         -5.2937872396796593E-007
  -1.0407999999999999         -5.2097254865657305E-007
  -1.0404000000000000         -5.1254863819849561E-007
  -1.0400000000000000         -5.0410591256877524E-007
  -1.0395999999999999         -4.9564516757527599E-007
  -1.0391999999999999         -4.8716191258790786E-007
  -1.0387999999999999         -4.7865160013316199E-007
  -1.0384000000000000         -4.7011565129650990E-007
  -1.0380000000000000         -4.6156287680787500E-007
  -1.0375999999999999         -4.5298881445887673E-007
  -1.0371999999999999         -4.4439570956456009E-007
  -1.0367999999999999         -4.3578452846304572E-007
  -1.0364000000000000         -4.2715237213997170E-007
  -1.0360000000000000         -4.1849267518045963E-007
  -1.0355999999999999         -4.0980137328006094E-007
  -1.0351999999999999         -4.0108349708134483E-007
  -1.0347999999999999         -3.9233611914823996E-007
  -1.0344000000000000         -3.8356336062861374E-007
  -1.0340000000000000         -3.7477613545888744E-007
  -1.0335999999999999         -3.6597691632778151E-007
  -1.0331999999999999         -3.5718184676625242E-007
  -1.0327999999999999         -3.4838930673686264E-007
  -1.0324000000000000         -3.3960469636440394E-007
  -1.0320000000000000         -3.3082494610425783E-007
  -1.0315999999999999         -3.2202925126512127E-007
  -1.0311999999999999         -3.1320925586442172E-007
  -1.0307999999999999         -3.0434873110607441E-007
  -1.0304000000000000         -2.9544750645982276E-007
  -1.0300000000000000         -2.8650035233113158E-007
  -1.0295999999999998         -2.7751403308684530E-007
  -1.0291999999999999         -2.6850509016185242E-007
  -1.0287999999999999         -2.5948995130420371E-007
  -1.0284000000000000         -2.5048501584024052E-007
  -1.0280000000000000         -2.4150148192347842E-007
  -1.0276000000000001         -2.3254217751400574E-007
  -1.0271999999999999         -2.2360609364113770E-007
  -1.0267999999999999         -2.1467845101597050E-007
  -1.0264000000000000         -2.0574050552113476E-007
  -1.0260000000000000         -1.9677712259635882E-007
  -1.0255999999999998         -1.8777539878556126E-007
  -1.0251999999999999         -1.7872589808121120E-007
  -1.0247999999999999         -1.6963267057690246E-007
  -1.0244000000000000         -1.6050834972247685E-007
  -1.0240000000000000         -1.5136809849991550E-007
  -1.0236000000000001         -1.4223111577393865E-007
  -1.0231999999999999         -1.3311048974173900E-007
  -1.0227999999999999         -1.2401672222495108E-007
  -1.0224000000000000         -1.1495093588109739E-007
  -1.0220000000000000         -1.0590640897589765E-007
  -1.0215999999999998         -9.6872128096947563E-008
  -1.0211999999999999         -8.7835495321542112E-008
  -1.0207999999999999         -7.8782036894153862E-008
  -1.0204000000000000         -6.9703219196526334E-008
  -1.0200000000000000         -6.0593684736431896E-008
  -1.0196000000000001         -5.1455604221928297E-008
  -1.0191999999999999         -4.2294370672379955E-008
  -1.0187999999999999         -3.3118745079718792E-008
  -1.0184000000000000         -2.3938097726272645E-008
  -1.0180000000000000         -1.4761416089470458E-008
  -1.0175999999999998         -5.5956412836621894E-009
  -1.0171999999999999          3.5545113519219740E-009
  -1.0167999999999999          1.2686824923946460E-008
  -1.0164000000000000          2.1801232819029792E-008
  -1.0160000000000000          3.0899446556986732E-008
  -1.0156000000000001          3.9984030308914953E-008
  -1.0151999999999999          4.9059867279765967E-008
  -1.0147999999999999          5.8133409197580477E-008
  -1.0144000000000000          6.7210208953838446E-008
  -1.0140000000000000          7.6297332896047010E-008
  -1.0135999999999998          8.5400017724168720E-008
  -1.0131999999999999          9.4521368509958847E-008
  -1.0127999999999999          1.0365827307623476E-007
  -1.0124000000000000          1.1280567946414521E-007
  -1.0120000000000000          1.2195506826628844E-007
  -1.0116000000000001          1.3109385577081412E-007
  -1.0111999999999999          1.4020866956343525E-007
  -1.0107999999999999          1.4929115366157930E-007
  -1.0104000000000000          1.5833664690489968E-007
  -1.0100000000000000          1.6734782093408285E-007
  -1.0095999999999998          1.7633423965435213E-007
  -1.0091999999999999          1.8531191869897157E-007
  -1.0087999999999999          1.9429293729444908E-007
  -1.0084000000000000          2.0328933203472843E-007
  -1.0080000000000000          2.1230687252682401E-007
  -1.0076000000000001          2.2134655353056587E-007
  -1.0071999999999999          2.3040189489620388E-007
  -1.0067999999999999          2.3945779048517579E-007
  -1.0064000000000000          2.4849566671036882E-007
  -1.0060000000000000          2.5750242116373556E-007
  -1.0055999999999998          2.6646711148714530E-007
  -1.0051999999999999          2.7538297331375361E-007
  -1.0047999999999999          2.8425952791621967E-007
  -1.0044000000000000          2.9310621130207437E-007
  -1.0040000000000000          3.0193555744517653E-007
  -1.0036000000000000          3.1077149742486654E-007
  -1.0031999999999999          3.1961923241397017E-007
  -1.0027999999999999          3.2848953424036154E-007
  -1.0024000000000000          3.3737563853719621E-007
  -1.0020000000000000          3.4626486922206823E-007
  -1.0015999999999998          3.5514020169102878E-007
  -1.0011999999999999          3.6399188729774323E-007
  -1.0007999999999999          3.7280400988493057E-007
  -1.0004000000000000          3.8156863979565969E-007
  -1.0000000000000000          3.9029038134685834E-007
 -0.99959999999999993          3.9897395254229195E-007
 -0.99919999999999998          4.0762969888419320E-007
 -0.99879999999999991          4.1626572055974975E-007
 -0.99839999999999995          4.2489284624025458E-007
 -0.99800000000000000          4.3351283807169239E-007
 -0.99759999999999993          4.4212939087628911E-007
 -0.99719999999999998          4.5074321519678051E-007
 -0.99679999999999991          4.5934834247418621E-007
 -0.99639999999999995          4.6793812202849949E-007
 -0.99600000000000000          4.7650698320467200E-007
 -0.99559999999999993          4.8504836058782530E-007
 -0.99519999999999997          4.9356071940565016E-007
 -0.99479999999999991          5.0204374701934285E-007
 -0.99439999999999995          5.1049653393420158E-007
 -0.99399999999999999          5.1892072860937333E-007
 -0.99359999999999993          5.2732116273546126E-007
 -0.99319999999999997          5.3569664260066929E-007
 -0.99279999999999990          5.4405103355747997E-007
 -0.99239999999999995          5.5237745755221113E-007
 -0.99199999999999999          5.6068222420435632E-007
 -0.99159999999999993          5.6896612932177959E-007
 -0.99119999999999997          5.7723462987269158E-007
 -0.99079999999999990          5.8548306469674571E-007
 -0.99039999999999995          5.9371024008214590E-007
 -0.98999999999999999          6.0191041484358720E-007
 -0.98959999999999992          6.1007267504464835E-007
 -0.98919999999999997          6.1819235952498275E-007
 -0.98879999999999990          6.2626793351228116E-007
 -0.98839999999999995          6.3430218233406777E-007
 -0.98799999999999999          6.4228936480503762E-007
 -0.98759999999999992          6.5023351680792985E-007
 -0.98719999999999997          6.5815498828669661E-007
 -0.98679999999999990          6.6605588244783576E-007
 -0.98639999999999994          6.7394785219221376E-007
 -0.98599999999999999          6.8182924906068365E-007
 -0.98559999999999992          6.8969887934144936E-007
 -0.98519999999999996          6.9755503773194505E-007
 -0.98479999999999990          7.0540096430704580E-007
 -0.98439999999999994          7.1319510652756435E-007
 -0.98399999999999999          7.2095173209163477E-007
 -0.98359999999999992          7.2865100264607463E-007
 -0.98319999999999996          7.3628632435429608E-007
 -0.98279999999999990          7.4387247650520294E-007
 -0.98239999999999994          7.5140752642255393E-007