 -0.14999999999999999          0.0000000000000000     
 -0.14920000000000000          0.0000000000000000     
 -0.14840000000000000          0.0000000000000000     
 -0.14759999999999998          0.0000000000000000     
 -0.14679999999999999          0.0000000000000000     
 -0.14599999999999999          0.0000000000000000     
 -0.14520000000000000          0.0000000000000000     
 -0.14440000000000000          0.0000000000000000     
 -0.14360000000000001          0.0000000000000000     
 -0.14279999999999998          0.0000000000000000     
 -0.14199999999999999          0.0000000000000000     
 -0.14119999999999999          0.0000000000000000     
 -0.14040000000000000          7.1770610611947536E-037
 -0.13960000000000000         -8.4604491159529318E-037
 -0.13880000000000001          5.3321215834453324E-035
 -0.13799999999999998          6.1287727016855686E-034
 -0.13719999999999999          1.8028244617874486E-033
 -0.13639999999999999         -8.2244178572151378E-034
 -0.13560000000000000         -5.8087659460157980E-033
 -0.13480000000000000          6.6393466709514130E-032
 -0.13400000000000001          3.6403764650191638E-031
 -0.13319999999999999          3.4002895021264270E-031
 -0.13239999999999999         -2.6524146054553099E-030
 -0.13159999999999999         -9.9887852513666355E-030
 -0.13080000000000000         -4.5421267225377785E-030
 -0.13000000000000000          6.2249173401692940E-029
 -0.12919999999999998          1.8958253723146544E-028
 -0.12839999999999999          8.2084494417807216E-029
 -0.12759999999999999         -9.2442480289049607E-028
 -0.12680000000000000         -2.7534257746646334E-027
 -0.12600000000000000         -1.8827405801983632E-027
 -0.12519999999999998          9.2038612779711604E-027
 -0.12440000000000000          3.1183964324738144E-026
 -0.12359999999999999          3.2820289872271937E-026
 -0.12279999999999999         -5.7526116117383488E-026
 -0.12200000000000000         -2.7163774461038734E-025
 -0.12119999999999999         -4.0255894933361307E-025
 -0.12039999999999999          1.1592274024367836E-025
 -0.11960000000000000          1.7592643427127981E-024
 -0.11879999999999999          3.5769454131790226E-024
 -0.11799999999999999          1.9448687197845556E-024
 -0.11720000000000000         -7.6952284787651444E-024
 -0.11639999999999999         -2.3412151577616623E-023
 -0.11559999999999999         -2.7064669076654913E-023
 -0.11479999999999999          1.3270377497530715E-023
 -0.11399999999999999          1.1032226070403092E-022
 -0.11320000000000000          1.9866305743448490E-022
 -0.11240000000000000          1.0859022507875318E-022
 -0.11159999999999999         -3.2618270044250010E-022
 -0.11080000000000000         -9.8705255200031112E-022
 -0.10999999999999999         -1.1972361972035161E-021
 -0.10919999999999999          9.6436787848315845E-023
 -0.10840000000000000          3.2868136750377845E-021
 -0.10760000000000000          6.5403478707045146E-021
 -0.10679999999999999          5.2675099706479051E-021
 -0.10599999999999998         -5.1877577234736458E-021
 -0.10519999999999999         -2.3154171519120124E-020
 -0.10439999999999999         -3.4575422590506305E-020
 -0.10360000000000000         -1.5899456658144820E-020
 -0.10280000000000000          4.6978562898387072E-020
 -0.10199999999999999          1.2922264643152269E-019
 -0.10119999999999998          1.5235199930109195E-019
 -0.10039999999999999          1.9360829474289910E-020
  -9.9599999999999994E-002    -2.8873346741925775E-019
  -9.8799999999999999E-002    -6.0554061764795270E-019
  -9.7999999999999990E-002    -5.7694922317263387E-019
  -9.7199999999999995E-002     1.2689631728099094E-019
  -9.6399999999999986E-002     1.4157154824814441E-018
  -9.5599999999999991E-002     2.4674175219045869E-018
  -9.4799999999999995E-002     1.9250188574364688E-018
  -9.4000000000000000E-002    -1.1460049719524039E-018
  -9.3199999999999991E-002    -5.8874336080181042E-018
  -9.2399999999999982E-002    -8.9539141478925293E-018
  -9.1599999999999987E-002    -5.7933021086707947E-018
  -9.0799999999999992E-002     5.7738778399365182E-018
  -8.9999999999999997E-002     2.1438653703551333E-017
  -8.9200000000000002E-002     2.9438067599006672E-017
  -8.8399999999999992E-002     1.6118477812155250E-017
  -8.7599999999999983E-002    -2.2472928908624361E-017
  -8.6799999999999988E-002    -6.9669617964523777E-017
  -8.5999999999999993E-002    -8.8762177346999135E-017
  -8.5199999999999998E-002    -4.2545065350987066E-017
  -8.4399999999999989E-002     7.3324604836595486E-017
  -8.3599999999999994E-002     2.0444086476603299E-016
  -8.2799999999999985E-002     2.4740305083015095E-016
  -8.1999999999999990E-002     1.0895970444405753E-016
  -8.1199999999999994E-002    -2.0725972424004630E-016
  -8.0399999999999985E-002    -5.4548678281204606E-016
  -7.9599999999999990E-002    -6.3995636741931818E-016
  -7.8799999999999995E-002    -2.7374098445965178E-016
  -7.7999999999999986E-002     5.1528285846237859E-016
  -7.7199999999999991E-002     1.3279319855305483E-015
  -7.6399999999999996E-002     1.5366179279653136E-015
  -7.5599999999999987E-002     6.7051091046958972E-016
  -7.4799999999999991E-002    -1.1345888802649922E-015
  -7.3999999999999996E-002    -2.9517738723932024E-015
  -7.3199999999999987E-002    -3.4143584701630363E-015
  -7.2399999999999992E-002    -1.5683520173341960E-015
  -7.1599999999999997E-002     2.2205411286986424E-015
  -7.0799999999999988E-002     5.9857048584723883E-015
  -6.9999999999999993E-002     6.9790517359365548E-015
  -6.9199999999999984E-002     3.4055874439942180E-015
  -6.8399999999999989E-002    -3.8881226322872060E-015
  -6.7599999999999993E-002    -1.1061735295109232E-014
  -6.6799999999999984E-002    -1.3015123714551526E-014
  -6.5999999999999989E-002    -6.6511593528237843E-015
  -6.5199999999999994E-002     6.2307269261575871E-015
  -6.4399999999999985E-002     1.8668230074856199E-014
  -6.3599999999999990E-002     2.1933055889609802E-014
  -6.2799999999999995E-002     1.1235945408403971E-014
  -6.1999999999999986E-002    -9.7386003747963398E-015
  -6.1199999999999991E-002    -2.9120213456291372E-014
  -6.0399999999999995E-002    -3.3123155639743634E-014
  -5.9599999999999986E-002    -1.5385503065795322E-014
  -5.8799999999999991E-002     1.6601329076086462E-014
  -5.7999999999999996E-002     4.3435951179154192E-014
  -5.7199999999999987E-002     4.4888680446331097E-014
  -5.6399999999999992E-002     1.4368829747996720E-014
  -5.5599999999999997E-002    -3.2958140069091341E-014
  -5.4799999999999988E-002    -6.5968470920260702E-014
  -5.3999999999999992E-002    -5.6549525533165085E-014
  -5.3199999999999983E-002    -1.1244857889074981E-015
  -5.2399999999999988E-002     7.0434231906092715E-014
  -5.1599999999999993E-002     1.0822396987906699E-013
  -5.0799999999999984E-002     7.3875794533422717E-014
  -4.9999999999999989E-002    -2.8187110103134773E-014
  -4.9199999999999994E-002    -1.4255774566460794E-013
  -4.8399999999999985E-002    -1.8935803717135685E-013
  -4.7599999999999990E-002    -1.1496765995808178E-013
  -4.6799999999999994E-002     6.3266971143342149E-014
  -4.5999999999999985E-002     2.5129816847227482E-013
  -4.5199999999999990E-002     3.2458378432936863E-013
  -4.4399999999999995E-002     2.0576204314611685E-013
  -4.3599999999999986E-002    -7.2858867105739938E-014
  -4.2799999999999991E-002    -3.6776332847099358E-013
  -4.1999999999999996E-002    -4.9671128755229832E-013
  -4.1199999999999987E-002    -3.5036979827846038E-013
  -4.0399999999999991E-002     2.4674415342960249E-014
  -3.9599999999999982E-002     4.3174624574267295E-013
  -3.8799999999999987E-002     6.2910803953417083E-013
  -3.7999999999999992E-002     4.7932621413671050E-013
  -3.7199999999999983E-002     4.9777876590627324E-014
  -3.6399999999999988E-002    -4.0974932865103786E-013
  -3.5599999999999993E-002    -6.1374868945765493E-013
  -3.4799999999999984E-002    -4.2875452537297076E-013
  -3.3999999999999989E-002     2.1168415531200822E-014
  -3.3199999999999993E-002     4.1552991516397020E-013
  -3.2399999999999984E-002     4.4588700678742377E-013
  -3.1599999999999989E-002     4.6078422924044488E-014
  -3.0799999999999994E-002    -5.1704609560845882E-013
  -2.9999999999999985E-002    -7.8211466166336341E-013
  -2.9199999999999990E-002    -4.0380646417793875E-013
  -2.8399999999999995E-002     5.5436840014355671E-013
  -2.7599999999999986E-002     1.5588409469496911E-012
  -2.6799999999999990E-002     1.8693165505095921E-012
  -2.5999999999999995E-002     1.0118179081045064E-012
  -2.5199999999999986E-002    -8.2130298655752609E-013
  -2.4399999999999977E-002    -2.7334571238435412E-012
  -2.3599999999999982E-002    -3.5488591232368805E-012
  -2.2799999999999987E-002    -2.5110722962767840E-012
  -2.1999999999999992E-002     1.5055652850728268E-013
  -2.1199999999999997E-002     3.1783664242168719E-012
  -2.0400000000000001E-002     4.8868465697682328E-012
  -1.9599999999999979E-002     4.1303462386399481E-012
  -1.8799999999999983E-002     1.0828369451099107E-012
  -1.7999999999999988E-002    -2.6911368099236110E-012
  -1.7199999999999993E-002    -5.0226897294058936E-012
  -1.6399999999999998E-002    -4.4092316603405735E-012
  -1.5599999999999975E-002    -1.0380683942642910E-012
  -1.4799999999999980E-002     3.1151771700405062E-012
  -1.3999999999999985E-002     5.3044487205444746E-012
  -1.3199999999999990E-002     3.6668138143902684E-012
  -1.2399999999999994E-002    -1.4301834456303952E-012
  -1.1599999999999999E-002    -7.2284643548581329E-012
  -1.0799999999999976E-002    -9.8797255099203340E-012
  -9.9999999999999811E-003    -6.6312463332940386E-012
  -9.1999999999999860E-003     2.2810444939153074E-012
  -8.3999999999999908E-003     1.3184689451328779E-011
  -7.5999999999999956E-003     2.0420396276699115E-011
  -6.8000000000000005E-003     1.9114813898379879E-011
  -5.9999999999999776E-003     7.9099600133747394E-012
  -5.1999999999999824E-003    -9.8129013595404935E-012
  -4.3999999999999873E-003    -2.6986744436352517E-011
  -3.5999999999999921E-003    -3.5827858041459493E-011
  -2.7999999999999969E-003    -3.1375152476087464E-011
  -1.9999999999999740E-003    -1.3934061370013406E-011
  -1.1999999999999789E-003     1.0739905492718194E-011
  -3.9999999999998370E-004     3.3633658358400709E-011
   4.0000000000001146E-004     4.6093632383170657E-011
   1.2000000000000066E-003     4.3326116999642394E-011
   2.0000000000000018E-003     2.6341878331392898E-011
   2.8000000000000247E-003     1.5771002125769540E-012
   3.6000000000000199E-003    -2.1671277619650375E-011
   4.4000000000000150E-003    -3.5057987762820986E-011
   5.2000000000000102E-003    -3.4833688017377185E-011
   6.0000000000000053E-003    -2.3834982598724963E-011
   6.8000000000000005E-003    -1.0711490722181694E-011
   7.6000000000000234E-003    -6.1305509280185078E-012
   8.4000000000000186E-003    -1.6942515099205302E-011
   9.2000000000000137E-003    -4.0598410050440847E-011
   1.0000000000000009E-002    -6.2859883964705432E-011
   1.0800000000000004E-002    -6.1321024646954214E-011
   1.1600000000000027E-002    -1.5132294722830508E-011
   1.2400000000000022E-002     8.1930601192325980E-011
   1.3200000000000017E-002     2.1086175860940415E-010
   1.4000000000000012E-002     3.2591412901794570E-010
   1.4800000000000008E-002     3.6625014132596334E-010
   1.5600000000000003E-002     2.7918831135842481E-010
   1.6400000000000026E-002     4.6995112662484573E-011
   1.7200000000000021E-002    -2.9480362595535325E-010
   1.8000000000000016E-002    -6.5825445094702673E-010
   1.8800000000000011E-002    -9.2640695115164817E-010
   1.9600000000000006E-002    -9.9242003503974274E-010
   2.0400000000000001E-002    -7.9885459358663979E-010
   2.1200000000000024E-002    -3.5981123636119605E-010
   2.2000000000000020E-002     2.4451282665260976E-010
   2.2800000000000015E-002     8.9814561343715127E-010
   2.3600000000000010E-002     1.4888884569685956E-009
   2.4400000000000005E-002     1.9359165381871435E-009
   2.5200000000000000E-002     2.1902359925718429E-009
   2.6000000000000023E-002     2.2084050144144385E-009
   2.6800000000000018E-002     1.9175239174273884E-009
   2.7600000000000013E-002     1.1991887483020491E-009
   2.8400000000000009E-002    -8.4901703722994881E-011
   2.9200000000000004E-002    -2.0222310492812312E-009
   3.0000000000000027E-002    -4.5551256100395676E-009
   3.0800000000000022E-002    -7.4021020424197559E-009
   3.1600000000000017E-002    -1.0034359121391390E-008
   3.2400000000000012E-002    -1.1727065540867443E-008
   3.3200000000000007E-002    -1.1673529698441598E-008
   3.4000000000000002E-002    -9.1221865616830655E-009
   3.4800000000000025E-002    -3.4862051023765162E-009
   3.5600000000000021E-002     5.6103992562839267E-009
   3.6400000000000016E-002     1.8354375797002831E-008
   3.7200000000000011E-002     3.4803726123300294E-008
   3.8000000000000006E-002     5.4941793337093259E-008
   3.8800000000000001E-002     7.8690170823847438E-008
   3.9600000000000024E-002     1.0587850596266435E-007
   4.0400000000000019E-002     1.3620707761674566E-007
   4.1200000000000014E-002     1.6925764612096827E-007
   4.2000000000000010E-002     2.0459589222809882E-007
   4.2800000000000005E-002     2.4196529579967319E-007
   4.3600000000000028E-002     2.8151748665550258E-007
   4.4400000000000023E-002     3.2398750704487611E-007
   4.5200000000000018E-002     3.7072436498419847E-007
   4.6000000000000013E-002     4.2353681806162058E-007
   4.6800000000000008E-002     4.8439136435263208E-007
   4.7600000000000003E-002     5.5506859553133836E-007
   4.8400000000000026E-002     6.3691425111755962E-007
   4.9200000000000021E-002     7.3079036155832000E-007
   5.0000000000000017E-002     8.3725171862170100E-007
   5.0800000000000012E-002     9.5688085366418818E-007
   5.1600000000000007E-002     1.0906446732406039E-006
   5.2400000000000002E-002     1.2401322919686208E-006
   5.3200000000000025E-002     1.4075891385800787E-006
   5.4000000000000020E-002     1.5957637060637353E-006
   5.4800000000000015E-002     1.8076656260745949E-006
   5.5600000000000011E-002     2.0463753571675625E-006
   5.6400000000000006E-002     2.3150087145040743E-006
   5.7200000000000029E-002     2.6168549993599299E-006
   5.8000000000000024E-002     2.9556072149716783E-006
   5.8800000000000019E-002     3.3355479445162928E-006
   5.9600000000000014E-002     3.7615718611050397E-006
   6.0400000000000009E-002     4.2390129237901419E-006
   6.1200000000000004E-002     4.7733610699651763E-006
   6.2000000000000027E-002     5.3700318858318496E-006
   6.2800000000000022E-002     6.0343691075104289E-006
   6.3600000000000018E-002     6.7719529397436418E-006
   6.4400000000000013E-002     7.5891648521064781E-006
   6.5200000000000008E-002     8.4938028521719389E-006
   6.6000000000000003E-002     9.4955230451887473E-006
   6.6800000000000026E-002     1.0605885108816437E-005
   6.7600000000000021E-002     1.1837973033834714E-005
   6.8400000000000016E-002     1.3205718460085336E-005
   6.9200000000000012E-002     1.4723232197866309E-005
   7.0000000000000007E-002     1.6404412235715427E-005
   7.0800000000000030E-002     1.8262975572724827E-005
   7.1600000000000025E-002     2.0312985725468025E-005
   7.2400000000000020E-002     2.2569636712432839E-005
   7.3200000000000015E-002     2.5049990654224530E-005
   7.4000000000000010E-002     2.7773425244959071E-005
   7.4800000000000005E-002     3.0761693778913468E-005
   7.5600000000000028E-002     3.4038657759083435E-005
   7.6400000000000023E-002     3.7629935832228512E-005
   7.7200000000000019E-002     4.1562601836631075E-005
   7.8000000000000014E-002     4.5865206629969180E-005
   7.8800000000000009E-002     5.0568007281981409E-005
   7.9600000000000004E-002     5.5703334510326385E-005
   8.0400000000000027E-002     6.1305763665586710E-005
   8.1200000000000022E-002     6.7411987402010709E-005
   8.2000000000000017E-002     7.4060561018995941E-005
   8.2800000000000012E-002     8.1291567767038941E-005
   8.3600000000000008E-002     8.9146436948794872E-005
   8.4400000000000031E-002     9.7668060334399343E-005
   8.5200000000000026E-002     1.0690135241020471E-004
   8.6000000000000021E-002     1.1689394159475341E-004
   8.6800000000000016E-002     1.2769688328262419E-004
   8.7600000000000011E-002     1.3936473987996578E-004
   8.8400000000000006E-002     1.5195526066236198E-004
   8.9200000000000029E-002     1.6552861779928207E-004
   9.0000000000000024E-002     1.8014684610534459E-004
   9.0800000000000020E-002     1.9587336282711476E-004
   9.1600000000000015E-002     2.1277266205288470E-004
   9.2400000000000010E-002     2.3091062030289322E-004
   9.3200000000000005E-002     2.5035522412508726E-004
   9.4000000000000028E-002     2.7117703575640917E-004
   9.4800000000000023E-002     2.9344880022108555E-004
   9.5600000000000018E-002     3.1724481959827244E-004
   9.6400000000000013E-002     3.4264058922417462E-004
   9.7200000000000009E-002     3.6971186636947095E-004
   9.8000000000000004E-002     3.9853391353972256E-004
   9.8800000000000027E-002     4.2918178951367736E-004
   9.9600000000000022E-002     4.6173093141987920E-004
  0.10040000000000002          4.9625727115198970E-004
  0.10120000000000004          5.3283729357644916E-004
  0.10200000000000001          5.7154736714437604E-004
  0.10280000000000003          6.1246263794600964E-004
  0.10360000000000000          6.5565569093450904E-004
  0.10440000000000002          7.0119538577273488E-004
  0.10520000000000004          7.4914598371833563E-004
  0.10600000000000001          7.9956679837778211E-004
  0.10680000000000003          8.5251277778297663E-004
  0.10760000000000000          9.0803491184487939E-004
  0.10840000000000002          9.6617941744625568E-004
  0.10919999999999999          1.0269869817420840E-003
  0.11000000000000001          1.0904918890446424E-003
  0.11080000000000004          1.1567207984626293E-003
  0.11160000000000000          1.2256910558789968E-003
  0.11240000000000003          1.2974085984751582E-003
  0.11320000000000000          1.3718678383156657E-003
  0.11400000000000002          1.4490523608401418E-003
  0.11480000000000004          1.5289353905245662E-003
  0.11560000000000001          1.6114767640829086E-003
  0.11640000000000003          1.6966238617897034E-003
  0.11720000000000000          1.7843110254034400E-003
  0.11800000000000002          1.8744592089205980E-003
  0.11880000000000004          1.9669723697006702E-003
  0.11960000000000001          2.0617377012968063E-003
  0.12040000000000003          2.1586257498711348E-003
  0.12120000000000000          2.2574914619326591E-003
  0.12200000000000003          2.3581713903695345E-003
  0.12279999999999999          2.4604820646345615E-003
  0.12360000000000002          2.5642223190516233E-003
  0.12440000000000004          2.6691711973398924E-003
  0.12520000000000001          2.7750900480896235E-003
  0.12600000000000003          2.8817187994718552E-003
  0.12680000000000000          2.9887752607464790E-003
  0.12760000000000002          3.0959607101976871E-003
  0.12840000000000004          3.2029598951339722E-003
  0.12920000000000001          3.3094380050897598E-003
  0.13000000000000003          3.4150406718254089E-003
  0.13080000000000000          3.5193983931094408E-003
  0.13160000000000002          3.6221258342266083E-003
  0.13240000000000005          3.7228208966553211E-003
  0.13320000000000001          3.8210661150515079E-003
  0.13400000000000004          3.9164284244179726E-003
  0.13480000000000000          4.0084621869027615E-003
  0.13560000000000003          4.0967096574604511E-003
  0.13639999999999999          4.1807061061263084E-003
  0.13720000000000002          4.2599765583872795E-003
  0.13800000000000004          4.3340395204722881E-003
  0.13880000000000001          4.4024093076586723E-003
  0.13960000000000003          4.4646007008850574E-003
  0.14040000000000000          4.5201303437352180E-003
  0.14120000000000002          4.5685134828090668E-003
  0.14200000000000004          4.6092686243355274E-003
  0.14280000000000001          4.6419254504144192E-003
  0.14360000000000003          4.6660238876938820E-003
  0.14440000000000000          4.6811159700155258E-003
  0.14520000000000002          4.6867639757692814E-003
  0.14600000000000005          4.6825488097965717E-003
  0.14680000000000001          4.6680769883096218E-003
  0.14760000000000004          4.6429806388914585E-003
  0.14840000000000000          4.6069123782217503E-003
  0.14920000000000003          4.5595499686896801E-003
  0.14999999999999999          4.5006088912487030E-003
  0.15080000000000002          4.4298451393842697E-003
  0.15160000000000004          4.3470440432429314E-003
  0.15240000000000001          4.2520253919064999E-003
  0.15320000000000003          4.1446536779403687E-003
  0.15400000000000000          4.0248432196676731E-003
  0.15480000000000002          3.8925516419112682E-003
  0.15560000000000004          3.7477742880582809E-003
  0.15640000000000001          3.5905570257455111E-003
  0.15720000000000003          3.4210027661174536E-003
  0.15800000000000000          3.2392656430602074E-003
  0.15880000000000002          3.0455447267740965E-003
  0.15960000000000005          2.8400907758623362E-003
  0.16040000000000001          2.6232136879116297E-003
  0.16120000000000004          2.3952762130647898E-003
  0.16200000000000001          2.1566897630691528E-003
  0.16280000000000003          1.9079159246757627E-003
  0.16360000000000000          1.6494683222845197E-003
  0.16440000000000002          1.3819093583151698E-003
  0.16520000000000004          1.1058514937758446E-003
  0.16600000000000001          8.2195451250299811E-004
  0.16680000000000003          5.3092138841748238E-004
  0.16760000000000000          2.3349525872617960E-004
  0.16840000000000002         -6.9541194534394890E-005
  0.16920000000000004         -3.7736547528766096E-004
  0.17000000000000001         -6.8912270944565535E-004
  0.17080000000000004         -1.0039337212219834E-003
  0.17160000000000000         -1.3208948075771332E-003
  0.17240000000000003         -1.6390727832913399E-003
  0.17320000000000005         -1.9575140904635191E-003
  0.17400000000000002         -2.2752585355192423E-003
  0.17480000000000004         -2.5913424324244261E-003
  0.17560000000000001         -2.9047913849353790E-003
  0.17640000000000003         -3.2146233133971691E-003
  0.17720000000000000         -3.5198647528886795E-003
  0.17800000000000002         -3.8195610977709293E-003
  0.17880000000000004         -4.1127684526145458E-003
  0.17960000000000001         -4.3985513038933277E-003
  0.18040000000000003         -4.6759969554841518E-003
  0.18120000000000000         -4.9442322924733162E-003
  0.18200000000000002         -5.2024195902049541E-003
  0.18280000000000005         -5.4497467353940010E-003
  0.18360000000000001         -5.6854360736906528E-003
  0.18440000000000004         -5.9087644331157207E-003
  0.18520000000000000         -6.1190626583993435E-003
  0.18600000000000003         -6.3157090917229652E-003
  0.18680000000000005         -6.4981253817677498E-003
  0.18760000000000002         -6.6657946445047855E-003
  0.18840000000000004         -6.8182698450982571E-003
  0.18920000000000001         -6.9551644846796989E-003
  0.19000000000000003         -7.0761498063802719E-003
  0.19080000000000000         -7.1809571236371994E-003
  0.19160000000000002         -7.2693927213549614E-003
  0.19240000000000004         -7.3413369245827198E-003
  0.19320000000000001         -7.3967333883047104E-003
  0.19400000000000003         -7.4355835095047951E-003
  0.19480000000000000         -7.4579566717147827E-003
  0.19560000000000002         -7.4639995582401752E-003
  0.19640000000000005         -7.4539259076118469E-003
  0.19720000000000001         -7.4280085973441601E-003
  0.19800000000000004         -7.3865740559995174E-003
  0.19880000000000000         -7.3300143703818321E-003
  0.19960000000000003         -7.2587877511978149E-003
  0.20039999999999999         -7.1734078228473663E-003
  0.20120000000000002         -7.0744287222623825E-003
  0.20200000000000004         -6.9624488241970539E-003
  0.20280000000000001         -6.8381251767277718E-003
  0.20360000000000003         -6.7021651193499565E-003
  0.20440000000000000         -6.5553025342524052E-003
  0.20520000000000002         -6.3982941210269928E-003
  0.20600000000000004         -6.2319319695234299E-003
  0.20680000000000001         -6.0570491477847099E-003
  0.20760000000000003         -5.8744973503053188E-003
  0.20840000000000000         -5.6851278059184551E-003
  0.20920000000000002         -5.4898005910217762E-003
  0.21000000000000005         -5.2893995307385921E-003
  0.21080000000000002         -5.0848182290792465E-003
  0.21160000000000004         -4.8769391141831875E-003
  0.21240000000000001         -4.6666292473673820E-003
  0.21320000000000003         -4.4547547586262226E-003
  0.21400000000000000         -4.2421836405992508E-003
  0.21480000000000002         -4.0297592058777809E-003
  0.21560000000000004         -3.8182921707630157E-003
  0.21640000000000001         -3.6085706669837236E-003
  0.21720000000000003         -3.4013704862445593E-003
  0.21800000000000000         -3.1974406447261572E-003
  0.21880000000000002         -2.9974840581417084E-003
  0.21960000000000005         -2.8021638281643391E-003
  0.22040000000000001         -2.6121172122657299E-003
  0.22120000000000004         -2.4279488716274500E-003
  0.22200000000000000         -2.2502134088426828E-003
  0.22280000000000003         -2.0794162992388010E-003
  0.22360000000000005         -1.9160258816555142E-003
  0.22440000000000002         -1.7604751046746969E-003
  0.22520000000000004         -1.6131494194269180E-003
  0.22600000000000001         -1.4743838692083955E-003
  0.22680000000000003         -1.3444701908156276E-003
  0.22760000000000000         -1.2236598413437605E-003
  0.22840000000000002         -1.1121574789285660E-003
  0.22920000000000004         -1.0101200314238667E-003
  0.23000000000000001         -9.1766502009704709E-004
  0.23080000000000003         -8.3487073425203562E-004
  0.23160000000000000         -7.6177000300958753E-004
  0.23240000000000002         -6.9835397880524397E-004
  0.23320000000000005         -6.4458238193765283E-004
  0.23400000000000001         -6.0038309311494231E-004
  0.23480000000000004         -5.6564382975921035E-004
  0.23560000000000000         -5.4021488176658750E-004
  0.23640000000000003         -5.2392447832971811E-004
  0.23720000000000005         -5.1658024312928319E-004
  0.23800000000000002         -5.1795574836432934E-004
  0.23880000000000004         -5.2778987446799874E-004
  0.23960000000000001         -5.4580630967393517E-004
  0.24040000000000003         -5.7172332890331745E-004
  0.24120000000000000         -6.0523865977302194E-004
  0.24200000000000002         -6.4601964550092816E-004
  0.24280000000000004         -6.9371960125863552E-004
  0.24360000000000001         -7.4799428693950176E-004
  0.24440000000000003         -8.0849346704781055E-004
  0.24520000000000000         -8.7484600953757763E-004
  0.24600000000000002         -9.4666972290724516E-004
  0.24680000000000005         -1.0235930094495416E-003
  0.24760000000000001         -1.1052479967474937E-003
  0.24840000000000004         -1.1912529589608312E-003
  0.24920000000000000         -1.2812163913622499E-003
  0.25000000000000000         -1.3747579650953412E-003
  0.25080000000000002         -1.4715109718963504E-003
  0.25160000000000005         -1.5711038140580058E-003
  0.25240000000000007         -1.6731570940464735E-003
  0.25319999999999998         -1.7773003783077002E-003
  0.25400000000000000         -1.8831787165254354E-003
  0.25480000000000003         -1.9904384389519691E-003
  0.25560000000000005         -2.0987209863960743E-003
  0.25640000000000007         -2.2076743189245462E-003
  0.25719999999999998         -2.3169601336121559E-003
  0.25800000000000001         -2.4262450169771910E-003
  0.25880000000000003         -2.5351913645863533E-003
  0.25960000000000005         -2.6434673927724361E-003
  0.26040000000000008         -2.7507520280778408E-003
  0.26119999999999999         -2.8567286208271980E-003
  0.26200000000000001         -2.9610744677484035E-003
  0.26280000000000003         -3.0634682625532150E-003
  0.26360000000000006         -3.1635954510420561E-003
  0.26440000000000008         -3.2611435744911432E-003
  0.26519999999999999         -3.3557931892573833E-003
  0.26600000000000001         -3.4472257830202579E-003
  0.26680000000000004         -3.5351291298866272E-003
  0.26760000000000006         -3.6191896069794893E-003
  0.26839999999999997         -3.6990847438573837E-003
  0.26919999999999999         -3.7744904402643442E-003
  0.27000000000000002         -3.8450851570814848E-003
  0.27080000000000004         -3.9105420000851154E-003
  0.27160000000000006         -3.9705247618257999E-003
  0.27239999999999998         -4.0246918797492981E-003
  0.27320000000000000         -4.0727113373577595E-003
  0.27400000000000002         -4.1142483241856098E-003
  0.27480000000000004         -4.1489545255899429E-003
  0.27560000000000007         -4.1764774359762669E-003
  0.27639999999999998         -4.1964775882661343E-003
  0.27720000000000000         -4.2086150497198105E-003
  0.27800000000000002         -4.2125345207750797E-003
  0.27880000000000005         -4.2078816331923008E-003
  0.27960000000000007         -4.1943248361349106E-003
  0.28039999999999998         -4.1715400293469429E-003
  0.28120000000000001         -4.1391928680241108E-003
  0.28200000000000003         -4.0969466790556908E-003
  0.28280000000000005         -4.0444917976856232E-003
  0.28360000000000007         -3.9815432392060757E-003
  0.28439999999999999         -3.9078127592802048E-003
  0.28520000000000001         -3.8230121135711670E-003