 -0.14999999999999999          0.0000000000000000     
 -0.14920000000000000          0.0000000000000000     
 -0.14840000000000000          0.0000000000000000     
 -0.14759999999999998          0.0000000000000000     
 -0.14679999999999999          0.0000000000000000     
 -0.14599999999999999          0.0000000000000000     
 -0.14520000000000000          0.0000000000000000     
 -0.14440000000000000          0.0000000000000000     
 -0.14360000000000001          0.0000000000000000     
 -0.14279999999999998          0.0000000000000000     
 -0.14199999999999999          0.0000000000000000     
 -0.14119999999999999          0.0000000000000000     
 -0.14040000000000000          9.9939440595323635E-038
 -0.13960000000000000         -1.2192896944892943E-035
 -0.13880000000000001         -6.9258784056317869E-035
 -0.13799999999999998         -1.5402292405126972E-034
 -0.13719999999999999         -1.5087408463021634E-033
 -0.13639999999999999         -1.2746033652127855E-032
 -0.13560000000000000         -4.2729028634558142E-032
 -0.13480000000000000         -1.0894666783781215E-032
 -0.13400000000000001          3.3838064852403267E-031
 -0.13319999999999999          7.1110825456383789E-031
 -0.13239999999999999         -1.9310526547285713E-030
 -0.13159999999999999         -1.1873479230085218E-029
 -0.13080000000000000         -1.4870884500388217E-029
 -0.13000000000000000          5.3620020211741625E-029
 -0.12919999999999998          2.4857477050420512E-028
 -0.12839999999999999          2.9301793916099816E-028
 -0.12759999999999999         -7.8289870759567502E-028
 -0.12680000000000000         -3.7010588037569734E-027
 -0.12600000000000000         -5.0662677263454762E-027
 -0.12519999999999998          6.4819121319456143E-027
 -0.12440000000000000          4.0841926757600771E-026
 -0.12359999999999999          6.9370468178824370E-026
 -0.12279999999999999         -1.4804293763298203E-026
 -0.12200000000000000         -3.3179008961481637E-025
 -0.12119999999999999         -7.2354672283897895E-025
 -0.12039999999999999         -3.8380913077499705E-025
 -0.11960000000000000          1.8633434951040375E-024
 -0.11879999999999999          5.6885501404738069E-024
 -0.11799999999999999          6.3186251783874073E-024
 -0.11720000000000000         -5.3431103166602415E-024
 -0.11639999999999999         -3.3062157657996804E-023
 -0.11559999999999999         -5.5961805238153061E-023
 -0.11479999999999999         -1.8665253655652465E-023
 -0.11399999999999999          1.3140318631175651E-022
 -0.11320000000000000          3.4059653971075772E-022
 -0.11240000000000000          3.4778161105325554E-022
 -0.11159999999999999         -2.3116365972393470E-022
 -0.11080000000000000         -1.4620815165206485E-021
 -0.10999999999999999         -2.4471465934236841E-021
 -0.10919999999999999         -1.2057849755483131E-021
 -0.10840000000000000          3.9128712589312605E-021
 -0.10760000000000000          1.1186970742132575E-020
 -0.10679999999999999          1.3103592650064122E-020
 -0.10599999999999998         -9.5534059604591611E-022
 -0.10519999999999999         -3.3821896595387443E-020
 -0.10439999999999999         -6.6004250130860893E-020
 -0.10360000000000000         -5.3038517146518963E-020
 -0.10280000000000000          4.6667032462532823E-020
 -0.10199999999999999          2.1339433544171962E-019
 -0.10119999999999998          3.1733783829043600E-019
 -0.10039999999999999          1.5356688205168800E-019
  -9.9599999999999994E-002    -3.8886859195368878E-019
  -9.8799999999999999E-002    -1.0862467561645824E-018
  -9.7999999999999990E-002    -1.2851569135112541E-018
  -9.7199999999999995E-002    -2.1939582805382447E-019
  -9.6399999999999986E-002     2.2163179547725304E-018
  -9.5599999999999991E-002     4.6818265506184981E-018
  -9.4799999999999995E-002     4.4830149311622968E-018
  -9.4000000000000000E-002    -7.3825967898055461E-019
  -9.3199999999999991E-002    -1.0121610277047911E-017
  -9.2399999999999982E-002    -1.7594469118692820E-017
  -9.1599999999999987E-002    -1.3690677898893737E-017
  -9.0799999999999992E-002     7.5028763988938458E-018
  -8.9999999999999997E-002     3.9285857932242380E-017
  -8.9200000000000002E-002     5.8815612046954065E-017
  -8.8399999999999992E-002     3.7073639484585662E-017
  -8.7599999999999983E-002    -3.7304829848349333E-017
  -8.6799999999999988E-002    -1.3358989392044058E-016
  -8.5999999999999993E-002    -1.7741969318545316E-016
  -8.5199999999999998E-002    -8.9999599838709062E-017
  -8.4399999999999989E-002     1.4112902978148569E-016
  -8.3599999999999994E-002     4.0525801670459368E-016
  -8.2799999999999985E-002     4.8794280544693712E-016
  -8.1999999999999990E-002     1.9783983112896182E-016
  -8.1199999999999994E-002    -4.4758803825737411E-016
  -8.0399999999999985E-002    -1.1094040496442800E-015
  -7.9599999999999990E-002    -1.2317987223357503E-015
  -7.8799999999999995E-002    -3.9722973255139902E-016
  -7.7999999999999986E-002     1.2378341497222924E-015
  -7.7199999999999991E-002     2.7604428938938488E-015
  -7.6399999999999996E-002     2.8640180826841046E-015
  -7.5599999999999987E-002     7.3074935257947380E-016
  -7.4799999999999991E-002    -3.0487411454036906E-015
  -7.3999999999999996E-002    -6.2695079061311516E-015
  -7.3199999999999987E-002    -6.1314864284749051E-015
  -7.2399999999999992E-002    -1.2130066611262032E-015
  -7.1599999999999997E-002     6.7830953222704823E-015
  -7.0799999999999988E-002     1.3025386365740459E-014
  -6.9999999999999993E-002     1.2034678842939937E-014
  -6.9199999999999984E-002     1.6905663778870195E-015
  -6.8399999999999989E-002    -1.3809286559304107E-014
  -6.7599999999999993E-002    -2.4781554846392551E-014
  -6.6799999999999984E-002    -2.1456974245341945E-014
  -6.5999999999999989E-002    -1.3972496679229328E-015
  -6.5199999999999994E-002     2.6127685017157502E-014
  -6.4399999999999985E-002     4.3247239014769512E-014
  -6.3599999999999990E-002     3.4196485297318183E-014
  -6.2799999999999995E-002    -2.1434734124762362E-015
  -6.1999999999999986E-002    -4.6927495526635776E-014
  -6.1199999999999991E-002    -6.9578240738388253E-014
  -6.0399999999999995E-002    -4.7381298510324951E-014
  -5.9599999999999986E-002     1.5168515247565399E-014
  -5.8799999999999991E-002     8.2133755905430123E-014
  -5.7999999999999996E-002     1.0458704757278225E-013
  -5.7199999999999987E-002     5.4074783252490086E-014
  -5.6399999999999992E-002    -5.0254840843226220E-014
  -5.5599999999999997E-002    -1.4329153369494613E-013
  -5.4799999999999988E-002    -1.5097925893433478E-013
  -5.3999999999999992E-002    -4.4136413545215608E-014
  -5.3199999999999983E-002     1.2725282253715081E-013
  -5.2399999999999988E-002     2.5042779807325777E-013
  -5.1599999999999993E-002     2.1792748270028917E-013
  -5.0799999999999984E-002     9.7056236880938354E-015
  -4.9999999999999989E-002    -2.6849624411816320E-013
  -4.9199999999999994E-002    -4.3020282974003121E-013
  -4.8399999999999985E-002    -3.2428768871606284E-013
  -4.7599999999999990E-002     4.5731427406872291E-014
  -4.6799999999999994E-002     4.8550361864477254E-013
  -4.5999999999999985E-002     7.0258897441263790E-013
  -4.5199999999999990E-002     4.9095162614129495E-013
  -4.4399999999999995E-002    -1.0430299337985463E-013
  -4.3599999999999986E-002    -7.6332825693983808E-013
  -4.2799999999999991E-002    -1.0553515526756652E-012
  -4.1999999999999996E-002    -7.1281684981688853E-013
  -4.1199999999999987E-002     1.5419261733314732E-013
  -4.0399999999999991E-002     1.0638069201582279E-012
  -3.9599999999999982E-002     1.4246451240929048E-012
  -3.8799999999999987E-002     9.1828964137591340E-013
  -3.7999999999999992E-002    -2.4166037010039942E-013
  -3.7199999999999983E-002    -1.3731669881028585E-012
  -3.6399999999999988E-002    -1.7202096951746126E-012
  -3.5599999999999993E-002    -9.5805915284463694E-013
  -3.4799999999999984E-002     5.2281578588955768E-013
  -3.3999999999999989E-002     1.7851133982463296E-012
  -3.3199999999999993E-002     1.9179339106473181E-012
  -3.2399999999999984E-002     6.7808692688631211E-013
  -3.1599999999999989E-002    -1.2377685681963513E-012
  -3.0799999999999994E-002    -2.5389089702149148E-012
  -2.9999999999999985E-002    -2.1610679825506685E-012
  -2.9199999999999990E-002    -6.3590517400402558E-014
  -2.8399999999999995E-002     2.5600676092918384E-012
  -2.7599999999999986E-002     3.9055659747933014E-012
  -2.6799999999999990E-002     2.7220484980633453E-012
  -2.5999999999999995E-002    -7.0060342076405657E-013
  -2.5199999999999986E-002    -4.4391716864933262E-012
  -2.4399999999999977E-002    -5.9610272447330193E-012
  -2.3599999999999982E-002    -3.7559131152442582E-012
  -2.2799999999999987E-002     1.4362743850152015E-012
  -2.1999999999999992E-002     6.7095556541274526E-012
  -2.1199999999999997E-002     8.5576589217706278E-012
  -2.0400000000000001E-002     5.1184772566215120E-012
  -1.9599999999999979E-002    -2.2943144779852265E-012
  -1.8799999999999983E-002    -9.5126892474262092E-012
  -1.7999999999999988E-002    -1.1777038545768281E-011
  -1.7199999999999993E-002    -6.7563931879788264E-012
  -1.6399999999999998E-002     3.5383588420367929E-012
  -1.5599999999999975E-002     1.3365598558467973E-011
  -1.4799999999999980E-002     1.6365429844622525E-011
  -1.3999999999999985E-002     9.5239606132113686E-012
  -1.3199999999999990E-002    -4.4354888685538274E-012
  -1.2399999999999994E-002    -1.7968126986289690E-011
  -1.1599999999999999E-002    -2.2770193716659115E-011
  -1.0799999999999976E-002    -1.4807714082687440E-011
  -9.9999999999999811E-003     2.7305308621800028E-012
  -9.1999999999999860E-003     2.0619310078795472E-011
  -8.3999999999999908E-003     2.8597322426771044E-011
  -7.5999999999999956E-003     2.1437733532803094E-011
  -6.8000000000000005E-003     2.4314562949850904E-012
  -5.9999999999999776E-003    -1.8065661813726486E-011
  -5.1999999999999824E-003    -2.8478377642193742E-011
  -4.3999999999999873E-003    -2.2932086785054651E-011
  -3.5999999999999921E-003    -5.0346810054335833E-012
  -2.7999999999999969E-003     1.4006378522279928E-011
  -1.9999999999999740E-003     2.2080250822176239E-011
  -1.1999999999999789E-003     1.3780712682098795E-011
  -3.9999999999998370E-004    -5.7602256298139309E-012
   4.0000000000001146E-004    -2.3405031385204111E-011
   1.2000000000000066E-003    -2.5700323813548920E-011
   2.0000000000000018E-003    -7.3050298449173212E-012
   2.8000000000000247E-003     2.4866997350159181E-011
   3.6000000000000199E-003     5.4383109127087437E-011
   4.4000000000000150E-003     6.3497943014745317E-011
   5.2000000000000102E-003     4.2310342729390271E-011
   6.0000000000000053E-003    -5.9825976637950529E-012
   6.8000000000000005E-003    -6.6069198723095468E-011
   7.6000000000000234E-003    -1.1647570408168662E-010
   8.4000000000000186E-003    -1.3693231271094675E-010
   9.2000000000000137E-003    -1.1398365584724957E-010
   1.0000000000000009E-002    -4.4064051019088168E-011
   1.0800000000000004E-002     6.4567420854366731E-011
   1.1600000000000027E-002     1.8975328253123536E-010
   1.2400000000000022E-002     2.9452953964614892E-010
   1.3200000000000017E-002     3.3153357836823716E-010
   1.4000000000000012E-002     2.5677859838424411E-010
   1.4800000000000008E-002     5.2084465212987041E-011
   1.5600000000000003E-002    -2.5223995114842523E-010
   1.6400000000000026E-002    -5.6858368013834593E-010
   1.7200000000000021E-002    -7.6958994732478914E-010
   1.8000000000000016E-002    -7.3369726960592629E-010
   1.8800000000000011E-002    -4.0407216461701978E-010
   1.9600000000000006E-002     1.6639743749546909E-010
   2.0400000000000001E-002     8.1158746390030956E-010
   2.1200000000000024E-002     1.3018548461474211E-009
   2.2000000000000020E-002     1.4326038133560814E-009
   2.2800000000000015E-002     1.1139985600649993E-009
   2.3600000000000010E-002     4.1764833258461920E-010
   2.4400000000000005E-002    -4.4700051993196155E-010
   2.5200000000000000E-002    -1.2197262089230776E-009
   2.6000000000000023E-002    -1.6990525653071131E-009
   2.6800000000000018E-002    -1.8184594940962029E-009
   2.7600000000000013E-002    -1.6486618736877290E-009
   2.8400000000000009E-002    -1.3246975738567812E-009
   2.9200000000000004E-002    -9.3969632075641130E-010
   3.0000000000000027E-002    -4.6938269937513155E-010
   3.0800000000000022E-002     2.2227454599121899E-010
   3.1600000000000017E-002     1.2905344570768307E-009
   3.2400000000000012E-002     2.7769289090429083E-009
   3.3200000000000007E-002     4.5118850877656769E-009
   3.4000000000000002E-002     6.1161595787950773E-009
   3.4800000000000025E-002     7.1127419509764422E-009
   3.5600000000000021E-002     7.0971131194141890E-009
   3.6400000000000016E-002     5.8740310393545769E-009
   3.7200000000000011E-002     3.4789877645380329E-009
   3.8000000000000006E-002     6.1081709135102358E-011
   3.8800000000000001E-002    -4.3178154385259404E-009
   3.9600000000000024E-002    -9.8584136409840539E-009
   4.0400000000000019E-002    -1.7067407043214189E-008
   4.1200000000000014E-002    -2.6625835758409266E-008
   4.2000000000000010E-002    -3.9133190909979021E-008
   4.2800000000000005E-002    -5.4852311137665311E-008
   4.3600000000000028E-002    -7.3592680394085619E-008
   4.4400000000000023E-002    -9.4808136452684266E-008
   4.5200000000000018E-002    -1.1787884801606197E-007
   4.6000000000000013E-002    -1.4245061663586966E-007
   4.6800000000000008E-002    -1.6867032570644369E-007
   4.7600000000000003E-002    -1.9720523880550900E-007
   4.8400000000000026E-002    -2.2904541197021899E-007
   4.9200000000000021E-002    -2.6520214646552631E-007
   5.0000000000000017E-002    -3.0647316862086882E-007
   5.0800000000000012E-002    -3.5341045645509439E-007
   5.1600000000000007E-002    -4.0651502786204219E-007
   5.2400000000000002E-002    -4.6655100049974862E-007
   5.3200000000000025E-002    -5.3478896688829991E-007
   5.4000000000000020E-002    -6.1300710285649984E-007
   5.4800000000000015E-002    -7.0319697442755569E-007
   5.5600000000000011E-002    -8.0708355199021753E-007
   5.6400000000000006E-002    -9.2569570142586599E-007
   5.7200000000000029E-002    -1.0592445960355690E-006
   5.8000000000000024E-002    -1.2074596043021302E-006
   5.8800000000000019E-002    -1.3703266859010910E-006
   5.9600000000000014E-002    -1.5489691804759786E-006
   6.0400000000000009E-002    -1.7462972436987911E-006
   6.1200000000000004E-002    -1.9671026620926568E-006
   6.2000000000000027E-002    -2.2174765490490245E-006
   6.2800000000000022E-002    -2.5037109026015969E-006
   6.3600000000000018E-002    -2.8310917059570784E-006
   6.4400000000000013E-002    -3.2030859529186273E-006
   6.5200000000000008E-002    -3.6213120893080486E-006
   6.6000000000000003E-002    -4.0863828871806618E-006
   6.6800000000000026E-002    -4.5993547246325761E-006
   6.7600000000000021E-002    -5.1632437134685460E-006
   6.8400000000000016E-002    -5.7840106819639914E-006
   6.9200000000000012E-002    -6.4706127886893228E-006
   7.0000000000000007E-002    -7.2340990300290287E-006
   7.0800000000000030E-002    -8.0861400419962592E-006
   7.1600000000000025E-002    -9.0376079242560081E-006
   7.2400000000000020E-002    -1.0097845915879589E-005
   7.3200000000000015E-002    -1.1274913049419411E-005
   7.4000000000000010E-002    -1.2576698281918652E-005
   7.4800000000000005E-002    -1.4012372957949992E-005
   7.5600000000000028E-002    -1.5593541320413351E-005
   7.6400000000000023E-002    -1.7334587028017268E-005
   7.7200000000000019E-002    -1.9252156562288292E-005
   7.8000000000000014E-002    -2.1364099666243419E-005
   7.8800000000000009E-002    -2.3688486180617474E-005
   7.9600000000000004E-002    -2.6243227694067173E-005
   8.0400000000000027E-002    -2.9046514100627974E-005
   8.1200000000000022E-002    -3.2117841328727081E-005
   8.2000000000000017E-002    -3.5479082725942135E-005
   8.2800000000000012E-002    -3.9155012927949429E-005
   8.3600000000000008E-002    -4.3173033191123977E-005
   8.4400000000000031E-002    -4.7562371037201956E-005
   8.5200000000000026E-002    -5.2353174396557733E-005
   8.6000000000000021E-002    -5.7576136896386743E-005
   8.6800000000000016E-002    -6.3262901676353067E-005
   8.7600000000000011E-002    -6.9447036366909742E-005
   8.8400000000000006E-002    -7.6165066275279969E-005
   8.9200000000000029E-002    -8.3456878201104701E-005
   9.0000000000000024E-002    -9.1365240223240107E-005
   9.0800000000000020E-002    -9.9934521131217480E-005
   9.1600000000000015E-002    -1.0920946078840643E-004
   9.2400000000000010E-002    -1.1923471174668521E-004
   9.3200000000000005E-002    -1.3005564687773585E-004
   9.4000000000000028E-002    -1.4172030205372721E-004
   9.4800000000000023E-002    -1.5428129700012505E-004
   9.5600000000000018E-002    -1.6779692668933421E-004
   9.6400000000000013E-002    -1.8233044829685241E-004
   9.7200000000000009E-002    -1.9794788386207074E-004
   9.8000000000000004E-002    -2.1471500804182142E-004
   9.8800000000000027E-002    -2.3269507801160216E-004
   9.9600000000000022E-002    -2.5194816407747567E-004
  0.10040000000000002         -2.7253277949057519E-004
  0.10120000000000004         -2.9450911097228527E-004
  0.10200000000000001         -3.1794249662198126E-004
  0.10280000000000003         -3.4290491021238267E-004
  0.10360000000000000         -3.6947458283975720E-004
  0.10440000000000002         -3.9773280150257051E-004
  0.10520000000000004         -4.2775980546139181E-004
  0.10600000000000001         -4.5963097363710403E-004
  0.10680000000000003         -4.9341516569256783E-004
  0.10760000000000000         -5.2917544962838292E-004
  0.10840000000000002         -5.6697177933529019E-004
  0.10919999999999999         -6.0686434153467417E-004
  0.11000000000000001         -6.4891617512330413E-004
  0.11080000000000004         -6.9319363683462143E-004
  0.11160000000000000         -7.3976436397060752E-004
  0.11240000000000003         -7.8869349090382457E-004
  0.11320000000000000         -8.4004056407138705E-004
  0.11400000000000002         -8.9385680621489882E-004
  0.11480000000000004         -9.5018465071916580E-004
  0.11560000000000001         -1.0090580908581614E-003
  0.11640000000000003         -1.0705038439482450E-003
  0.11720000000000000         -1.1345425155013800E-003
  0.11800000000000002         -1.2011892395094037E-003
  0.11880000000000004         -1.2704526307061315E-003
  0.11960000000000001         -1.3423321070149541E-003
  0.12040000000000003         -1.4168174238875508E-003
  0.12120000000000000         -1.4938876265659928E-003
  0.12200000000000003         -1.5735110500827432E-003
  0.12279999999999999         -1.6556446207687259E-003
  0.12360000000000002         -1.7402333905920386E-003
  0.12440000000000004         -1.8272092565894127E-003
  0.12520000000000001         -1.9164906116202474E-003
  0.12600000000000003         -2.0079805981367826E-003
  0.12680000000000000         -2.1015664096921682E-003
  0.12760000000000002         -2.1971189416944981E-003
  0.12840000000000004         -2.2944917436689138E-003
  0.12920000000000001         -2.3935225326567888E-003
  0.13000000000000003         -2.4940348230302334E-003
  0.13080000000000000         -2.5958379264920950E-003
  0.13160000000000002         -2.6987260207533836E-003
  0.13240000000000005         -2.8024774510413408E-003
  0.13320000000000001         -2.9068540316075087E-003
  0.13400000000000004         -3.0115980189293623E-003
  0.13480000000000000         -3.1164332758635283E-003
  0.13560000000000003         -3.2210645731538534E-003
  0.13639999999999999         -3.3251808490604162E-003
  0.13720000000000002         -3.4284545108675957E-003
  0.13800000000000004         -3.5305439960211515E-003
  0.13880000000000001         -3.6310965660959482E-003
  0.13960000000000003         -3.7297480739653111E-003
  0.14040000000000000         -3.8261231966316700E-003
  0.14120000000000002         -3.9198328740894794E-003
  0.14200000000000004         -4.0104775689542294E-003
  0.14280000000000001         -4.0976465679705143E-003
  0.14360000000000003         -4.1809240356087685E-003
  0.14440000000000000         -4.2598885484039783E-003
  0.14520000000000002         -4.3341149576008320E-003
  0.14600000000000005         -4.4031748548150063E-003
  0.14680000000000001         -4.4666379690170288E-003
  0.14760000000000004         -4.5240735635161400E-003
  0.14840000000000000         -4.5750518329441547E-003
  0.14920000000000003         -4.6191499568521976E-003
  0.14999999999999999         -4.6559502370655537E-003
  0.15080000000000002         -4.6850447542965412E-003
  0.15160000000000004         -4.7060381621122360E-003
  0.15240000000000001         -4.7185495495796204E-003
  0.15320000000000003         -4.7222184948623180E-003
  0.15400000000000000         -4.7167045995593071E-003
  0.15480000000000002         -4.7016874887049198E-003
  0.15560000000000004         -4.6768644824624062E-003
  0.15640000000000001         -4.6419547870755196E-003
  0.15720000000000003         -4.5967018231749535E-003
  0.15800000000000000         -4.5408802106976509E-003
  0.15880000000000002         -4.4742990285158157E-003
  0.15960000000000005         -4.3967999517917633E-003
  0.16040000000000001         -4.3082591146230698E-003
  0.16120000000000004         -4.2085899040102959E-003
  0.16200000000000001         -4.0977476164698601E-003
  0.16280000000000003         -3.9757275953888893E-003
  0.16360000000000000         -3.8425666280090809E-003
  0.16440000000000002         -3.6983387544751167E-003
  0.16520000000000004         -3.5431571304798126E-003
  0.16600000000000001         -3.3771756570786238E-003
  0.16680000000000003         -3.2005929388105869E-003
  0.16760000000000000         -3.0136536806821823E-003
  0.16840000000000002         -2.8166486881673336E-003
  0.16920000000000004         -2.6099137030541897E-003
  0.17000000000000001         -2.3938268423080444E-003
  0.17080000000000004         -2.1688074339181185E-003
  0.17160000000000000         -1.9353168318048120E-003
  0.17240000000000003         -1.6938566695898771E-003
  0.17320000000000005         -1.4449665322899818E-003
  0.17400000000000002         -1.1892225593328476E-003
  0.17480000000000004         -9.2723534908145666E-004
  0.17560000000000001         -6.5964902751147747E-004
  0.17640000000000003         -3.8713822141289711E-004
  0.17720000000000000         -1.1040589743060991E-004
  0.17800000000000002          1.6981821681838483E-004
  0.17880000000000004          4.5278028119355440E-004
  0.17960000000000001          7.3770637391135097E-004
  0.18040000000000003          1.0238073300570250E-003
  0.18120000000000000          1.3102805241942406E-003
  0.18200000000000002          1.5963108744472265E-003
  0.18280000000000005          1.8810753244906664E-003
  0.18360000000000001          2.1637468598783016E-003
  0.18440000000000004          2.4435012601315975E-003
  0.18520000000000000          2.7195194270461798E-003
  0.18600000000000003          2.9909894801676273E-003
  0.18680000000000005          3.2571093179285526E-003
  0.18760000000000002          3.5170882474631071E-003
  0.18840000000000004          3.7701518740504980E-003
  0.18920000000000001          4.0155495516955853E-003
  0.19000000000000003          4.2525562457740307E-003
  0.19080000000000000          4.4804783537983894E-003
  0.19160000000000002          4.6986499801278114E-003
  0.19240000000000004          4.9064359627664089E-003
  0.19320000000000001          5.1032342016696930E-003
  0.19400000000000003          5.2884812466800213E-003
  0.19480000000000000          5.4616555571556091E-003
  0.19560000000000002          5.6222770363092422E-003
  0.19640000000000005          5.7699102908372879E-003
  0.19720000000000001          5.9041697531938553E-003
  0.19800000000000004          6.0247192159295082E-003
  0.19880000000000000          6.1312727630138397E-003
  0.19960000000000003          6.2235905788838863E-003
  0.20039999999999999          6.3014794141054153E-003
  0.20120000000000002          6.3647935166954994E-003
  0.20200000000000004          6.4134355634450912E-003
  0.20280000000000001          6.4473575912415981E-003
  0.20360000000000003          6.4665637910366058E-003
  0.20440000000000000          6.4711086452007294E-003
  0.20520000000000002          6.4610941335558891E-003
  0.20600000000000004          6.4366706646978855E-003
  0.20680000000000001          6.3980347476899624E-003
  0.20760000000000003          6.3454252667725086E-003
  0.20840000000000000          6.2791202217340469E-003
  0.20920000000000002          6.1994330026209354E-003
  0.21000000000000005          6.1067128553986549E-003
  0.21080000000000002          6.0013434849679470E-003
  0.21160000000000004          5.8837402611970901E-003
  0.21240000000000001          5.7543474249541759E-003
  0.21320000000000003          5.6136357598006725E-003
  0.21400000000000000          5.4621035233139992E-003
  0.21480000000000002          5.3002741187810898E-003
  0.21560000000000004          5.1286881789565086E-003
  0.21640000000000001          4.9478984437882900E-003
  0.21720000000000003          4.7584646381437778E-003
  0.21800000000000000          4.5609497465193272E-003
  0.21880000000000002          4.3559223413467407E-003
  0.21960000000000005          4.1439561173319817E-003
  0.22040000000000001          3.9256294257938862E-003
  0.22120000000000004          3.7015196867287159E-003
  0.22200000000000000          3.4721957053989172E-003
  0.22280000000000003          3.2382165081799030E-003
  0.22360000000000005          3.0001285485923290E-003
  0.22440000000000002          2.7584647759795189E-003
  0.22520000000000004          2.5137425400316715E-003
  0.22600000000000001          2.2664598654955626E-003
  0.22680000000000003          2.0170924253761768E-003
  0.22760000000000000          1.7660941230133176E-003
  0.22840000000000002          1.5138960443437099E-003
  0.22920000000000004          1.2609069235622883E-003
  0.23000000000000001          1.0075108148157597E-003
  0.23080000000000003          7.5406488031148911E-004
  0.23160000000000000          5.0089735304936767E-004
  0.23240000000000002          2.4830538313835859E-004
  0.23320000000000005         -3.4447782581992215E-006
  0.23400000000000001         -2.5411779643036425E-004
  0.23480000000000004         -5.0350790843367577E-004
  0.23560000000000000         -7.5143767753615975E-004
  0.23640000000000003         -9.9775637499988079E-004
  0.23720000000000005         -1.2423394946381450E-003
  0.23800000000000002         -1.4850894222036004E-003
  0.23880000000000004         -1.7259356100112200E-003
  0.23960000000000001         -1.9648333545774221E-003
  0.24040000000000003         -2.2017627488821745E-003
  0.24120000000000000         -2.4367291480302811E-003
  0.24200000000000002         -2.6697609573602676E-003
  0.24280000000000004         -2.9009049758315086E-003
  0.24360000000000001         -3.1302233692258596E-003
  0.24440000000000003         -3.3577906433492899E-003
  0.24520000000000000         -3.5836938768625259E-003
  0.24600000000000002         -3.8080306258052588E-003
  0.24680000000000005         -4.0309056639671326E-003
  0.24760000000000001         -4.2524277232587337E-003
  0.24840000000000004         -4.4727064669132233E-003
  0.24920000000000000         -4.6918536536395550E-003
  0.25000000000000000         -4.9099796451628208E-003
  0.25080000000000002         -5.1271924749016762E-003
  0.25160000000000005         -5.3435936570167542E-003
  0.25240000000000007         -5.5592688731849194E-003
  0.25319999999999998         -5.7742823846638203E-003
  0.25400000000000000         -5.9886751696467400E-003
  0.25480000000000003         -6.2024686485528946E-003
  0.25560000000000005         -6.4156665466725826E-003
  0.25640000000000007         -6.6282521001994610E-003
  0.25719999999999998         -6.8401801399886608E-003
  0.25800000000000001         -7.0513719692826271E-003
  0.25880000000000003         -7.2617135010659695E-003
  0.25960000000000005         -7.4710538610816002E-003
  0.26040000000000008         -7.6792058534920216E-003
  0.26119999999999999         -7.8859403729438782E-003
  0.26200000000000001         -8.0909887328743935E-003
  0.26280000000000003         -8.2940375432372093E-003
  0.26360000000000006         -8.4947291761636734E-003
  0.26440000000000008         -8.6926640942692757E-003
  0.26519999999999999         -8.8874008506536484E-003
  0.26600000000000001         -9.0784514322876930E-003
  0.26680000000000004         -9.2652849853038788E-003
  0.26760000000000006         -9.4473212957382202E-003
  0.26839999999999997         -9.6239307895302773E-003
  0.26919999999999999         -9.7944438457489014E-003
  0.27000000000000002         -9.9581461399793625E-003
  0.27080000000000004         -1.0114287026226521E-002
  0.27160000000000006         -1.0262078605592251E-002
  0.27239999999999998         -1.0400699451565742E-002
  0.27320000000000000         -1.0529295541346073E-002
  0.27400000000000002         -1.0646982118487358E-002
  0.27480000000000004         -1.0752848349511623E-002
  0.27560000000000007         -1.0845959186553955E-002
  0.27639999999999998         -1.0925360023975372E-002
  0.27720000000000000         -1.0990083217620850E-002
  0.27800000000000002         -1.1039154604077339E-002
  0.27880000000000005         -1.1071600019931793E-002
  0.27960000000000007         -1.1086449958384037E-002
  0.28039999999999998         -1.1082738637924194E-002
  0.28120000000000001         -1.1059517972171307E-002
  0.28200000000000003         -1.1015857569873333E-002
  0.28280000000000005         -1.0950853116810322E-002
  0.28360000000000007         -1.0863631963729858E-002
  0.28439999999999999         -1.0753360576927662E-002
  0.28520000000000001         -1.0619250126183033E-002