  -4.0000000000000001E-002     0.0000000000000000     
  -3.9899999999999998E-002     0.0000000000000000     
  -3.9800000000000002E-002     0.0000000000000000     
  -3.9699999999999999E-002     0.0000000000000000     
  -3.9600000000000003E-002     0.0000000000000000     
  -3.9500000000000000E-002     0.0000000000000000     
  -3.9399999999999998E-002     0.0000000000000000     
  -3.9300000000000002E-002     0.0000000000000000     
  -3.9199999999999999E-002     0.0000000000000000     
  -3.9100000000000003E-002     0.0000000000000000     
  -3.9000000000000000E-002     0.0000000000000000     
  -3.8900000000000004E-002     0.0000000000000000     
  -3.8800000000000001E-002     0.0000000000000000     
  -3.8699999999999998E-002     0.0000000000000000     
  -3.8600000000000002E-002     0.0000000000000000     
  -3.8500000000000000E-002     0.0000000000000000     
  -3.8400000000000004E-002     0.0000000000000000     
  -3.8300000000000001E-002     0.0000000000000000     
  -3.8199999999999998E-002     0.0000000000000000     
  -3.8100000000000002E-002     0.0000000000000000     
  -3.7999999999999999E-002     0.0000000000000000     
  -3.7900000000000003E-002     0.0000000000000000     
  -3.7800000000000000E-002     0.0000000000000000     
  -3.7699999999999997E-002     0.0000000000000000     
  -3.7600000000000001E-002     0.0000000000000000     
  -3.7499999999999999E-002     0.0000000000000000     
  -3.7400000000000003E-002     0.0000000000000000     
  -3.7300000000000000E-002     0.0000000000000000     
  -3.7200000000000004E-002     0.0000000000000000     
  -3.7100000000000001E-002     0.0000000000000000     
  -3.6999999999999998E-002     0.0000000000000000     
  -3.6900000000000002E-002     0.0000000000000000     
  -3.6799999999999999E-002     0.0000000000000000     
  -3.6700000000000003E-002     0.0000000000000000     
  -3.6600000000000001E-002     0.0000000000000000     
  -3.6499999999999998E-002     0.0000000000000000     
  -3.6400000000000002E-002     0.0000000000000000     
  -3.6299999999999999E-002     0.0000000000000000     
  -3.6200000000000003E-002     0.0000000000000000     
  -3.6100000000000000E-002     0.0000000000000000     
  -3.6000000000000004E-002     0.0000000000000000     
  -3.5900000000000001E-002     0.0000000000000000     
  -3.5799999999999998E-002     0.0000000000000000     
  -3.5700000000000003E-002     0.0000000000000000     
  -3.5600000000000000E-002     0.0000000000000000     
  -3.5500000000000004E-002     0.0000000000000000     
  -3.5400000000000001E-002     0.0000000000000000     
  -3.5299999999999998E-002     0.0000000000000000     
  -3.5200000000000002E-002     0.0000000000000000     
  -3.5099999999999999E-002     0.0000000000000000     
  -3.5000000000000003E-002     0.0000000000000000     
  -3.4900000000000000E-002     0.0000000000000000     
  -3.4799999999999998E-002     0.0000000000000000     
  -3.4700000000000002E-002     0.0000000000000000     
  -3.4599999999999999E-002     0.0000000000000000     
  -3.4500000000000003E-002     0.0000000000000000     
  -3.4400000000000000E-002     0.0000000000000000     
  -3.4299999999999997E-002     0.0000000000000000     
  -3.4200000000000001E-002     0.0000000000000000     
  -3.4099999999999998E-002     0.0000000000000000     
  -3.4000000000000002E-002     0.0000000000000000     
  -3.3900000000000000E-002     0.0000000000000000     
  -3.3799999999999997E-002     0.0000000000000000     
  -3.3700000000000001E-002     0.0000000000000000     
  -3.3599999999999998E-002     0.0000000000000000     
  -3.3500000000000002E-002     0.0000000000000000     
  -3.3399999999999999E-002     0.0000000000000000     
  -3.3300000000000003E-002     0.0000000000000000     
  -3.3200000000000000E-002     0.0000000000000000     
  -3.3099999999999997E-002     0.0000000000000000     
  -3.3000000000000002E-002     0.0000000000000000     
  -3.2899999999999999E-002     0.0000000000000000     
  -3.2800000000000003E-002     0.0000000000000000     
  -3.2700000000000000E-002     0.0000000000000000     
  -3.2600000000000004E-002     0.0000000000000000     
  -3.2500000000000001E-002     0.0000000000000000     
  -3.2399999999999998E-002     0.0000000000000000     
  -3.2300000000000002E-002     0.0000000000000000     
  -3.2199999999999999E-002     0.0000000000000000     
  -3.2100000000000004E-002     0.0000000000000000     
  -3.2000000000000001E-002     0.0000000000000000     
  -3.1899999999999998E-002     0.0000000000000000     
  -3.1800000000000002E-002     0.0000000000000000     
  -3.1699999999999999E-002     0.0000000000000000     
  -3.1600000000000003E-002     0.0000000000000000     
  -3.1500000000000000E-002     0.0000000000000000     
  -3.1399999999999997E-002     0.0000000000000000     
  -3.1300000000000001E-002     0.0000000000000000     
  -3.1199999999999999E-002     0.0000000000000000     
  -3.1100000000000003E-002     0.0000000000000000     
  -3.1000000000000000E-002     0.0000000000000000     
  -3.0900000000000000E-002     0.0000000000000000     
  -3.0800000000000001E-002     0.0000000000000000     
  -3.0699999999999998E-002     0.0000000000000000     
  -3.0600000000000002E-002     0.0000000000000000     
  -3.0499999999999999E-002     0.0000000000000000     
  -3.0400000000000000E-002     0.0000000000000000     
  -3.0300000000000001E-002     0.0000000000000000     
  -3.0200000000000001E-002     0.0000000000000000     
  -3.0100000000000002E-002     0.0000000000000000     
  -2.9999999999999999E-002     0.0000000000000000     
  -2.9899999999999999E-002     0.0000000000000000     
  -2.9800000000000000E-002     0.0000000000000000     
  -2.9700000000000001E-002     0.0000000000000000     
  -2.9600000000000001E-002     0.0000000000000000     
  -2.9499999999999998E-002     0.0000000000000000     
  -2.9400000000000003E-002     0.0000000000000000     
  -2.9300000000000000E-002     0.0000000000000000     
  -2.9200000000000000E-002     0.0000000000000000     
  -2.9100000000000001E-002     0.0000000000000000     
  -2.8999999999999998E-002     0.0000000000000000     
  -2.8900000000000002E-002     0.0000000000000000     
  -2.8799999999999999E-002     0.0000000000000000     
  -2.8700000000000000E-002     0.0000000000000000     
  -2.8600000000000000E-002     0.0000000000000000     
  -2.8500000000000001E-002     0.0000000000000000     
  -2.8400000000000002E-002     0.0000000000000000     
  -2.8299999999999999E-002     0.0000000000000000     
  -2.8200000000000003E-002     0.0000000000000000     
  -2.8100000000000000E-002     0.0000000000000000     
  -2.8000000000000001E-002     0.0000000000000000     
  -2.7900000000000001E-002     0.0000000000000000     
  -2.7799999999999998E-002     0.0000000000000000     
  -2.7700000000000002E-002     0.0000000000000000     
  -2.7600000000000000E-002     0.0000000000000000     
  -2.7500000000000000E-002     0.0000000000000000     
  -2.7400000000000001E-002     0.0000000000000000     
  -2.7299999999999998E-002     0.0000000000000000     
  -2.7200000000000002E-002     0.0000000000000000     
  -2.7099999999999999E-002     0.0000000000000000     
  -2.7000000000000000E-002     0.0000000000000000     
  -2.6900000000000000E-002     0.0000000000000000     
  -2.6800000000000001E-002     0.0000000000000000     
  -2.6700000000000002E-002     0.0000000000000000     
  -2.6599999999999999E-002     0.0000000000000000     
  -2.6500000000000003E-002     0.0000000000000000     
  -2.6400000000000000E-002     0.0000000000000000     
  -2.6300000000000000E-002     0.0000000000000000     
  -2.6200000000000001E-002     0.0000000000000000     
  -2.6099999999999998E-002     0.0000000000000000     
  -2.6000000000000002E-002     0.0000000000000000     
  -2.5899999999999999E-002     0.0000000000000000     
  -2.5800000000000000E-002     0.0000000000000000     
  -2.5700000000000001E-002     0.0000000000000000     
  -2.5599999999999998E-002     0.0000000000000000     
  -2.5500000000000002E-002     0.0000000000000000     
  -2.5399999999999999E-002     0.0000000000000000     
  -2.5300000000000000E-002     0.0000000000000000     
  -2.5200000000000000E-002     0.0000000000000000     
  -2.5100000000000001E-002     0.0000000000000000     
  -2.5000000000000001E-002     0.0000000000000000     
  -2.4899999999999999E-002     0.0000000000000000     
  -2.4800000000000003E-002     0.0000000000000000     
  -2.4700000000000000E-002     0.0000000000000000     
  -2.4600000000000000E-002     0.0000000000000000     
  -2.4500000000000001E-002     0.0000000000000000     
  -2.4399999999999998E-002     0.0000000000000000     
  -2.4299999999999999E-002     0.0000000000000000     
  -2.4199999999999999E-002     0.0000000000000000     
  -2.4100000000000000E-002     0.0000000000000000     
  -2.4000000000000000E-002     0.0000000000000000     
  -2.3900000000000001E-002     0.0000000000000000     
  -2.3800000000000002E-002     0.0000000000000000     
  -2.3699999999999999E-002     0.0000000000000000     
  -2.3599999999999999E-002     0.0000000000000000     
  -2.3500000000000000E-002     0.0000000000000000     
  -2.3400000000000001E-002     0.0000000000000000     
  -2.3300000000000001E-002     0.0000000000000000     
  -2.3199999999999998E-002     0.0000000000000000     
  -2.3099999999999999E-002     0.0000000000000000     
  -2.3000000000000000E-002     0.0000000000000000     
  -2.2900000000000000E-002     0.0000000000000000     
  -2.2800000000000001E-002     0.0000000000000000     
  -2.2700000000000001E-002     0.0000000000000000     
  -2.2599999999999999E-002     0.0000000000000000     
  -2.2499999999999999E-002     0.0000000000000000     
  -2.2400000000000000E-002     0.0000000000000000     
  -2.2300000000000000E-002     0.0000000000000000     
  -2.2200000000000001E-002     0.0000000000000000     
  -2.2100000000000002E-002     0.0000000000000000     
  -2.1999999999999999E-002     0.0000000000000000     
  -2.1899999999999999E-002     0.0000000000000000     
  -2.1800000000000000E-002     0.0000000000000000     
  -2.1700000000000001E-002     0.0000000000000000     
  -2.1600000000000001E-002     0.0000000000000000     
  -2.1499999999999998E-002     0.0000000000000000     
  -2.1399999999999999E-002     0.0000000000000000     
  -2.1299999999999999E-002     0.0000000000000000     
  -2.1200000000000000E-002     0.0000000000000000     
  -2.1100000000000001E-002     0.0000000000000000     
  -2.1000000000000001E-002     0.0000000000000000     
  -2.0899999999999998E-002     0.0000000000000000     
  -2.0799999999999999E-002     0.0000000000000000     
  -2.0700000000000000E-002     0.0000000000000000     
  -2.0600000000000000E-002     0.0000000000000000     
  -2.0500000000000001E-002     0.0000000000000000     
  -2.0400000000000001E-002     0.0000000000000000     
  -2.0299999999999999E-002     0.0000000000000000     
  -2.0199999999999999E-002     0.0000000000000000     
  -2.0100000000000000E-002     0.0000000000000000     
  -2.0000000000000000E-002     0.0000000000000000     
  -1.9900000000000001E-002     0.0000000000000000     
  -1.9799999999999998E-002     0.0000000000000000     
  -1.9699999999999999E-002     0.0000000000000000     
  -1.9599999999999999E-002     0.0000000000000000     
  -1.9500000000000000E-002     0.0000000000000000     
  -1.9400000000000001E-002     0.0000000000000000     
  -1.9300000000000001E-002     0.0000000000000000     
  -1.9199999999999998E-002     0.0000000000000000     
  -1.9099999999999999E-002     0.0000000000000000     
  -1.9000000000000000E-002     0.0000000000000000     
  -1.8900000000000000E-002     0.0000000000000000     
  -1.8800000000000001E-002     0.0000000000000000     
  -1.8700000000000001E-002     0.0000000000000000     
  -1.8599999999999998E-002     0.0000000000000000     
  -1.8499999999999999E-002     0.0000000000000000     
  -1.8400000000000000E-002     0.0000000000000000     
  -1.8300000000000000E-002     0.0000000000000000     
  -1.8200000000000001E-002     0.0000000000000000     
  -1.8100000000000002E-002     0.0000000000000000     
  -1.7999999999999999E-002     0.0000000000000000     
  -1.7899999999999999E-002     0.0000000000000000     
  -1.7800000000000000E-002     0.0000000000000000     
  -1.7700000000000000E-002     0.0000000000000000     
  -1.7600000000000001E-002     0.0000000000000000     
  -1.7499999999999998E-002     0.0000000000000000     
  -1.7399999999999999E-002     0.0000000000000000     
  -1.7299999999999999E-002     0.0000000000000000     
  -1.7200000000000000E-002     0.0000000000000000     
  -1.7100000000000001E-002     0.0000000000000000     
  -1.7000000000000001E-002     0.0000000000000000     
  -1.6899999999999998E-002     0.0000000000000000     
  -1.6799999999999999E-002     0.0000000000000000     
  -1.6700000000000000E-002     0.0000000000000000     
  -1.6600000000000000E-002     0.0000000000000000     
  -1.6500000000000001E-002     0.0000000000000000     
  -1.6400000000000001E-002     0.0000000000000000     
  -1.6299999999999999E-002     0.0000000000000000     
  -1.6199999999999999E-002     0.0000000000000000     
  -1.6100000000000000E-002     0.0000000000000000     
  -1.6000000000000000E-002     0.0000000000000000     
  -1.5900000000000001E-002     0.0000000000000000     
  -1.5799999999999998E-002     0.0000000000000000     
  -1.5699999999999999E-002     0.0000000000000000     
  -1.5599999999999999E-002     0.0000000000000000     
  -1.5500000000000000E-002     0.0000000000000000     
  -1.5400000000000000E-002     0.0000000000000000     
  -1.5300000000000001E-002     0.0000000000000000     
  -1.5199999999999998E-002     0.0000000000000000     
  -1.5099999999999999E-002     0.0000000000000000     
  -1.4999999999999999E-002     0.0000000000000000     
  -1.4900000000000000E-002     0.0000000000000000     
  -1.4800000000000001E-002     0.0000000000000000     
  -1.4700000000000001E-002     0.0000000000000000     
  -1.4599999999999998E-002     0.0000000000000000     
  -1.4499999999999999E-002     0.0000000000000000     
  -1.4400000000000000E-002     0.0000000000000000     
  -1.4300000000000000E-002     0.0000000000000000     
  -1.4200000000000001E-002     0.0000000000000000     
  -1.4099999999999998E-002     0.0000000000000000     
  -1.3999999999999999E-002     0.0000000000000000     
  -1.3899999999999999E-002     0.0000000000000000     
  -1.3800000000000000E-002     0.0000000000000000     
  -1.3700000000000000E-002     0.0000000000000000     
  -1.3600000000000001E-002     0.0000000000000000     
  -1.3499999999999998E-002     0.0000000000000000     
  -1.3399999999999999E-002     0.0000000000000000     
  -1.3299999999999999E-002     0.0000000000000000     
  -1.3200000000000000E-002     0.0000000000000000     
  -1.3100000000000001E-002     0.0000000000000000     
  -1.3000000000000001E-002     0.0000000000000000     
  -1.2899999999999998E-002     0.0000000000000000     
  -1.2799999999999999E-002     0.0000000000000000     
  -1.2699999999999999E-002     0.0000000000000000     
  -1.2600000000000000E-002     0.0000000000000000     
  -1.2500000000000001E-002     0.0000000000000000     
  -1.2399999999999998E-002     0.0000000000000000     
  -1.2299999999999998E-002     0.0000000000000000     
  -1.2199999999999999E-002     0.0000000000000000     
  -1.2100000000000000E-002     0.0000000000000000     
  -1.2000000000000000E-002     0.0000000000000000     
  -1.1900000000000001E-002     0.0000000000000000     
  -1.1799999999999998E-002     0.0000000000000000     
  -1.1699999999999999E-002     0.0000000000000000     
  -1.1599999999999999E-002     0.0000000000000000     
  -1.1500000000000000E-002     0.0000000000000000     
  -1.1400000000000000E-002     0.0000000000000000     
  -1.1300000000000001E-002     0.0000000000000000     
  -1.1199999999999998E-002     0.0000000000000000     
  -1.1099999999999999E-002     0.0000000000000000     
  -1.0999999999999999E-002     0.0000000000000000     
  -1.0900000000000000E-002     0.0000000000000000     
  -1.0800000000000001E-002     0.0000000000000000     
  -1.0699999999999998E-002     0.0000000000000000     
  -1.0599999999999998E-002     0.0000000000000000     
  -1.0499999999999999E-002     0.0000000000000000     
  -1.0400000000000000E-002     0.0000000000000000     
  -1.0300000000000000E-002     0.0000000000000000     
  -1.0200000000000001E-002     0.0000000000000000     
  -1.0099999999999998E-002     0.0000000000000000     
  -9.9999999999999985E-003     0.0000000000000000     
  -9.8999999999999991E-003     0.0000000000000000     
  -9.7999999999999997E-003     0.0000000000000000     
  -9.7000000000000003E-003     0.0000000000000000     
  -9.6000000000000009E-003     0.0000000000000000     
  -9.4999999999999980E-003     0.0000000000000000     
  -9.3999999999999986E-003     0.0000000000000000     
  -9.2999999999999992E-003     0.0000000000000000     
  -9.1999999999999998E-003     0.0000000000000000     
  -9.1000000000000004E-003     0.0000000000000000     
  -9.0000000000000011E-003     0.0000000000000000     
  -8.8999999999999982E-003     0.0000000000000000     
  -8.7999999999999988E-003     0.0000000000000000     
  -8.6999999999999994E-003     0.0000000000000000     
  -8.5999999999999965E-003     0.0000000000000000     
  -8.5000000000000006E-003     0.0000000000000000     
  -8.3999999999999977E-003     0.0000000000000000     
  -8.3000000000000018E-003     0.0000000000000000     
  -8.1999999999999990E-003     0.0000000000000000     
  -8.0999999999999961E-003     0.0000000000000000     
  -8.0000000000000002E-003     0.0000000000000000     
  -7.8999999999999973E-003     0.0000000000000000     
  -7.8000000000000014E-003     0.0000000000000000     
  -7.6999999999999985E-003     0.0000000000000000     
  -7.6000000000000026E-003     0.0000000000000000     
  -7.4999999999999997E-003     0.0000000000000000     
  -7.3999999999999969E-003     0.0000000000000000     
  -7.3000000000000009E-003     0.0000000000000000     
  -7.1999999999999981E-003     0.0000000000000000     
  -7.1000000000000021E-003     0.0000000000000000     
  -6.9999999999999993E-003     0.0000000000000000     
  -6.8999999999999964E-003     0.0000000000000000     
  -6.8000000000000005E-003     0.0000000000000000     
  -6.6999999999999976E-003     0.0000000000000000     
  -6.6000000000000017E-003     0.0000000000000000     
  -6.4999999999999988E-003     0.0000000000000000     
  -6.3999999999999960E-003     0.0000000000000000     
  -6.3000000000000000E-003     0.0000000000000000     
  -6.1999999999999972E-003     0.0000000000000000     
  -6.1000000000000013E-003     0.0000000000000000     
  -5.9999999999999984E-003     0.0000000000000000     
  -5.9000000000000025E-003     0.0000000000000000     
  -5.7999999999999996E-003     0.0000000000000000     
  -5.6999999999999967E-003     0.0000000000000000     
  -5.6000000000000008E-003     0.0000000000000000     
  -5.4999999999999979E-003     0.0000000000000000     
  -5.4000000000000020E-003     0.0000000000000000     
  -5.2999999999999992E-003     0.0000000000000000     
  -5.1999999999999963E-003     0.0000000000000000     
  -5.1000000000000004E-003     0.0000000000000000     
  -4.9999999999999975E-003     0.0000000000000000     
  -4.9000000000000016E-003     0.0000000000000000     
  -4.7999999999999987E-003     0.0000000000000000     
  -4.6999999999999958E-003     0.0000000000000000     
  -4.5999999999999999E-003     0.0000000000000000     
  -4.4999999999999971E-003     0.0000000000000000     
  -4.4000000000000011E-003     0.0000000000000000     
  -4.2999999999999983E-003     0.0000000000000000     
  -4.2000000000000023E-003     0.0000000000000000     
  -4.0999999999999995E-003     0.0000000000000000     
  -3.9999999999999966E-003     0.0000000000000000     
  -3.9000000000000007E-003     0.0000000000000000     
  -3.7999999999999978E-003     0.0000000000000000     
  -3.7000000000000019E-003     0.0000000000000000     
  -3.5999999999999990E-003     0.0000000000000000     
  -3.4999999999999962E-003     0.0000000000000000     
  -3.4000000000000002E-003     0.0000000000000000     
  -3.2999999999999974E-003     0.0000000000000000     
  -3.2000000000000015E-003     0.0000000000000000     
  -3.0999999999999986E-003     0.0000000000000000     
  -2.9999999999999957E-003     0.0000000000000000     
  -2.8999999999999998E-003     0.0000000000000000     
  -2.7999999999999969E-003     0.0000000000000000     
  -2.7000000000000010E-003     0.0000000000000000     
  -2.5999999999999981E-003     0.0000000000000000     
  -2.5000000000000022E-003     0.0000000000000000     
  -2.3999999999999994E-003     0.0000000000000000     
  -2.2999999999999965E-003     0.0000000000000000     
  -2.2000000000000006E-003     0.0000000000000000     
  -2.0999999999999977E-003     0.0000000000000000     
  -2.0000000000000018E-003     0.0000000000000000     
  -1.8999999999999989E-003     0.0000000000000000     
  -1.7999999999999960E-003     0.0000000000000000     
  -1.7000000000000001E-003     0.0000000000000000     
  -1.5999999999999973E-003     0.0000000000000000     
  -1.5000000000000013E-003     0.0000000000000000     
  -1.3999999999999985E-003     0.0000000000000000     
  -1.2999999999999956E-003     0.0000000000000000     
  -1.1999999999999997E-003     0.0000000000000000     
  -1.0999999999999968E-003     0.0000000000000000     
  -1.0000000000000009E-003     0.0000000000000000     
  -8.9999999999999802E-004     0.0000000000000000     
  -8.0000000000000210E-004     0.0000000000000000     
  -6.9999999999999923E-004     0.0000000000000000     
  -5.9999999999999637E-004     0.0000000000000000     
  -5.0000000000000044E-004     0.0000000000000000     
  -3.9999999999999758E-004     0.0000000000000000     
  -3.0000000000000165E-004     0.0000000000000000     
  -1.9999999999999879E-004     0.0000000000000000     
  -9.9999999999995925E-005     0.0000000000000000     
   0.0000000000000000          0.0000000000000000     
   1.0000000000000286E-004     0.0000000000000000     
   1.9999999999999879E-004     0.0000000000000000     
   3.0000000000000165E-004     0.0000000000000000     
   4.0000000000000452E-004     0.0000000000000000     
   5.0000000000000044E-004     0.0000000000000000     
   6.0000000000000331E-004     0.0000000000000000     
   6.9999999999999923E-004     0.0000000000000000     
   8.0000000000000210E-004     0.0000000000000000     
   8.9999999999999802E-004     0.0000000000000000     
   1.0000000000000009E-003     0.0000000000000000     
   1.1000000000000038E-003     0.0000000000000000     
   1.1999999999999997E-003     0.0000000000000000     
   1.3000000000000025E-003     0.0000000000000000     
   1.3999999999999985E-003     0.0000000000000000     
   1.5000000000000013E-003     0.0000000000000000     
   1.6000000000000042E-003     0.0000000000000000     
   1.7000000000000001E-003     0.0000000000000000     
   1.8000000000000030E-003     0.0000000000000000     
   1.8999999999999989E-003     0.0000000000000000     
   2.0000000000000018E-003     0.0000000000000000     
   2.1000000000000046E-003     0.0000000000000000     
   2.2000000000000006E-003     0.0000000000000000     
   2.3000000000000034E-003     0.0000000000000000     
   2.3999999999999994E-003     0.0000000000000000     
   2.5000000000000022E-003     0.0000000000000000     
   2.5999999999999981E-003     0.0000000000000000     
   2.7000000000000010E-003     0.0000000000000000     
   2.8000000000000039E-003     0.0000000000000000     
   2.8999999999999998E-003     0.0000000000000000     
   3.0000000000000027E-003     0.0000000000000000     
   3.0999999999999986E-003     0.0000000000000000     
   3.2000000000000015E-003     0.0000000000000000     
   3.3000000000000043E-003     0.0000000000000000     
   3.4000000000000002E-003     0.0000000000000000     
   3.5000000000000031E-003     0.0000000000000000     
   3.5999999999999990E-003     0.0000000000000000     
   3.7000000000000019E-003     0.0000000000000000     
   3.7999999999999978E-003     0.0000000000000000     
   3.9000000000000007E-003     0.0000000000000000     
   4.0000000000000036E-003     0.0000000000000000     
   4.0999999999999995E-003     0.0000000000000000     
   4.2000000000000023E-003     0.0000000000000000     
   4.2999999999999983E-003     0.0000000000000000     
   4.4000000000000011E-003     0.0000000000000000     
   4.5000000000000040E-003     0.0000000000000000     
   4.5999999999999999E-003     0.0000000000000000     
   4.7000000000000028E-003     0.0000000000000000     
   4.7999999999999987E-003     0.0000000000000000     
   4.9000000000000016E-003     0.0000000000000000     
   5.0000000000000044E-003     0.0000000000000000     
   5.1000000000000004E-003     0.0000000000000000     
   5.2000000000000032E-003     0.0000000000000000     
   5.2999999999999992E-003     0.0000000000000000     
   5.4000000000000020E-003     0.0000000000000000     
   5.4999999999999979E-003     0.0000000000000000     
   5.6000000000000008E-003     0.0000000000000000     
   5.7000000000000037E-003     0.0000000000000000     
   5.7999999999999996E-003     0.0000000000000000     
   5.9000000000000025E-003     0.0000000000000000     
   5.9999999999999984E-003     0.0000000000000000     
   6.1000000000000013E-003     0.0000000000000000     
   6.2000000000000041E-003     0.0000000000000000     
   6.3000000000000000E-003     0.0000000000000000     
   6.4000000000000029E-003     0.0000000000000000     
   6.4999999999999988E-003     0.0000000000000000     
   6.6000000000000017E-003     0.0000000000000000     
   6.7000000000000046E-003     0.0000000000000000     
   6.8000000000000005E-003     0.0000000000000000     
   6.9000000000000034E-003     0.0000000000000000     
   6.9999999999999993E-003     0.0000000000000000     
   7.1000000000000021E-003     0.0000000000000000     
   7.1999999999999981E-003     0.0000000000000000     
   7.3000000000000009E-003     0.0000000000000000     
   7.4000000000000038E-003     0.0000000000000000     
   7.4999999999999997E-003     0.0000000000000000     
   7.6000000000000026E-003     0.0000000000000000     
   7.6999999999999985E-003     0.0000000000000000     
   7.8000000000000014E-003     0.0000000000000000     
   7.9000000000000042E-003     0.0000000000000000     
   8.0000000000000002E-003     0.0000000000000000     
   8.1000000000000030E-003     0.0000000000000000     
   8.1999999999999990E-003     0.0000000000000000     
   8.3000000000000018E-003     0.0000000000000000     
   8.4000000000000047E-003     0.0000000000000000     
   8.5000000000000006E-003     0.0000000000000000     
   8.6000000000000035E-003     0.0000000000000000     
   8.6999999999999994E-003     0.0000000000000000     
   8.8000000000000023E-003     0.0000000000000000     
   8.8999999999999982E-003     0.0000000000000000     
   9.0000000000000011E-003     0.0000000000000000     
   9.1000000000000039E-003     0.0000000000000000     
   9.1999999999999998E-003     0.0000000000000000     
   9.3000000000000027E-003     0.0000000000000000     
   9.3999999999999986E-003     0.0000000000000000     
   9.5000000000000015E-003     0.0000000000000000     
   9.6000000000000044E-003     0.0000000000000000     
   9.7000000000000003E-003     0.0000000000000000     
   9.8000000000000032E-003     0.0000000000000000     
   9.8999999999999991E-003     0.0000000000000000     
   1.0000000000000002E-002     0.0000000000000000     
   1.0100000000000005E-002     0.0000000000000000     
   1.0200000000000001E-002     0.0000000000000000     
   1.0300000000000004E-002     0.0000000000000000     
   1.0400000000000000E-002     0.0000000000000000     
   1.0500000000000002E-002     0.0000000000000000     
   1.0599999999999998E-002     0.0000000000000000     
   1.0700000000000001E-002     0.0000000000000000     
   1.0800000000000004E-002     0.0000000000000000     
   1.0900000000000000E-002     0.0000000000000000     
   1.1000000000000003E-002     0.0000000000000000     
   1.1099999999999999E-002     0.0000000000000000     
   1.1200000000000002E-002     0.0000000000000000     
   1.1300000000000004E-002     0.0000000000000000     
   1.1400000000000000E-002     0.0000000000000000     
   1.1500000000000003E-002     0.0000000000000000     
   1.1599999999999999E-002     0.0000000000000000     
   1.1700000000000002E-002     0.0000000000000000     
   1.1800000000000005E-002     0.0000000000000000     
   1.1900000000000001E-002     0.0000000000000000     
   1.2000000000000004E-002     0.0000000000000000     
   1.2100000000000000E-002     0.0000000000000000     
   1.2200000000000003E-002     0.0000000000000000     
   1.2299999999999998E-002     0.0000000000000000     
   1.2400000000000001E-002     0.0000000000000000     
   1.2500000000000004E-002     0.0000000000000000     
   1.2600000000000000E-002     0.0000000000000000     
   1.2700000000000003E-002     0.0000000000000000     
   1.2799999999999999E-002     0.0000000000000000     
   1.2900000000000002E-002     0.0000000000000000     
   1.3000000000000005E-002     0.0000000000000000     
   1.3100000000000001E-002     0.0000000000000000     
   1.3200000000000003E-002     0.0000000000000000     
   1.3299999999999999E-002     0.0000000000000000     
   1.3400000000000002E-002     0.0000000000000000     
   1.3500000000000005E-002     0.0000000000000000     
   1.3600000000000001E-002     0.0000000000000000     
   1.3700000000000004E-002     0.0000000000000000     
   1.3800000000000000E-002     0.0000000000000000     
   1.3900000000000003E-002     0.0000000000000000     
   1.3999999999999999E-002     0.0000000000000000     
   1.4100000000000001E-002     0.0000000000000000     
   1.4200000000000004E-002     0.0000000000000000     
   1.4300000000000000E-002     0.0000000000000000     
   1.4400000000000003E-002     0.0000000000000000     