 -0.150000006         0.00000000    
 -0.149200007         0.00000000    
 -0.148399994         0.00000000    
 -0.147599995         0.00000000    
 -0.146799996         0.00000000    
 -0.145999998         0.00000000    
 -0.145199999         0.00000000    
 -0.144400001         0.00000000    
 -0.143600002         0.00000000    
 -0.142800003         0.00000000    
 -0.142000005         0.00000000    
 -0.141200006         1.65217293E-38
 -0.140400007        -1.71596082E-37
 -0.139599994         2.17521929E-35
 -0.138799995         1.28810200E-34
 -0.137999997         3.25508391E-34
 -0.137199998         2.87677043E-33
 -0.136399999         2.32847828E-32
 -0.135600001         8.03067413E-32
 -0.134800002         4.42331795E-32
 -0.134000003        -5.33776703E-31
 -0.133200005        -1.27262677E-30
 -0.132400006         2.81246239E-30
 -0.131600007         1.96765537E-29
 -0.130799994         2.85049398E-29
 -0.129999995        -7.71717842E-29
 -0.129199997        -4.08923268E-28
 -0.128399998        -5.66077611E-28
 -0.127599999         1.04294682E-27
 -0.126800001         5.94062644E-27
 -0.126000002         9.42152064E-27
 -0.125200003        -6.84603615E-27
 -0.124399997        -6.28707720E-26
 -0.123599999        -1.22389896E-25
 -0.122800000        -1.80904988E-26
 -0.122000001         4.76422239E-25
 -0.121200003         1.20537345E-24
 -0.120399997         9.64554034E-25
 -0.119599998        -2.31546887E-24
 -0.118799999        -8.86749629E-24
 -0.118000001        -1.20791731E-23
 -0.117200002         3.02918722E-24
 -0.116400003         4.69847070E-23
 -0.115599997         9.48652444E-23
 -0.114799999         6.18462785E-23
 -0.114000000        -1.55001676E-22
 -0.113200001        -5.21940112E-22
 -0.112400003        -6.75373078E-22
 -0.111599997         3.81278911E-23
 -0.110799998         1.96154533E-21
 -0.109999999         4.04492491E-21
 -0.109200001         3.26651544E-21
 -0.108400002        -3.75378964E-21
 -0.107600003        -1.61619298E-20
 -0.106799997        -2.38930732E-20
 -0.105999999        -9.08728585E-21
 -0.105200000         3.94158800E-20
 -0.104400001         1.01561475E-19
 -0.103600003         1.12410472E-19
 -0.102799997        -8.64133695E-21
 -0.101999998        -2.72177422E-19
 -0.101199999        -5.20905772E-19
 -0.100400001        -4.30251637E-19
  -9.96000022E-02     2.82789167E-19
  -9.88000035E-02     1.47137378E-18
  -9.79999974E-02     2.26872440E-18
  -9.71999988E-02     1.34231313E-18
  -9.64000002E-02    -2.05418704E-18
  -9.56000015E-02    -6.65314312E-18
  -9.48000029E-02    -8.62178376E-18
  -9.39999968E-02    -3.32074924E-18
  -9.31999981E-02     1.04475261E-17
  -9.23999995E-02     2.60713896E-17
  -9.16000009E-02     2.91842720E-17
  -9.08000022E-02     5.81985585E-18
  -9.00000036E-02    -4.30863657E-17
  -8.91999975E-02    -9.05322644E-17
  -8.83999988E-02    -8.94590274E-17
  -8.76000002E-02    -3.08142521E-18
  -8.68000016E-02     1.52068844E-16
  -8.60000029E-02     2.82780520E-16
  -8.51999968E-02     2.51693511E-16
  -8.43999982E-02    -2.64601529E-17
  -8.35999995E-02    -4.71814345E-16
  -8.28000009E-02    -8.02609722E-16
  -8.20000023E-02    -6.56727937E-16
  -8.12000036E-02     1.39677004E-16
  -8.03999975E-02     1.30663504E-15
  -7.95999989E-02     2.08334890E-15
  -7.88000003E-02     1.59956984E-15
  -7.80000016E-02    -4.53007143E-16
  -7.72000030E-02    -3.25947320E-15
  -7.63999969E-02    -4.96215914E-15
  -7.55999982E-02    -3.64337712E-15
  -7.47999996E-02     1.15535718E-15
  -7.40000010E-02     7.36518102E-15
  -7.32000023E-02     1.08521073E-14
  -7.24000037E-02     7.73182855E-15
  -7.15999976E-02    -2.49702560E-15
  -7.07999989E-02    -1.51355470E-14
  -7.00000003E-02    -2.17573067E-14
  -6.92000017E-02    -1.51404158E-14
  -6.84000030E-02     4.82217424E-15
  -6.75999969E-02     2.84197121E-14
  -6.67999983E-02     3.98661884E-14
  -6.59999996E-02     2.69119681E-14
  -6.52000010E-02    -8.95231155E-15
  -6.44000024E-02    -4.91981164E-14
  -6.36000037E-02    -6.65581956E-14
  -6.27999976E-02    -4.23173425E-14
  -6.19999990E-02     1.75923813E-14
  -6.12000003E-02     8.00212015E-14
  -6.04000017E-02     1.01325381E-13
  -5.95999993E-02     5.63508963E-14
  -5.88000007E-02    -3.84631427E-14
  -5.79999983E-02    -1.26533875E-13
  -5.71999997E-02    -1.42489631E-13
  -5.64000010E-02    -5.79418851E-14
  -5.55999987E-02     8.85038841E-14
  -5.48000000E-02     2.03146189E-13
  -5.40000014E-02     1.92677187E-13
  -5.31999990E-02     3.31717347E-14
  -5.24000004E-02    -1.94841498E-13
  -5.16000018E-02    -3.39258949E-13
  -5.07999994E-02    -2.69749419E-13
  -5.00000007E-02     2.17142232E-14
  -4.91999984E-02     3.84131312E-13
  -4.83999997E-02     5.76017803E-13
  -4.76000011E-02     4.14763737E-13
  -4.67999987E-02    -8.05831571E-14
  -4.60000001E-02    -6.54968863E-13
  -4.52000014E-02    -9.38994217E-13
  -4.43999991E-02    -6.75404665E-13
  -4.36000004E-02     8.36510223E-14
  -4.28000018E-02     9.48899271E-13
  -4.19999994E-02     1.38694232E-12
  -4.12000008E-02     1.04462597E-12
  -4.03999984E-02     1.06864599E-14
  -3.95999998E-02    -1.17057395E-12
  -3.88000011E-02    -1.78317994E-12
  -3.79999988E-02    -1.37916675E-12
  -3.72000001E-02    -1.05754062E-13
  -3.64000015E-02     1.31406496E-12
  -3.55999991E-02     1.98461061E-12
  -3.48000005E-02     1.40946933E-12
  -3.40000018E-02    -1.27610528E-13
  -3.31999995E-02    -1.65683602E-12
  -3.24000008E-02    -2.09616612E-12
  -3.15999985E-02    -9.84857053E-13
  -3.07999998E-02     1.10024761E-12
  -2.99999993E-02     2.78015978E-12
  -2.92000007E-02     2.70372201E-12
  -2.84000002E-02     5.00861885E-13
  -2.75999997E-02    -2.77168891E-12
  -2.67999992E-02    -5.08067980E-12
  -2.60000005E-02    -4.60838008E-12
  -2.52000000E-02    -1.00872392E-12
  -2.43999995E-02     4.09903838E-12
  -2.36000009E-02     7.84426517E-12
  -2.28000004E-02     7.73734549E-12
  -2.19999999E-02     3.28537262E-12
  -2.11999994E-02    -3.45817624E-12
  -2.04000007E-02    -8.89260367E-12
  -1.96000002E-02    -9.94300042E-12
  -1.87999997E-02    -5.97398303E-12
  -1.79999992E-02     7.13575195E-13
  -1.72000006E-02     6.24544557E-12
  -1.64000001E-02     7.63495690E-12
  -1.55999996E-02     4.76072567E-12
  -1.48000000E-02     4.54817661E-13
  -1.40000004E-02    -1.53158053E-12
  -1.31999999E-02     5.66903891E-13
  -1.24000004E-02     4.80284259E-12
  -1.15999999E-02     6.46119616E-12
  -1.08000003E-02     1.44986616E-12
  -9.99999978E-03    -9.94680900E-12
  -9.20000020E-03    -2.17294360E-11
  -8.39999970E-03    -2.48710531E-11
  -7.60000013E-03    -1.30875614E-11
  -6.80000009E-03     1.16739595E-11
  -6.00000005E-03     3.79797374E-11
  -5.20000001E-03     4.98249011E-11
  -4.39999998E-03     3.59046924E-11
  -3.59999994E-03    -1.89133756E-12
  -2.79999990E-03    -4.64918451E-11
  -2.00000009E-03    -7.28651722E-11
  -1.20000006E-03    -6.17916551E-11
  -3.99999990E-04    -1.28510935E-11
   3.99999990E-04     5.16136127E-11
   1.20000006E-03     9.57090240E-11
   2.00000009E-03     8.91634752E-11
   2.79999990E-03     2.66047375E-11
   3.59999994E-03    -6.46434503E-11
   4.39999998E-03    -1.34859415E-10
   5.20000001E-03    -1.37242911E-10
   6.00000005E-03    -5.58739444E-11
   6.80000009E-03     7.94632485E-11
   7.60000013E-03     2.02085751E-10
   8.39999970E-03     2.39362252E-10
   9.20000020E-03     1.51709784E-10
   9.99999978E-03    -4.06365636E-11
   1.08000003E-02    -2.58984195E-10
   1.15999999E-02    -3.98111488E-10
   1.24000004E-02    -3.75275755E-10
   1.31999999E-02    -1.72882431E-10
   1.40000004E-02     1.46850004E-10
   1.48000000E-02     4.63830307E-10
   1.55999996E-02     6.49339638E-10
   1.64000001E-02     6.19786333E-10
   1.72000006E-02     3.70137893E-10
   1.79999992E-02    -2.73475582E-11
   1.87999997E-02    -4.56087362E-10
   1.96000002E-02    -8.01674005E-10
   2.04000007E-02    -9.88597981E-10
   2.11999994E-02    -9.91098092E-10
   2.19999999E-02    -8.17396872E-10
   2.28000004E-02    -4.81710949E-10
   2.36000009E-02     1.47297764E-11
   2.43999995E-02     6.77473910E-10
   2.52000000E-02     1.48576573E-09
   2.60000005E-02     2.34770225E-09
   2.67999992E-02     3.06955905E-09
   2.75999997E-02     3.36442740E-09
   2.84000002E-02     2.91226576E-09
   2.92000007E-02     1.46273216E-09
   2.99999993E-02    -1.04829878E-09
   3.07999998E-02    -4.40935244E-09
   3.15999985E-02    -8.10882383E-09
   3.24000008E-02    -1.13941407E-08
   3.31999995E-02    -1.34038620E-08
   3.40000018E-02    -1.33322633E-08
   3.48000005E-02    -1.05688418E-08
   3.55999991E-02    -4.76050666E-09
   3.64000015E-02     4.22663726E-09
   3.72000001E-02     1.64258953E-08
   3.79999988E-02     3.19106270E-08
   3.88000011E-02     5.08854718E-08
   3.95999998E-02     7.36794092E-08
   4.03999984E-02     1.00644243E-07
   4.12000008E-02     1.32019949E-07
   4.19999994E-02     1.67859199E-07
   4.28000018E-02     2.08085282E-07
   4.36000004E-02     2.52690000E-07
   4.43999991E-02     3.01992685E-07
   4.52000014E-02     3.56823762E-07
   4.60000001E-02     4.18508080E-07
   4.67999987E-02     4.88610624E-07
   4.76000011E-02     5.68539974E-07
   4.83999997E-02     6.59210116E-07
   4.91999984E-02     7.60978423E-07
   5.00000007E-02     8.73974614E-07
   5.07999994E-02     9.98745918E-07
   5.16000018E-02     1.13695853E-06
   5.24000004E-02     1.29181024E-06
   5.31999990E-02     1.46789228E-06
   5.40000014E-02     1.67047028E-06
   5.48000000E-02     1.90443848E-06
   5.55999987E-02     2.17339857E-06
   5.64000010E-02     2.47931052E-06
   5.71999997E-02     2.82294809E-06
   5.79999983E-02     3.20503705E-06
   5.88000007E-02     3.62763831E-06
   5.95999993E-02     4.09520362E-06
   6.04000017E-02     4.61486297E-06
   6.12000003E-02     5.19584592E-06
   6.19999990E-02     5.84832787E-06
   6.27999976E-02     6.58224371E-06
   6.36000037E-02     7.40660744E-06
   6.44000024E-02     8.32961086E-06
   6.52000010E-02     9.35939443E-06
   6.59999996E-02     1.05050767E-05
   6.67999983E-02     1.17775453E-05
   6.75999969E-02     1.31896804E-05
   6.84000030E-02     1.47560313E-05
   6.92000017E-02     1.64922531E-05
   7.00000003E-02     1.84147557E-05
   7.07999989E-02     2.05408523E-05
   7.15999976E-02     2.28894060E-05
   7.24000037E-02     2.54816550E-05
   7.32000023E-02     2.83417667E-05
   7.40000010E-02     3.14967911E-05
   7.47999996E-02     3.49760121E-05
   7.55999982E-02     3.88100270E-05
   7.63999969E-02     4.30300533E-05
   7.72000030E-02     4.76679270E-05
   7.80000016E-02     5.27568627E-05
   7.88000003E-02     5.83326691E-05
   7.95999989E-02     6.44348911E-05
   8.03999975E-02     7.11073299E-05
   8.12000036E-02     7.83977957E-05
   8.20000023E-02     8.63571913E-05
   8.28000009E-02     9.50386311E-05
   8.35999995E-02     1.04497005E-04
   8.43999982E-02     1.14789531E-04
   8.51999968E-02     1.25976992E-04
   8.60000029E-02     1.38125222E-04
   8.68000016E-02     1.51305998E-04
   8.76000002E-02     1.65596808E-04
   8.83999988E-02     1.81079580E-04
   8.91999975E-02     1.97838657E-04
   9.00000036E-02     2.15958979E-04
   9.08000022E-02     2.35525338E-04
   9.16000009E-02     2.56623200E-04
   9.23999995E-02     2.79340718E-04
   9.31999981E-02     3.03771376E-04
   9.39999968E-02     3.30016192E-04
   9.48000029E-02     3.58184247E-04
   9.56000015E-02     3.88391665E-04
   9.64000002E-02     4.20758937E-04
   9.71999988E-02     4.55407688E-04
   9.79999974E-02     4.92458290E-04
   9.88000035E-02     5.32028906E-04
   9.96000022E-02     5.74235921E-04
  0.100400001         6.19195809E-04
  0.101199999         6.67027314E-04
  0.101999998         7.17852963E-04
  0.102799997         7.71799008E-04
  0.103600003         8.28994263E-04
  0.104400001         8.89567833E-04
  0.105200000         9.53646610E-04
  0.105999999         1.02135353E-03
  0.106799997         1.09280576E-03
  0.107600003         1.16811448E-03
  0.108400002         1.24738447E-03
  0.109200001         1.33071374E-03
  0.109999999         1.41819357E-03
  0.110799998         1.50990754E-03
  0.111599997         1.60593074E-03
  0.112400003         1.70632894E-03
  0.113200001         1.81115838E-03
  0.114000000         1.92046503E-03
  0.114799999         2.03428348E-03
  0.115599997         2.15263478E-03
  0.116400003         2.27552466E-03
  0.117200002         2.40293937E-03
  0.118000001         2.53484421E-03
  0.118799999         2.67118076E-03
  0.119599998         2.81186658E-03
  0.120399997         2.95679667E-03
  0.121200003         3.10584367E-03
  0.122000001         3.25885904E-03
  0.122800000         3.41567234E-03
  0.123599999         3.57608940E-03
  0.124399997         3.73988971E-03
  0.125200003         3.90682556E-03
  0.126000002         4.07661917E-03
  0.126800001         4.24896041E-03
  0.127599999         4.42350702E-03
  0.128399998         4.59988648E-03
  0.129199997         4.77769412E-03
  0.129999995         4.95649548E-03
  0.130799994         5.13582630E-03
  0.131600007         5.31519298E-03
  0.132400006         5.49407257E-03
  0.133200005         5.67191327E-03
  0.134000003         5.84813626E-03
  0.134800002         6.02213619E-03
  0.135600001         6.19328208E-03
  0.136399999         6.36091735E-03
  0.137199998         6.52435981E-03
  0.137999997         6.68290444E-03
  0.138799995         6.83582621E-03
  0.139599994         6.98238192E-03
  0.140400007         7.12181581E-03
  0.141200006         7.25336047E-03
  0.142000005         7.37624057E-03
  0.142800003         7.48967705E-03
  0.143600002         7.59289041E-03
  0.144400001         7.68510345E-03
  0.145199999         7.76554458E-03
  0.145999998         7.83344824E-03
  0.146799996         7.88806193E-03
  0.147599995         7.92864524E-03
  0.148399994         7.95447454E-03
  0.149200007         7.96485227E-03
  0.150000006         7.95910787E-03
  0.150800005         7.93660618E-03
  0.151600003         7.89675303E-03
  0.152400002         7.83899426E-03
  0.153200001         7.76282372E-03
  0.153999999         7.66778272E-03
  0.154799998         7.55346799E-03
  0.155599996         7.41953310E-03
  0.156399995         7.26569211E-03
  0.157199994         7.09171873E-03
  0.158000007         6.89745089E-03
  0.158800006         6.68279454E-03
  0.159600005         6.44772919E-03
  0.160400003         6.19231258E-03
  0.161200002         5.91668347E-03
  0.162000000         5.62106259E-03
  0.162799999         5.30575030E-03
  0.163599998         4.97112563E-03
  0.164399996         4.61764680E-03
  0.165199995         4.24585305E-03
  0.165999994         3.85636487E-03
  0.166800007         3.44988285E-03
  0.167600006         3.02718510E-03
  0.168400005         2.58912519E-03
  0.169200003         2.13662954E-03
  0.170000002         1.67069712E-03
  0.170800000         1.19239930E-03
  0.171599999         7.02877936E-04
  0.172399998         2.03339194E-04
  0.173199996        -3.04953370E-04
  0.173999995        -8.20686284E-04
  0.174799994        -1.34250161E-03
  0.175600007        -1.86900096E-03
  0.176400006        -2.39874865E-03
  0.177200004        -2.93027633E-03
  0.178000003        -3.46209039E-03
  0.178800002        -3.99267953E-03
  0.179600000        -4.52052057E-03
  0.180399999        -5.04408590E-03
  0.181199998        -5.56184817E-03
  0.181999996        -6.07228512E-03
  0.182799995        -6.57388754E-03
  0.183599994        -7.06516905E-03
  0.184400007        -7.54467444E-03
  0.185200006        -8.01098626E-03
  0.186000004        -8.46272893E-03
  0.186800003        -8.89857486E-03
  0.187600002        -9.31724720E-03
  0.188400000        -9.71753057E-03
  0.189199999        -1.00982757E-02
  0.189999998        -1.04584051E-02
  0.190799996        -1.07969176E-02
  0.191599995        -1.11128893E-02
  0.192399994        -1.14054754E-02
  0.193200007        -1.16739115E-02
  0.194000006        -1.19175240E-02
  0.194800004        -1.21357348E-02
  0.195600003        -1.23280631E-02
  0.196400002        -1.24941273E-02
  0.197200000        -1.26336422E-02
  0.197999999        -1.27464207E-02
  0.198799998        -1.28323697E-02
  0.199599996        -1.28914919E-02
  0.200399995        -1.29238842E-02
  0.201199993        -1.29297357E-02
  0.202000007        -1.29093230E-02
  0.202800006        -1.28630074E-02
  0.203600004        -1.27912369E-02
  0.204400003        -1.26945432E-02
  0.205200002        -1.25735402E-02
  0.206000000        -1.24289198E-02
  0.206799999        -1.22614410E-02
  0.207599998        -1.20719261E-02
  0.208399996        -1.18612582E-02
  0.209199995        -1.16303712E-02
  0.209999993        -1.13802496E-02
  0.210800007        -1.11119179E-02
  0.211600006        -1.08264331E-02
  0.212400004        -1.05248829E-02
  0.213200003        -1.02083767E-02
  0.214000002        -9.87804588E-03
  0.214800000        -9.53503512E-03
  0.215599999        -9.18049738E-03
  0.216399997        -8.81558750E-03
  0.217199996        -8.44145101E-03
  0.217999995        -8.05922039E-03
  0.218799993        -7.67000951E-03
  0.219600007        -7.27491453E-03
  0.220400006        -6.87500555E-03
  0.221200004        -6.47132285E-03
  0.222000003        -6.06486574E-03
  0.222800002        -5.65658836E-03
  0.223600000        -5.24739968E-03
  0.224399999        -4.83816024E-03
  0.225199997        -4.42968216E-03
  0.225999996        -4.02272586E-03
  0.226799995        -3.61799356E-03
  0.227599993        -3.21612600E-03
  0.228400007        -2.81770271E-03
  0.229200006        -2.42324150E-03
  0.230000004        -2.03320128E-03
  0.230800003        -1.64798077E-03
  0.231600001        -1.26791303E-03
  0.232400000        -8.93262681E-04
  0.233199999        -5.24224888E-04
  0.233999997        -1.60930009E-04
  0.234799996         1.96550667E-04
  0.235599995         5.48200391E-04
  0.236399993         8.94056342E-04
  0.237200007         1.23421103E-03
  0.238000005         1.56881334E-03
  0.238800004         1.89806556E-03
  0.239600003         2.22221809E-03
  0.240400001         2.54156440E-03
  0.241200000         2.85643851E-03
  0.241999999         3.16721317E-03
  0.242799997         3.47429793E-03
  0.243599996         3.77813401E-03
  0.244399995         4.07918775E-03
  0.245199993         4.37794253E-03
  0.246000007         4.67489334E-03
  0.246800005         4.97054541E-03
  0.247600004         5.26541378E-03
  0.248400003         5.56001905E-03
  0.249200001         5.85488323E-03
  0.250000000         6.15051948E-03
  0.250800014         6.44742744E-03
  0.251599997         6.74608815E-03
  0.252400011         7.04696123E-03
  0.253199995         7.35048205E-03
  0.254000008         7.65705621E-03
  0.254799992         7.96705112E-03
  0.255600005         8.28079227E-03
  0.256399989         8.59855581E-03
  0.257200003         8.92057084E-03
  0.257999986         9.24701616E-03
  0.258800000         9.57802031E-03
  0.259600013         9.91364755E-03
  0.260399997         1.02538941E-02
  0.261200011         1.05986819E-02
  0.261999995         1.09478589E-02
  0.262800008         1.13012036E-02
  0.263599992         1.16584226E-02
  0.264400005         1.20191490E-02
  0.265199989         1.23829348E-02
  0.266000003         1.27492445E-02
  0.266799986         1.31174587E-02
  0.267600000         1.34868743E-02
  0.268400013         1.38567071E-02
  0.269199997         1.42260939E-02
  0.270000011         1.45940902E-02
  0.270799994         1.49596659E-02
  0.271600008         1.53217083E-02
  0.272399992         1.56790316E-02
  0.273200005         1.60303768E-02
  0.273999989         1.63744222E-02
  0.274800003         1.67097803E-02
  0.275599986         1.70349982E-02
  0.276400000         1.73485558E-02
  0.277200013         1.76488776E-02
  0.277999997         1.79343428E-02
  0.278800011         1.82032995E-02
  0.279599994         1.84540674E-02
  0.280400008         1.86849423E-02
  0.281199992         1.88941974E-02
  0.282000005         1.90800857E-02
  0.282799989         1.92408636E-02
  0.283600003         1.93747971E-02
  0.284399986         1.94801744E-02
  0.285200000         1.95553117E-02
  0.286000013         1.95985567E-02
  0.286799997         1.96082983E-02
  0.287600011         1.95829794E-02
  0.288399994         1.95211060E-02
  0.289200008         1.94212645E-02
  0.289999992         1.92821398E-02
  0.290800005         1.91025101E-02
  0.291599989         1.88812502E-02
  0.292400002         1.86173469E-02
  0.293199986         1.83099005E-02
  0.294000000         1.79581512E-02
  0.294800013         1.75614897E-02
  0.295599997         1.71194579E-02
  0.296400011         1.66317504E-02
  0.297199994         1.60982199E-02
  0.298000008         1.55188758E-02
  0.298799992         1.48938987E-02
  0.299600005         1.42236538E-02
  0.300399989         1.35086980E-02
  0.301200002         1.27497725E-02
  0.301999986         1.19477995E-02
  0.302800000         1.11038778E-02
  0.303600013         1.02192871E-02
  0.304399997         9.29549150E-03
  0.305200011         8.33414681E-03
  0.305999994         7.33709708E-03
  0.306800008         6.30636094E-03
  0.307599992         5.24412096E-03
  0.308400005         4.15271288E-03
  0.309199989         3.03462381E-03
  0.310000002         1.89249113E-03
  0.310799986         7.29095424E-04
  0.311600000        -4.52651642E-04
  0.312400013        -1.64972350E-03
  0.313199997        -2.85899593E-03
  0.314000010        -4.07725666E-03
  0.314799994        -5.30121336E-03
  0.315600008        -6.52750069E-03
  0.316399992        -7.75269466E-03
  0.317200005        -8.97333492E-03
  0.317999989        -1.01859495E-02
  0.318800002        -1.13870669E-02
  0.319599986        -1.25732319E-02
  0.320400000        -1.37410117E-02
  0.321200013        -1.48870051E-02
  0.321999997        -1.60078630E-02
  0.322800010        -1.71003118E-02
  0.323599994        -1.81611683E-02
  0.324400008        -1.91873573E-02
  0.325199991        -2.01759189E-02
  0.326000005        -2.11240184E-02
  0.326799989        -2.20289622E-02
  0.327600002        -2.28882078E-02
  0.328399986        -2.36993805E-02
  0.329200000        -2.44602859E-02
  0.330000013        -2.51689181E-02
  0.330799997        -2.58234628E-02
  0.331600010        -2.64223088E-02
  0.332399994        -2.69640479E-02
  0.333200008        -2.74474863E-02
  0.333999991        -2.78716478E-02
  0.334800005        -2.82357801E-02
  0.335599989        -2.85393540E-02
  0.336400002        -2.87820641E-02
  0.337199986        -2.89638247E-02
  0.338000000        -2.90847681E-02
  0.338800013        -2.91452445E-02
  0.339599997        -2.91458201E-02
  0.340400010        -2.90872715E-02
  0.341199994        -2.89705712E-02
  0.342000008        -2.87968926E-02
  0.342799991        -2.85676010E-02
  0.343600005        -2.82842405E-02
  0.344399989        -2.79485229E-02
  0.345200002        -2.75623128E-02
  0.345999986        -2.71276236E-02
  0.346799999        -2.66466085E-02
  0.347600013        -2.61215400E-02
  0.348399997        -2.55548079E-02
  0.349200010        -2.49488950E-02
  0.349999994        -2.43063811E-02
  0.350800008        -2.36299150E-02
  0.351599991        -2.29222029E-02
  0.352400005        -2.21859962E-02
  0.353199989        -2.14240793E-02
  0.354000002        -2.06392575E-02
  0.354799986        -1.98343433E-02
  0.355599999        -1.90121494E-02
  0.356400013        -1.81754623E-02
  0.357199997        -1.73270442E-02
  0.358000010        -1.64696090E-02
  0.358799994        -1.56058194E-02
  0.359600008        -1.47382831E-02
  0.360399991        -1.38695454E-02
  0.361200005        -1.30020725E-02
  0.361999989        -1.21382382E-02
  0.362800002        -1.12803169E-02
  0.363599986        -1.04304794E-02
  0.364399999        -9.59078688E-03
  0.365200013        -8.76319222E-03
  0.365999997        -7.94953387E-03
  0.366800010        -7.15153106E-03
  0.367599994        -6.37078378E-03
  0.368400007        -5.60876727E-03
  0.369199991        -4.86682914E-03
  0.370000005        -4.14618850E-03
  0.370799989        -3.44793079E-03
  0.371600002        -2.77301227E-03
  0.372399986        -2.12226436E-03
  0.373199999        -1.49640127E-03
  0.374000013        -8.96024227E-04
  0.374799997        -3.21620144E-04
  0.375600010         2.26443255E-04
  0.376399994         7.47918501E-04
  0.377200007         1.24267174E-03
  0.377999991         1.71066984E-03
  0.378800005         2.15196633E-03
  0.379599988         2.56669568E-03
  0.380400002         2.95507489E-03
  0.381199986         3.31741013E-03
  0.381999999         3.65409744E-03
  0.382800013         3.96561157E-03
  0.383599997         4.25248826E-03
  0.384400010         4.51530656E-03
  0.385199994         4.75468580E-03
  0.386000007         4.97129001E-03
  0.386799991         5.16583584E-03
  0.387600005         5.33909071E-03
  0.388399988         5.49185928E-03
  0.389200002         5.62496437E-03
  0.389999986         5.73923439E-03
  0.390799999         5.83550194E-03
  0.391600013         5.91461128E-03
  0.392399997         5.97742526E-03
  0.393200010         6.02482166E-03
  0.393999994         6.05768058E-03
  0.394800007         6.07686676E-03
  0.395599991         6.08322537E-03
  0.396400005         6.07758481E-03
  0.397199988         6.06076699E-03
  0.398000002         6.03358820E-03
  0.398799986         5.99685032E-03
  0.399599999         5.95132820E-03
  0.400400013         5.89775993E-03
  0.401199996         5.83685096E-03
  0.402000010         5.76928630E-03
  0.402799994         5.69573743E-03
  0.403600007         5.61685720E-03
  0.404399991         5.53326961E-03
  0.405200005         5.44555578E-03
  0.405999988         5.35425451E-03
  0.406800002         5.25987335E-03
  0.407599986         5.16290125E-03
  0.408399999         5.06381178E-03
  0.409200013         4.96305618E-03
  0.409999996         4.86104609E-03
  0.410800010         4.75814845E-03
  0.411599994         4.65469528E-03
  0.412400007         4.55099810E-03
  0.413199991         4.44736052E-03
  0.414000005         4.34407592E-03
  0.414799988         4.24141018E-03
  0.415600002         4.13958821E-03
  0.416399986         4.03879536E-03
  0.417199999         3.93919135E-03
  0.418000013         3.84092936E-03
  0.418799996         3.74416308E-03
  0.419600010         3.64903850E-03
  0.420399994         3.55567690E-03
  0.421200007         3.46416538E-03
  0.421999991         3.37456260E-03
  0.422800004         3.28691537E-03
  0.423599988         3.20127397E-03
  0.424400002         3.11769312E-03
  0.425199986         3.03621870E-03
  0.425999999         2.95687374E-03
  0.426800013         2.87965499E-03
  0.427599996         2.80454359E-03
  0.428400010         2.73152255E-03
  0.429199994         2.66058417E-03
  0.430000007         2.59172474E-03
  0.430799991         2.52493098E-03
  0.431600004         2.46017170E-03
  0.432399988         2.39740196E-03
  0.433200002         2.33657449E-03
  0.433999985         2.27764947E-03
  0.434799999         2.22059456E-03
  0.435600013         2.16537458E-03
  0.436399996         2.11194297E-03
  0.437200010         2.06024153E-03
  0.437999994         2.01021112E-03
  0.438800007         1.96180120E-03
  0.439599991         1.91497174E-03
  0.440400004         1.86968467E-03
  0.441199988         1.82589318E-03
  0.442000002         1.78353942E-03
  0.442799985         1.74256251E-03
  0.443599999         1.70291029E-03
  0.444400012         1.66454341E-03
  0.445199996         1.62742904E-03
  0.446000010         1.59152807E-03
  0.446799994         1.55679020E-03
  0.447600007         1.52315933E-03
  0.448399991         1.49058597E-03
  0.449200004         1.45903544E-03
  0.449999988         1.42848259E-03
  0.450800002         1.39889936E-03
  0.451599985         1.37024431E-03
  0.452399999         1.34246610E-03
  0.453200012         1.31551758E-03
  0.453999996         1.28936896E-03
  0.454800010         1.26400718E-03
  0.455599993         1.23942213E-03
  0.456400007         1.21558935E-03
  0.457199991         1.19246519E-03
  0.458000004         1.16999994E-03
  0.458799988         1.14815694E-03
  0.459600002         1.12692243E-03
  0.460399985         1.10629632E-03
  0.461199999         1.08627183E-03
  0.462000012         1.06682139E-03
  0.462799996         1.04790099E-03
  0.463600010         1.02947059E-03
  0.464399993         1.01151271E-03
  0.465200007         9.94032831E-04
  0.465999991         9.77040618E-04
  0.466800004         9.60527104E-04
  0.467599988         9.44457366E-04
  0.468400002         9.28786001E-04
  0.469199985         9.13482392E-04
  0.469999999         8.98544444E-04
  0.470800012         8.83988978E-04
  0.471599996         8.69826647E-04
  0.472400010         8.56041966E-04
  0.473199993         8.42596288E-04
  0.474000007         8.29450553E-04
  0.474799991         8.16589047E-04
  0.475600004         8.04023584E-04
  0.476399988         7.91774655E-04
  0.477200001         7.79845810E-04
  0.477999985         7.68213125E-04
  0.478799999         7.56838126E-04
  0.479600012         7.45693396E-04
  0.480399996         7.34778470E-04
  0.481200010         7.24112848E-04
  0.481999993         7.13712245E-04
  0.482800007         7.03568687E-04
  0.483599991         6.93651731E-04
  0.484400004         6.83929189E-04
  0.485199988         6.74389070E-04
  0.486000001         6.65044005E-04
  0.486799985         6.55913842E-04
  0.487599999         6.47002598E-04
  0.488400012         6.38290017E-04
  0.489199996         6.29744958E-04
  0.490000010         6.21349202E-04
  0.490799993         6.13109674E-04
  0.491600007         6.05048554E-04
  0.492399991         5.97179693E-04
  0.493200004         5.89491799E-04
  0.493999988         5.81953966E-04
  0.494800001         5.74538659E-04
  0.495599985         5.67242561E-04
  0.496399999         5.60086453E-04
  0.497200012         5.53093734E-04