 -0.150000006         0.00000000    
 -0.149200007         0.00000000    
 -0.148399994         0.00000000    
 -0.147599995         0.00000000    
 -0.146799996         0.00000000    
 -0.145999998         0.00000000    
 -0.145199999         0.00000000    
 -0.144400001         0.00000000    
 -0.143600002         0.00000000    
 -0.142800003         0.00000000    
 -0.142000005         0.00000000    
 -0.141200006         0.00000000    
 -0.140400007        -1.31506422E-36
 -0.139599994        -5.58531919E-37
 -0.138799995        -1.05302965E-34
 -0.137999997        -1.27005754E-33
 -0.137199998        -4.89571908E-33
 -0.136399999        -5.08690625E-33
 -0.135600001         1.53781973E-33
 -0.134800002        -1.18353826E-31
 -0.134000003        -7.56148919E-31
 -0.133200005        -1.35662515E-30
 -0.132400006         3.29772583E-30
 -0.131600007         2.11059443E-29
 -0.130799994         3.03157744E-29
 -0.129999995        -7.75171034E-29
 -0.129199997        -4.15436619E-28
 -0.128399998        -5.80065110E-28
 -0.127599999         1.03017453E-27
 -0.126800001         5.95129994E-27
 -0.126000002         9.47980621E-27
 -0.125200003        -6.74547950E-27
 -0.124399997        -6.27980797E-26
 -0.123599999        -1.22485200E-25
 -0.122800000        -1.85149383E-26
 -0.122000001         4.75589202E-25
 -0.121200003         1.20432495E-24
 -0.120399997         9.64196285E-25
 -0.119599998        -2.31273546E-24
 -0.118799999        -8.85749275E-24
 -0.118000001        -1.20590745E-23
 -0.117200002         3.05017230E-24
 -0.116400003         4.69684028E-23
 -0.115599997         9.47403835E-23
 -0.114799999         6.15602501E-23
 -0.114000000        -1.55336166E-22
 -0.113200001        -5.21853022E-22
 -0.112400003        -6.74045015E-22
 -0.111599997         4.12351952E-23
 -0.110799998         1.96520302E-21
 -0.109999999         4.04452263E-21
 -0.109200001         3.25466389E-21
 -0.108400002        -3.78120656E-21
 -0.107600003        -1.61935953E-20
 -0.106799997        -2.38913752E-20
 -0.105999999        -8.99686871E-21
 -0.105200000         3.96201160E-20
 -0.104400001         1.01790778E-19
 -0.103600003         1.12402523E-19
 -0.102799997        -9.24121737E-21
 -0.101999998        -2.73492820E-19
 -0.101199999        -5.22336484E-19
 -0.100400001        -4.30206297E-19
  -9.96000022E-02     2.86290545E-19
  -9.88000035E-02     1.47881623E-18
  -9.79999974E-02     2.27657124E-18
  -9.71999988E-02     1.34205981E-18
  -9.64000002E-02    -2.07231491E-18
  -9.56000015E-02    -6.69057677E-18
  -9.48000029E-02    -8.66019472E-18
  -9.39999968E-02    -3.31967474E-18
  -9.31999981E-02     1.05312955E-17
  -9.23999995E-02     2.62403280E-17
  -9.16000009E-02     2.93541187E-17
  -9.08000022E-02     5.81766175E-18
  -9.00000036E-02    -4.34336095E-17
  -8.91999975E-02    -9.12214382E-17
  -8.83999988E-02    -9.01438668E-17
  -8.76000002E-02    -3.09265957E-18
  -8.68000016E-02     1.53364805E-16
  -8.60000029E-02     2.85336283E-16
  -8.51999968E-02     2.54228733E-16
  -8.43999982E-02    -2.63053378E-17
  -8.35999995E-02    -4.76179635E-16
  -8.28000009E-02    -8.11262164E-16
  -8.20000023E-02    -6.65385567E-16
  -8.12000036E-02     1.38634624E-16
  -8.03999975E-02     1.31991281E-15
  -7.95999989E-02     2.11015749E-15
  -7.88000003E-02     1.62690613E-15
  -7.80000016E-02    -4.47759404E-16
  -7.72000030E-02    -3.29588736E-15
  -7.63999969E-02    -5.03825319E-15
  -7.55999982E-02    -3.72321972E-15
  -7.47999996E-02     1.13358949E-15
  -7.40000010E-02     7.45480897E-15
  -7.32000023E-02     1.10498252E-14
  -7.24000037E-02     7.94719600E-15
  -7.15999976E-02    -2.41974570E-15
  -7.07999989E-02    -1.53317622E-14
  -7.00000003E-02    -2.22263732E-14
  -6.92000017E-02    -1.56751257E-14
  -6.84000030E-02     4.58301576E-15
  -6.75999969E-02     2.87956135E-14
  -6.67999983E-02     4.08775390E-14
  -6.59999996E-02     2.81273977E-14
  -6.52000010E-02    -8.30213922E-15
  -6.44000024E-02    -4.98096539E-14
  -6.36000037E-02    -6.85261784E-14
  -6.27999976E-02    -4.48276263E-14
  -6.19999990E-02     1.60387671E-14
  -6.12000003E-02     8.08150882E-14
  -6.04000017E-02     1.04749766E-13
  -5.95999993E-02     6.10134163E-14
  -5.88000007E-02    -3.52213003E-14
  -5.79999983E-02    -1.27228875E-13
  -5.71999997E-02    -1.47764640E-13
  -5.64000010E-02    -6.56238369E-14
  -5.55999987E-02     8.26903853E-14
  -5.48000000E-02     2.03263160E-13
  -5.40000014E-02     1.99846853E-13
  -5.31999990E-02     4.42138595E-14
  -5.24000004E-02    -1.86164425E-13
  -5.16000018E-02    -3.38683834E-13
  -5.07999994E-02    -2.78620551E-13
  -5.00000007E-02     8.04262019E-15
  -4.91999984E-02     3.74052324E-13
  -4.83999997E-02     5.76456688E-13
  -4.76000011E-02     4.26140297E-13
  -4.67999987E-02    -6.55932963E-14
  -4.60000001E-02    -6.47304259E-13
  -4.52000014E-02    -9.45726895E-13
  -4.43999991E-02    -6.93740258E-13
  -4.36000004E-02     6.62279815E-14
  -4.28000018E-02     9.47270040E-13
  -4.19999994E-02     1.40776887E-12
  -4.12000008E-02     1.07958922E-12
  -4.03999984E-02     3.90928643E-14
  -3.95999998E-02    -1.17005678E-12
  -3.88000011E-02    -1.81844947E-12
  -3.79999988E-02    -1.43767788E-12
  -3.72000001E-02    -1.60116928E-13
  -3.64000015E-02     1.29080047E-12
  -3.55999991E-02     2.00417872E-12
  -3.48000005E-02     1.46456968E-12
  -3.40000018E-02    -5.38773839E-14
  -3.31999995E-02    -1.57730502E-12
  -3.24000008E-02    -2.01610625E-12
  -3.15999985E-02    -9.15892904E-13
  -3.07999998E-02     1.11876242E-12
  -2.99999993E-02     2.67742903E-12
  -2.92000007E-02     2.41435669E-12
  -2.84000002E-02     3.90476531E-14
  -2.75999997E-02    -3.24298986E-12
  -2.67999992E-02    -5.25263557E-12
  -2.60000005E-02    -4.15080210E-12
  -2.52000000E-02     2.02299928E-13
  -2.43999995E-02     5.75970695E-12
  -2.36000009E-02     9.17343285E-12
  -2.28000004E-02     7.72812456E-12
  -2.19999999E-02     1.24173089E-12
  -2.11999994E-02    -7.31870467E-12
  -2.04000007E-02    -1.31346444E-11
  -1.96000002E-02    -1.22390318E-11
  -1.87999997E-02    -4.12839121E-12
  -1.79999992E-02     7.38747691E-12
  -1.72000006E-02     1.58989939E-11
  -1.64000001E-02     1.59678416E-11
  -1.55999996E-02     6.58376695E-12
  -1.48000000E-02    -7.65356962E-12
  -1.40000004E-02    -1.86449953E-11
  -1.31999999E-02    -1.92954784E-11
  -1.24000004E-02    -7.93448293E-12
  -1.15999999E-02     1.00430731E-11
  -1.08000003E-02     2.45987206E-11
  -9.99999978E-03     2.64885232E-11
  -9.20000020E-03     1.27687704E-11
  -8.39999970E-03    -1.08611106E-11
  -7.60000013E-03    -3.24829157E-11
  -6.80000009E-03    -4.00776426E-11
  -6.00000005E-03    -2.80747821E-11
  -5.20000001E-03    -6.91609530E-13
  -4.39999998E-03     2.98651381E-11
  -3.59999994E-03     4.94182646E-11
  -2.79999990E-03     4.88180538E-11
  -2.00000009E-03     2.82201155E-11
  -1.20000006E-03    -3.42465899E-12
  -3.99999990E-04    -3.30447822E-11
   3.99999990E-04    -4.95355354E-11
   1.20000006E-03    -4.81303851E-11
   2.00000009E-03    -3.13310176E-11
   2.79999990E-03    -6.76831247E-12
   3.59999994E-03     1.62498123E-11
   4.39999998E-03     2.98168538E-11
   5.20000001E-03     2.95487419E-11
   6.00000005E-03     1.61033843E-11
   6.80000009E-03    -3.73623354E-12
   7.60000013E-03    -1.74211479E-11
   8.39999970E-03    -1.02812654E-11
   9.20000020E-03     2.66901206E-11
   9.99999978E-03     8.71594255E-11
   1.08000003E-02     1.43666690E-10
   1.15999999E-02     1.52525645E-10
   1.24000004E-02     7.24275154E-11
   1.31999999E-02    -1.08276506E-10
   1.40000004E-02    -3.48965856E-10
   1.48000000E-02    -5.55031576E-10
   1.55999996E-02    -6.06649064E-10
   1.64000001E-02    -4.12577889E-10
   1.72000006E-02     3.31045157E-11
   1.79999992E-02     6.21736773E-10
   1.87999997E-02     1.15137055E-09
   1.96000002E-02     1.39930612E-09
   2.04000007E-02     1.21875754E-09
   2.11999994E-02     6.14411799E-10
   2.19999999E-02    -2.44597703E-10
   2.28000004E-02    -1.08847431E-09
   2.36000009E-02    -1.66235270E-09
   2.43999995E-02    -1.83817295E-09
   2.52000000E-02    -1.66363345E-09
   2.60000005E-02    -1.31771882E-09
   2.67999992E-02    -9.91052795E-10
   2.75999997E-02    -7.52968854E-10
   2.84000002E-02    -4.80691209E-10
   2.92000007E-02     1.01160115E-10
   2.99999993E-02     1.27885436E-09
   3.07999998E-02     3.17011573E-09
   3.15999985E-02     5.59620039E-09
   3.24000008E-02     8.07149725E-09
   3.31999995E-02     9.91528548E-09
   3.40000018E-02     1.04232001E-08
   3.48000005E-02     9.00158525E-09
   3.55999991E-02     5.18876053E-09
   3.64000015E-02    -1.44441015E-09
   3.72000001E-02    -1.14428991E-08
   3.79999988E-02    -2.55494292E-08
   3.88000011E-02    -4.46273845E-08
   3.95999998E-02    -6.94172542E-08
   4.03999984E-02    -1.00225293E-07
   4.12000008E-02    -1.36711662E-07
   4.19999994E-02    -1.77931753E-07
   4.28000018E-02    -2.22683170E-07
   4.36000004E-02    -2.70064930E-07
   4.43999991E-02    -3.20035042E-07
   4.52000014E-02    -3.73723111E-07
   4.60000001E-02    -4.33341086E-07
   4.67999987E-02    -5.01704676E-07
   4.76000011E-02    -5.81554843E-07
   4.83999997E-02    -6.74966770E-07
   4.91999984E-02    -7.83104326E-07
   5.00000007E-02    -9.06425896E-07
   5.07999994E-02    -1.04524543E-06
   5.16000018E-02    -1.20039363E-06
   5.24000004E-02    -1.37368284E-06
   5.31999990E-02    -1.56798330E-06
   5.40000014E-02    -1.78690709E-06
   5.48000000E-02    -2.03429636E-06
   5.55999987E-02    -2.31380591E-06
   5.64000010E-02    -2.62882509E-06
   5.71999997E-02    -2.98280997E-06
   5.79999983E-02    -3.37988240E-06
   5.88000007E-02    -3.82539156E-06
   5.95999993E-02    -4.32613206E-06
   6.04000017E-02    -4.89005743E-06
   6.12000003E-02    -5.52557685E-06
   6.19999990E-02    -6.24074528E-06
   6.27999976E-02    -7.04276044E-06
   6.36000037E-02    -7.93808886E-06
   6.44000024E-02    -8.93328161E-06
   6.52000010E-02    -1.00362404E-05
   6.59999996E-02    -1.12574617E-05
   6.67999983E-02    -1.26107607E-05
   6.75999969E-02    -1.41131841E-05
   6.84000030E-02    -1.57841387E-05
   6.92000017E-02    -1.76441208E-05
   7.00000003E-02    -1.97135923E-05
   7.07999989E-02    -2.20125021E-05
   7.15999976E-02    -2.45606370E-05
   7.24000037E-02    -2.73786281E-05
   7.32000023E-02    -3.04891873E-05
   7.40000010E-02    -3.39180115E-05
   7.47999996E-02    -3.76940843E-05
   7.55999982E-02    -4.18493728E-05
   7.63999969E-02    -4.64183140E-05
   7.72000030E-02    -5.14375024E-05
   7.80000016E-02    -5.69459335E-05
   7.88000003E-02    -6.29857532E-05
   7.95999989E-02    -6.96031202E-05
   8.03999975E-02    -7.68487080E-05
   8.12000036E-02    -8.47774354E-05
   8.20000023E-02    -9.34474738E-05
   8.28000009E-02    -1.02918937E-04
   8.35999995E-02    -1.13253045E-04
   8.43999982E-02    -1.24512269E-04
   8.51999968E-02    -1.36761664E-04
   8.60000029E-02    -1.50070919E-04
   8.68000016E-02    -1.64516328E-04
   8.76000002E-02    -1.80181814E-04
   8.83999988E-02    -1.97158472E-04
   8.91999975E-02    -2.15542925E-04
   9.00000036E-02    -2.35435131E-04
   9.08000022E-02    -2.56936677E-04
   9.16000009E-02    -2.80150503E-04
   9.23999995E-02    -3.05181806E-04
   9.31999981E-02    -3.32140218E-04
   9.39999968E-02    -3.61141632E-04
   9.48000029E-02    -3.92309215E-04
   9.56000015E-02    -4.25772741E-04
   9.64000002E-02    -4.61666757E-04
   9.71999988E-02    -5.00128546E-04
   9.79999974E-02    -5.41296555E-04
   9.88000035E-02    -5.85310278E-04
   9.96000022E-02    -6.32310752E-04
  0.100400001        -6.82442042E-04
  0.101199999        -7.35852052E-04
  0.101999998        -7.92692881E-04
  0.102799997        -8.53119243E-04
  0.103600003        -9.17287020E-04
  0.104400001        -9.85350925E-04
  0.105200000        -1.05746323E-03
  0.105999999        -1.13377336E-03
  0.106799997        -1.21442787E-03
  0.107600003        -1.29957125E-03
  0.108400002        -1.38934527E-03
  0.109200001        -1.48388860E-03
  0.109999999        -1.58333417E-03
  0.110799998        -1.68780703E-03
  0.111599997        -1.79742277E-03
  0.112400003        -1.91228627E-03
  0.113200001        -2.03249115E-03
  0.114000000        -2.15811934E-03
  0.114799999        -2.28924071E-03
  0.115599997        -2.42591184E-03
  0.116400003        -2.56817415E-03
  0.117200002        -2.71605118E-03
  0.118000001        -2.86954804E-03
  0.118799999        -3.02864867E-03
  0.119599998        -3.19331512E-03
  0.120399997        -3.36348685E-03
  0.121200003        -3.53908050E-03
  0.122000001        -3.71998944E-03
  0.122800000        -3.90608073E-03
  0.123599999        -4.09719395E-03
  0.124399997        -4.29313816E-03
  0.125200003        -4.49369196E-03
  0.126000002        -4.69860015E-03
  0.126800001        -4.90757590E-03
  0.127599999        -5.12029836E-03
  0.128399998        -5.33641409E-03
  0.129199997        -5.55553706E-03
  0.129999995        -5.77724678E-03
  0.130799994        -6.00109110E-03
  0.131600007        -6.22658432E-03
  0.132400006        -6.45320723E-03
  0.133200005        -6.68040803E-03
  0.134000003        -6.90759905E-03
  0.134800002        -7.13415910E-03
  0.135600001        -7.35943299E-03
  0.136399999        -7.58273667E-03
  0.137199998        -7.80335814E-03
  0.137999997        -8.02055839E-03
  0.138799995        -8.23357422E-03
  0.139599994        -8.44161585E-03
  0.140400007        -8.64387490E-03
  0.141200006        -8.83952808E-03
  0.142000005        -9.02773347E-03
  0.142800003        -9.20763891E-03
  0.143600002        -9.37838200E-03
  0.144400001        -9.53909196E-03
  0.145199999        -9.68889520E-03
  0.145999998        -9.82691813E-03
  0.146799996        -9.95229743E-03
  0.147599995        -1.00641781E-02
  0.148399994        -1.01617211E-02
  0.149200007        -1.02441041E-02
  0.150000006        -1.03105260E-02
  0.150800005        -1.03602121E-02
  0.151600003        -1.03924209E-02
  0.152400002        -1.04064494E-02
  0.153200001        -1.04016373E-02
  0.153999999        -1.03773670E-02
  0.154799998        -1.03330715E-02
  0.155599996        -1.02682328E-02
  0.156399995        -1.01823881E-02
  0.157199994        -1.00751389E-02
  0.158000007        -9.94615071E-03
  0.158800006        -9.79515817E-03
  0.159600005        -9.62197036E-03
  0.160400003        -9.42647085E-03
  0.161200002        -9.20862146E-03
  0.162000000        -8.96846130E-03
  0.162799999        -8.70611239E-03
  0.163599998        -8.42177961E-03
  0.164399996        -8.11575353E-03
  0.165199995        -7.78841088E-03
  0.165999994        -7.44021218E-03
  0.166800007        -7.07170181E-03
  0.167600006        -6.68350747E-03
  0.168400005        -6.27634069E-03
  0.169200003        -5.85099682E-03
  0.170000002        -5.40835178E-03
  0.170800000        -4.94935922E-03
  0.171599999        -4.47504874E-03
  0.172399998        -3.98652209E-03
  0.173199996        -3.48494877E-03
  0.173999995        -2.97156139E-03
  0.174799994        -2.44765100E-03
  0.175600007        -1.91456173E-03
  0.176400006        -1.37368578E-03
  0.177200004        -8.26459203E-04
  0.178000003        -2.74356571E-04
  0.178800002         2.81115441E-04
  0.179600000         8.38425418E-04
  0.180399999         1.39602460E-03
  0.181199998         1.95235386E-03
  0.181999996         2.50585051E-03
  0.182799995         3.05495341E-03
  0.183599994         3.59810959E-03
  0.184400007         4.13378188E-03
  0.185200006         4.66045830E-03
  0.186000004         5.17665595E-03
  0.186800003         5.68093173E-03
  0.187600002         6.17188541E-03
  0.188400000         6.64816564E-03
  0.189199999         7.10847508E-03
  0.189999998         7.55157787E-03
  0.190799996         7.97630567E-03
  0.191599995         8.38156417E-03
  0.192399994         8.76633637E-03
  0.193200007         9.12968535E-03
  0.194000006         9.47075710E-03
  0.194800004         9.78878327E-03
  0.195600003         1.00830849E-02
  0.196400002         1.03530772E-02
  0.197200000         1.05982739E-02
  0.197999999         1.08182887E-02
  0.198799998         1.10128317E-02
  0.199599996         1.11817103E-02
  0.200399995         1.13248285E-02
  0.201199993         1.14421854E-02
  0.202000007         1.15338759E-02
  0.202800006         1.16000911E-02
  0.203600004         1.16411177E-02
  0.204400003         1.16573321E-02
  0.205200002         1.16491979E-02
  0.206000000         1.16172619E-02
  0.206799999         1.15621509E-02
  0.207599998         1.14845689E-02
  0.208399996         1.13852974E-02
  0.209199995         1.12651829E-02
  0.209999993         1.11251362E-02
  0.210800007         1.09661231E-02
  0.211600006         1.07891643E-02
  0.212400004         1.05953319E-02
  0.213200003         1.03857433E-02
  0.214000002         1.01615526E-02
  0.214800000         9.92394239E-03
  0.215599999         9.67412256E-03
  0.216399997         9.41332243E-03
  0.217199996         9.14279372E-03
  0.217999995         8.86380207E-03
  0.218799993         8.57761968E-03
  0.219600007         8.28551687E-03
  0.220400006         7.98876118E-03
  0.221200004         7.68860942E-03
  0.222000003         7.38631096E-03
  0.222800002         7.08310213E-03
  0.223600000         6.78020343E-03
  0.224399999         6.47880929E-03
  0.225199997         6.18008478E-03
  0.225999996         5.88516332E-03
  0.226799995         5.59514714E-03
  0.227599993         5.31111052E-03
  0.228400007         5.03409607E-03
  0.229200006         4.76510916E-03
  0.230000004         4.50511416E-03
  0.230800003         4.25502984E-03
  0.231600001         4.01572976E-03
  0.232400000         3.78804794E-03
  0.233199999         3.57277878E-03
  0.233999997         3.37067759E-03
  0.234799996         3.18245613E-03
  0.235599995         3.00878007E-03
  0.236399993         2.85026873E-03
  0.237200007         2.70749792E-03
  0.238000005         2.58100312E-03
  0.238800004         2.47128191E-03
  0.239600003         2.37879180E-03
  0.240400001         2.30394932E-03
  0.241200000         2.24712677E-03
  0.241999999         2.20865477E-03
  0.242799997         2.18882412E-03
  0.243599996         2.18788930E-03
  0.244399995         2.20606942E-03
  0.245199993         2.24354560E-03
  0.246000007         2.30045989E-03
  0.246800005         2.37691519E-03
  0.247600004         2.47297715E-03
  0.248400003         2.58867582E-03
  0.249200001         2.72400724E-03
  0.250000000         2.87892972E-03
  0.250800014         3.05336178E-03
  0.251599997         3.24717956E-03
  0.252400011         3.46021913E-03
  0.253199995         3.69227701E-03
  0.254000008         3.94311221E-03
  0.254799992         4.21244232E-03
  0.255600005         4.49994020E-03
  0.256399989         4.80522960E-03
  0.257200003         5.12788631E-03
  0.257999986         5.46743767E-03
  0.258800000         5.82336634E-03
  0.259600013         6.19510561E-03
  0.260399997         6.58203615E-03
  0.261200011         6.98348088E-03
  0.261999995         7.39870314E-03
  0.262800008         7.82690663E-03
  0.263599992         8.26723501E-03
  0.264400005         8.71877559E-03
  0.265199989         9.18055885E-03
  0.266000003         9.65155102E-03
  0.266799986         1.01306494E-02
  0.267600000         1.06166862E-02
  0.268400013         1.11084310E-02
  0.269199997         1.16045941E-02
  0.270000011         1.21038267E-02
  0.270799994         1.26047172E-02
  0.271600008         1.31057901E-02
  0.272399992         1.36055034E-02
  0.273200005         1.41022550E-02
  0.273999989         1.45943891E-02
  0.274800003         1.50802024E-02
  0.275599986         1.55579457E-02
  0.276400000         1.60258245E-02
  0.277200013         1.64820012E-02
  0.277999997         1.69246048E-02
  0.278800011         1.73517317E-02
  0.279599994         1.77614521E-02
  0.280400008         1.81518197E-02
  0.281199992         1.85208824E-02
  0.282000005         1.88666787E-02
  0.282799989         1.91872530E-02
  0.283600003         1.94806606E-02
  0.284399986         1.97449811E-02
  0.285200000         1.99783165E-02
  0.286000013         2.01788098E-02
  0.286799997         2.03446485E-02
  0.287600011         2.04740781E-02
  0.288399994         2.05654111E-02
  0.289200008         2.06170361E-02
  0.289999992         2.06274353E-02
  0.290800005         2.05951817E-02
  0.291599989         2.05189493E-02
  0.292400002         2.03975234E-02
  0.293199986         2.02298146E-02
  0.294000000         2.00148635E-02
  0.294800013         1.97518561E-02
  0.295599997         1.94401275E-02
  0.296400011         1.90791637E-02
  0.297199994         1.86686143E-02
  0.298000008         1.82082970E-02
  0.298799992         1.76982079E-02
  0.299600005         1.71385240E-02
  0.300399989         1.65296048E-02
  0.301200002         1.58719979E-02
  0.301999986         1.51664345E-02
  0.302800000         1.44138383E-02
  0.303600013         1.36153288E-02
  0.304399997         1.27722165E-02
  0.305200011         1.18860006E-02
  0.305999994         1.09583633E-02
  0.306800008         9.99116898E-03
  0.307599992         8.98645911E-03
  0.308400005         7.94644933E-03
  0.309199989         6.87352754E-03
  0.310000002         5.77024138E-03
  0.310799986         4.63928562E-03
  0.311600000         3.48349172E-03
  0.312400013         2.30581826E-03
  0.313199997         1.10934442E-03
  0.314000010        -1.02738668E-04
  0.314799994        -1.32714189E-03
  0.315600008        -2.56049680E-03
  0.316399992        -3.79937654E-03
  0.317200005        -5.04030986E-03
  0.317999989        -6.27978891E-03
  0.318800002        -7.51427747E-03
  0.319599986        -8.74022301E-03
  0.320400000        -9.95407999E-03
  0.321200013        -1.11523326E-02
  0.321999997        -1.23315174E-02
  0.322800010        -1.34882350E-02
  0.323599994        -1.46191530E-02
  0.324400008        -1.57210138E-02
  0.325199991        -1.67906545E-02
  0.326000005        -1.78250261E-02
  0.326799989        -1.88212208E-02
  0.327600002        -1.97764840E-02
  0.328399986        -2.06882227E-02
  0.329200000        -2.15540025E-02
  0.330000013        -2.23715492E-02
  0.330799997        -2.31387652E-02
  0.331600010        -2.38537453E-02
  0.332399994        -2.45148018E-02
  0.333200008        -2.51204688E-02
  0.333999991        -2.56694928E-02
  0.334800005        -2.61608213E-02
  0.335599989        -2.65936051E-02
  0.336400002        -2.69672088E-02
  0.337199986        -2.72812340E-02
  0.338000000        -2.75355279E-02
  0.338800013        -2.77301613E-02
  0.339599997        -2.78654117E-02
  0.340400010        -2.79417466E-02
  0.341199994        -2.79598255E-02
  0.342000008        -2.79205143E-02
  0.342799991        -2.78248973E-02
  0.343600005        -2.76742615E-02
  0.344399989        -2.74700671E-02
  0.345200002        -2.72139236E-02
  0.345999986        -2.69075744E-02
  0.346799999        -2.65529063E-02
  0.347600013        -2.61519607E-02
  0.348399997        -2.57069245E-02
  0.349200010        -2.52201073E-02
  0.349999994        -2.46939007E-02
  0.350800008        -2.41307635E-02
  0.351599991        -2.35332102E-02
  0.352400005        -2.29038205E-02
  0.353199989        -2.22452451E-02
  0.354000002        -2.15601865E-02
  0.354799986        -2.08513625E-02
  0.355599999        -2.01214775E-02
  0.356400013        -1.93732139E-02
  0.357199997        -1.86092332E-02
  0.358000010        -1.78321954E-02
  0.358799994        -1.70447435E-02
  0.359600008        -1.62494835E-02
  0.360399991        -1.54489474E-02
  0.361200005        -1.46455718E-02
  0.361999989        -1.38417045E-02
  0.362800002        -1.30396197E-02
  0.363599986        -1.22415293E-02
  0.364399999        -1.14495689E-02
  0.365200013        -1.06657678E-02
  0.365999997        -9.89201851E-03
  0.366800010        -9.13007837E-03
  0.367599994        -8.38158652E-03
  0.368400007        -7.64808943E-03
  0.369199991        -6.93104742E-03
  0.370000005        -6.23180903E-03
  0.370799989        -5.55158406E-03
  0.371600002        -4.89143003E-03
  0.372399986        -4.25226521E-03
  0.373199999        -3.63489869E-03
  0.374000013        -3.04005039E-03
  0.374799997        -2.46834848E-03
  0.375600010        -1.92030822E-03
  0.376399994        -1.39631086E-03
  0.377200007        -8.96605372E-04
  0.377999991        -4.21333942E-04
  0.378800005         2.94387064E-05
  0.379599988         4.55711212E-04
  0.380400002         8.57556937E-04
  0.381199986         1.23514386E-03
  0.381999999         1.58874365E-03
  0.382800013         1.91871694E-03
  0.383599997         2.22548516E-03
  0.384400010         2.50950805E-03
  0.385199994         2.77128094E-03
  0.386000007         3.01134959E-03
  0.386799991         3.23032285E-03
  0.387600005         3.42886848E-03
  0.388399988         3.60769220E-03
  0.389200002         3.76751437E-03
  0.389999986         3.90906073E-03
  0.390799999         4.03306866E-03
  0.391600013         4.14030161E-03
  0.392399997         4.23155213E-03
  0.393200010         4.30762675E-03
  0.393999994         4.36932500E-03
  0.394800007         4.41742968E-03
  0.395599991         4.45271097E-03
  0.396400005         4.47593955E-03
  0.397199988         4.48789494E-03
  0.398000002         4.48935479E-03
  0.398799986         4.48107300E-03
  0.399599999         4.46376484E-03
  0.400400013         4.43811109E-03
  0.401199996         4.40477440E-03
  0.402000010         4.36441647E-03
  0.402799994         4.31769574E-03
  0.403600007         4.26524784E-03
  0.404399991         4.20766464E-03
  0.405200005         4.14548861E-03
  0.405999988         4.07922873E-03
  0.406800002         4.00938280E-03
  0.407599986         3.93644813E-03
  0.408399999         3.86090926E-03
  0.409200013         3.78320972E-03
  0.409999996         3.70373763E-03
  0.410800010         3.62283364E-03
  0.411599994         3.54081718E-03
  0.412400007         3.45801120E-03
  0.413199991         3.37474421E-03
  0.414000005         3.29132704E-03
  0.414799988         3.20802652E-03
  0.415600002         3.12505639E-03
  0.416399986         3.04259476E-03
  0.417199999         2.96081230E-03
  0.418000013         2.87988898E-03
  0.418799996         2.80000595E-03
  0.419600010         2.72132014E-03
  0.420399994         2.64394656E-03
  0.421200007         2.56796251E-03
  0.421999991         2.49343063E-03
  0.422800004         2.42042355E-03
  0.423599988         2.34902767E-03
  0.424400002         2.27932329E-03
  0.425199986         2.21136212E-03
  0.425999999         2.14515929E-03
  0.426800013         2.08070944E-03
  0.427599996         2.01801118E-03
  0.428400010         1.95708103E-03
  0.429199994         1.89794367E-03
  0.430000007         1.84060901E-03
  0.430799991         1.78505713E-03
  0.431600004         1.73124473E-03
  0.432399988         1.67912862E-03
  0.433200002         1.62868469E-03
  0.433999985         1.57990749E-03
  0.434799999         1.53278827E-03
  0.435600013         1.48729456E-03
  0.436399996         1.44336722E-03
  0.437200010         1.40094082E-03
  0.437999994         1.35996880E-03
  0.438800007         1.32043159E-03
  0.439599991         1.28231954E-03
  0.440400004         1.24560471E-03
  0.441199988         1.21022668E-03
  0.442000002         1.17610570E-03
  0.442799985         1.14317320E-03
  0.443599999         1.11139473E-03
  0.444400012         1.08076527E-03
  0.445199996         1.05127948E-03
  0.446000010         1.02290255E-03
  0.446799994         9.95565671E-04
  0.447600007         9.69190383E-04
  0.448399991         9.43721447E-04
  0.449200004         9.19141574E-04
  0.449999988         8.95454665E-04
  0.450800002         8.72652163E-04
  0.451599985         8.50690529E-04
  0.452399999         8.29499273E-04
  0.453200012         8.09012447E-04
  0.453999996         7.89197395E-04
  0.454800010         7.70056446E-04
  0.455599993         7.51600601E-04
  0.456400007         7.33817578E-04
  0.457199991         7.16660754E-04
  0.458000004         7.00067438E-04
  0.458799988         6.83990656E-04
  0.459600002         6.68416847E-04
  0.460399985         6.53356081E-04
  0.461199999         6.38813421E-04
  0.462000012         6.24767039E-04
  0.462799996         6.11170835E-04
  0.463600010         5.97978826E-04
  0.464399993         5.85168833E-04
  0.465200007         5.72745688E-04
  0.465999991         5.60721150E-04
  0.466800004         5.49089455E-04
  0.467599988         5.37819753E-04
  0.468400002         5.26871649E-04
  0.469199985         5.16219705E-04
  0.469999999         5.05864387E-04
  0.470800012         4.95819782E-04
  0.471599996         4.86089470E-04
  0.472400010         4.76651854E-04
  0.473199993         4.67468984E-04
  0.474000007         4.58511087E-04
  0.474799991         4.49774729E-04
  0.475600004         4.41278506E-04
  0.476399988         4.33039007E-04
  0.477200001         4.25048464E-04
  0.477999985         4.17273899E-04
  0.478799999         4.09679109E-04
  0.479600012         4.02250473E-04
  0.480399996         3.95003619E-04
  0.481200010         3.87964246E-04
  0.481999993         3.81139427E-04
  0.482800007         3.74504511E-04
  0.483599991         3.68017616E-04
  0.484400004         3.61650338E-04
  0.485199988         3.55408323E-04
  0.486000001         3.49323440E-04
  0.486799985         3.43423628E-04
  0.487599999         3.37705656E-04
  0.488400012         3.32134048E-04
  0.489199996         3.26667330E-04
  0.490000010         3.21289175E-04
  0.490799993         3.16018035E-04
  0.491600007         3.10887001E-04
  0.492399991         3.05911351E-04
  0.493200004         3.01071996E-04
  0.493999988         2.96329061E-04
  0.494800001         2.91654025E-04
  0.495599985         2.87052186E-04
  0.496399999         2.82556080E-04
  0.497200012         2.78194988E-04