 -0.14999999999999999          0.0000000000000000     
 -0.14920000000000000          0.0000000000000000     
 -0.14840000000000000          0.0000000000000000     
 -0.14759999999999998          0.0000000000000000     
 -0.14679999999999999          0.0000000000000000     
 -0.14599999999999999          0.0000000000000000     
 -0.14520000000000000          0.0000000000000000     
 -0.14440000000000000          0.0000000000000000     
 -0.14360000000000001          0.0000000000000000     
 -0.14279999999999998          0.0000000000000000     
 -0.14199999999999999          0.0000000000000000     
 -0.14119999999999999         -1.6521734889122748E-038
 -0.14040000000000000          1.7159620523587434E-037
 -0.13960000000000000         -2.1752200102800250E-035
 -0.13880000000000001         -1.2881022326506249E-034
 -0.13799999999999998         -3.2550848249135166E-034
 -0.13719999999999999         -2.8767706107070835E-033
 -0.13639999999999999         -2.3284782786999159E-032
 -0.13560000000000000         -8.0306729517810053E-032
 -0.13480000000000000         -4.4233150063568063E-032
 -0.13400000000000001          5.3377689136093620E-031
 -0.13319999999999999          1.2726268596239541E-030
 -0.13239999999999999         -2.8124654023649654E-030
 -0.13159999999999999         -1.9676559689487698E-029
 -0.13080000000000000         -2.8504945818287566E-029
 -0.13000000000000000          7.7171814260071026E-029
 -0.12919999999999998          4.0892336433151151E-028
 -0.12839999999999999          5.6607756260480862E-028
 -0.12759999999999999         -1.0429478798190476E-027
 -0.12680000000000000         -5.9406283655176150E-027
 -0.12600000000000000         -9.4215206358220727E-027
 -0.12519999999999998          6.8460484769028867E-027
 -0.12440000000000000          6.2870796661675572E-026
 -0.12359999999999999          1.2238990822634173E-025
 -0.12279999999999999          1.8090400175329258E-026
 -0.12200000000000000         -4.7642258433930166E-025
 -0.12119999999999999         -1.2053735467209169E-024
 -0.12039999999999999         -9.6455294919582782E-025
 -0.11960000000000000          2.3154716287528608E-024
 -0.11879999999999999          8.8674994497507246E-024
 -0.11799999999999999          1.2079171498237115E-023
 -0.11720000000000000         -3.0291980687017763E-024
 -0.11639999999999999         -4.6984732219806233E-023
 -0.11559999999999999         -9.4865257018257996E-023
 -0.11479999999999999         -6.1846215341896951E-023
 -0.11399999999999999          1.5500185300635997E-022
 -0.11320000000000000          5.2194031374329636E-022
 -0.11240000000000000          6.7537307823296104E-022
 -0.11159999999999999         -3.8128604200004269E-023
 -0.11080000000000000         -1.9615469432604831E-021
 -0.10999999999999999         -4.0449257161845930E-021
 -0.10919999999999999         -3.2665124090616814E-021
 -0.10840000000000000          3.7537981263474911E-021
 -0.10760000000000000          1.6161939484201223E-020
 -0.10679999999999999          2.3893073219502991E-020
 -0.10599999999999998          9.0872616144590786E-021
 -0.10519999999999999         -3.9415925207627502E-020
 -0.10439999999999999         -1.0156150702789923E-019
 -0.10360000000000000         -1.1241043312592968E-019
 -0.10280000000000000          8.6415308177409048E-021
 -0.10199999999999999          2.7217770595295032E-019
 -0.10119999999999998          5.2090582381699971E-019
 -0.10039999999999999          4.3025119722879792E-019
  -9.9599999999999994E-002    -2.8279007132048767E-019
  -9.8799999999999999E-002    -1.4713743979486060E-018
  -9.7999999999999990E-002    -2.2687237756856744E-018
  -9.7199999999999995E-002    -1.3423105443452993E-018
  -9.6399999999999986E-002     2.0541911750975964E-018
  -9.5599999999999991E-002     6.6531464292523163E-018
  -9.4799999999999995E-002     8.6217812796177874E-018
  -9.4000000000000000E-002     3.3207376621997497E-018
  -9.3199999999999991E-002    -1.0447540945089731E-017
  -9.2399999999999982E-002    -2.6071396183801547E-017
  -9.1599999999999987E-002    -2.9184255499850901E-017
  -9.0799999999999992E-002    -5.8198107657612816E-018
  -8.9999999999999997E-002     4.3086421974678521E-017
  -8.9200000000000002E-002     9.0532284300858510E-017
  -8.8399999999999992E-002     8.9458974442679104E-017
  -8.7599999999999983E-002     3.0812694952511076E-018
  -8.6799999999999988E-002    -1.5206902939553642E-016
  -8.5999999999999993E-002    -2.8278057301230888E-016
  -8.5199999999999998E-002    -2.5169327270799398E-016
  -8.4399999999999989E-002     2.6460612786148573E-017
  -8.3599999999999994E-002     4.7181482167518241E-016
  -8.2799999999999985E-002     8.0260977493995652E-016
  -8.1999999999999990E-002     6.5672730213759811E-016
  -8.1199999999999994E-002    -1.3967822116151669E-016
  -8.0399999999999985E-002    -1.3066362008080359E-015
  -7.9599999999999990E-002    -2.0833491080559947E-015
  -7.8799999999999995E-002    -1.5995680401767139E-015
  -7.7999999999999986E-002     4.5301037260878172E-016
  -7.7199999999999991E-002     3.2594757429005089E-015
  -7.6399999999999996E-002     4.9621587153397644E-015
  -7.5599999999999987E-002     3.6433724621780759E-015
  -7.4799999999999991E-002    -1.1553652220326008E-015
  -7.3999999999999996E-002    -7.3651877985684254E-015
  -7.3199999999999987E-002    -1.0852107346158001E-014
  -7.2399999999999992E-002    -7.7318183864909240E-015
  -7.1599999999999997E-002     2.4970421170773631E-015
  -7.0799999999999988E-002     1.5135558889653629E-014
  -6.9999999999999993E-002     2.1757303329318113E-014
  -6.9199999999999984E-002     1.5140397141848345E-014
  -6.8399999999999989E-002    -4.8221996498166737E-015
  -6.7599999999999993E-002    -2.8419730761439221E-014
  -6.6799999999999984E-002    -3.9866188421191356E-014
  -6.5999999999999989E-002    -2.6911937576427208E-014
  -6.5199999999999994E-002     8.9523666054630059E-015
  -6.4399999999999985E-002     4.9198163853394691E-014
  -6.3599999999999990E-002     6.6558202363193458E-014
  -6.2799999999999995E-002     4.2317284930110804E-014
  -6.1999999999999986E-002    -1.7592484679316081E-014
  -6.1199999999999991E-002    -8.0021296392559366E-014
  -6.0399999999999995E-002    -1.0132539474344907E-013
  -5.9599999999999986E-002    -5.6350787886816703E-014
  -5.8799999999999991E-002     3.8463329065816995E-014
  -5.7999999999999996E-002     1.2653402360184723E-013
  -5.7199999999999987E-002     1.4248961711059438E-013
  -5.6399999999999992E-002     5.7941647898900051E-014
  -5.5599999999999997E-002    -8.8504229715357513E-014
  -5.4799999999999988E-002    -2.0314641895752272E-013
  -5.3999999999999992E-002    -1.9267711883451388E-013
  -5.3199999999999983E-002    -3.3171378919496716E-014
  -5.2399999999999988E-002     1.9484191820726138E-013
  -5.1599999999999993E-002     3.3925911125526342E-013
  -5.0799999999999984E-002     2.6974909393857882E-013
  -4.9999999999999989E-002    -2.1714949987889504E-014
  -4.9199999999999994E-002    -3.8413198945493054E-013
  -4.8399999999999985E-002    -5.7601785754396451E-013
  -4.7599999999999990E-002    -4.1476292344209964E-013
  -4.6799999999999994E-002     8.0584519092374851E-014
  -4.5999999999999985E-002     6.5497005605555381E-013
  -4.5199999999999990E-002     9.3899432500321733E-013
  -4.4399999999999995E-002     6.7540320124875874E-013
  -4.3599999999999986E-002    -8.3653604063347459E-014
  -4.2799999999999991E-002    -9.4890165603517262E-013
  -4.1999999999999996E-002    -1.3869428609064594E-012
  -4.1199999999999987E-002    -1.0446235890193556E-012
  -4.0399999999999991E-002    -1.0682060399799017E-014
  -3.9599999999999982E-002     1.1705775238013416E-012
  -3.8799999999999987E-002     1.7831799405121362E-012
  -3.7999999999999992E-002     1.3791619755953999E-012
  -3.7199999999999983E-002     1.0574658146746477E-013
  -3.6399999999999988E-002    -1.3140705971276256E-012
  -3.5599999999999993E-002    -1.9846099590103972E-012
  -3.4799999999999984E-002    -1.4094609810874625E-012
  -3.3999999999999989E-002     1.2762276587093002E-013
  -3.3199999999999993E-002     1.6568445834058698E-012
  -3.2399999999999984E-002     2.0961641710587342E-012
  -3.1599999999999989E-002     9.8484328331371884E-013
  -3.0799999999999994E-002    -1.1002663623943532E-012
  -2.9999999999999985E-002    -2.7801714923281207E-012
  -2.9199999999999990E-002    -2.7037174582522638E-012
  -2.8399999999999995E-002    -5.0084041731610074E-013
  -2.7599999999999986E-002     2.7717151490636027E-012
  -2.6799999999999990E-002     5.0806923772295232E-012
  -2.5999999999999995E-002     4.6083653386375101E-012
  -2.5199999999999986E-002     1.0086848890866751E-012
  -2.4399999999999977E-002    -4.0990800163898111E-012
  -2.3599999999999982E-002    -7.8442807804890435E-012
  -2.2799999999999987E-002    -7.7373168635985756E-012
  -2.1999999999999992E-002    -3.2853097412660626E-012
  -2.1199999999999997E-002     3.4582367351709831E-012
  -2.0400000000000001E-002     8.8926184124704655E-012
  -1.9599999999999979E-002     9.9429483743640468E-012
  -1.8799999999999983E-002     5.9738854488178283E-012
  -1.7999999999999988E-002    -7.1365987121610464E-013
  -1.7199999999999993E-002    -6.2454572763437355E-012
  -1.6399999999999998E-002    -7.6348762381717172E-012
  -1.5599999999999975E-002    -4.7605938288675098E-012
  -1.4799999999999980E-002    -4.5471704743574315E-013
  -1.3999999999999985E-002     1.5315738044127669E-012
  -1.3199999999999990E-002    -5.6703448360340136E-013
  -1.2399999999999994E-002    -4.8030316703029374E-012
  -1.1599999999999999E-002    -6.4613249646516824E-012
  -1.0799999999999976E-002    -1.4498400310175574E-012
  -9.9999999999999811E-003     9.9469963515952387E-012
  -9.1999999999999860E-003     2.1729680554916087E-011
  -8.3999999999999908E-003     2.4871193646247569E-011
  -7.5999999999999956E-003     1.3087485088714157E-011
  -6.8000000000000005E-003    -1.1674232761049730E-011
  -5.9999999999999776E-003    -3.7980032313589263E-011
  -5.1999999999999824E-003    -4.9825005232762010E-011
  -4.3999999999999873E-003    -3.5904477307946436E-011
  -3.5999999999999921E-003     1.8917801353213193E-012
  -2.7999999999999969E-003     4.6492230204586704E-011
  -1.9999999999999740E-003     7.2865206923733439E-011
  -1.1999999999999789E-003     6.1791217975670776E-011
  -3.9999999999998370E-004     1.2850408237508049E-011
   4.0000000000001146E-004    -5.1614074125794218E-011
   1.2000000000000066E-003    -9.5708843628194984E-011
   2.0000000000000018E-003    -8.9162545402476923E-011
   2.8000000000000247E-003    -2.6603455549611965E-011
   3.6000000000000199E-003     6.4644352371079350E-011
   4.4000000000000150E-003     1.3485927652379104E-010
   5.2000000000000102E-003     1.3724160696781951E-010
   6.0000000000000053E-003     5.5872067389328706E-011
   6.8000000000000005E-003    -7.9464601565604198E-011
   7.6000000000000234E-003    -2.0208562601098379E-010
   8.4000000000000186E-003    -2.3936044812877810E-010
   9.2000000000000137E-003    -1.5170710521150710E-010
   1.0000000000000009E-002     4.0638770126832924E-011
   1.0800000000000004E-002     2.5898483357877922E-010
   1.1600000000000027E-002     3.9811026697478269E-010
   1.2400000000000022E-002     3.7527339569187745E-010
   1.3200000000000017E-002     1.7288015463634565E-010
   1.4000000000000012E-002    -1.4685128113534063E-010
   1.4800000000000008E-002    -4.6383050178455676E-010
   1.5600000000000003E-002    -6.4933958210389164E-010
   1.6400000000000026E-002    -6.1978661092254583E-010
   1.7200000000000021E-002    -3.7013830889165433E-010
   1.8000000000000016E-002     2.7348128969761909E-011
   1.8800000000000011E-002     4.5609016563474825E-010
   1.9600000000000006E-002     8.0167933402819358E-010
   2.0400000000000001E-002     9.8860430952640854E-010
   2.1200000000000024E-002     9.9110164519800037E-010
   2.2000000000000020E-002     8.1739365276334297E-010
   2.2800000000000015E-002     4.8169940258802058E-010
   2.3600000000000010E-002    -1.4746369056406472E-011
   2.4400000000000005E-002    -6.7748789911448171E-010
   2.5200000000000000E-002    -1.4857688412917014E-009
   2.6000000000000023E-002    -2.3476902644148367E-009
   2.6800000000000018E-002    -3.0695352926102260E-009
   2.7600000000000013E-002    -3.3644023123002853E-009
   2.8400000000000009E-002    -2.9122513289792096E-009
   2.9200000000000004E-002    -1.4627362654451304E-009
   3.0000000000000027E-002     1.0482790191446156E-009
   3.0800000000000022E-002     4.4093289019997428E-009
   3.1600000000000017E-002     8.1088114001204303E-009
   3.2400000000000012E-002     1.1394147847454406E-008
   3.3200000000000007E-002     1.3403885112950320E-008
   3.4000000000000002E-002     1.3332283721467775E-008
   3.4800000000000025E-002     1.0568839137192754E-008
   3.5600000000000021E-002     4.7604720165850267E-009
   3.6400000000000016E-002    -4.2266896649323371E-009
   3.7200000000000011E-002    -1.6425932614083649E-008
   3.8000000000000006E-002    -3.1910623476960609E-008
   3.8800000000000001E-002    -5.0885429203617605E-008
   3.9600000000000024E-002    -7.3679352396993636E-008
   4.0400000000000019E-002    -1.0064422184541399E-007
   4.1200000000000014E-002    -1.3201999138345855E-007
   4.2000000000000010E-002    -1.6785932643870183E-007
   4.2800000000000005E-002    -2.0808546707939968E-007
   4.3600000000000028E-002    -2.5269017100981728E-007
   4.4400000000000023E-002    -3.0199274192455050E-007
   4.5200000000000018E-002    -3.5682376164913876E-007
   4.6000000000000013E-002    -4.1850802290355205E-007
   4.6800000000000008E-002    -4.8861062396099442E-007
   4.7600000000000003E-002    -5.6854003105399897E-007
   4.8400000000000026E-002    -6.5921028635784751E-007
   4.9200000000000021E-002    -7.6097865076008020E-007
   5.0000000000000017E-002    -8.7397461356886197E-007
   5.0800000000000012E-002    -9.9874557690782240E-007
   5.1600000000000007E-002    -1.1369579624442849E-006
   5.2400000000000002E-002    -1.2918096672365209E-006
   5.3200000000000025E-002    -1.4678919342259178E-006
   5.4000000000000020E-002    -1.6704701693015522E-006
   5.4800000000000015E-002    -1.9044388182010152E-006
   5.5600000000000011E-002    -2.1733992525696522E-006
   5.6400000000000006E-002    -2.4793114334897837E-006
   5.7200000000000029E-002    -2.8229489998921053E-006
   5.8000000000000024E-002    -3.2050379559223074E-006
   5.8800000000000019E-002    -3.6276394439482829E-006
   5.9600000000000014E-002    -4.0952045310405083E-006
   6.0400000000000009E-002    -4.6148629735398572E-006
   6.1200000000000004E-002    -5.1958440963062458E-006
   6.2000000000000027E-002    -5.8483242355578113E-006
   6.2800000000000022E-002    -6.5822391661640722E-006
   6.3600000000000018E-002    -7.4066037996090017E-006
   6.4400000000000013E-002    -8.3296090451767668E-006
   6.5200000000000008E-002    -9.3593953351955861E-006
   6.6000000000000003E-002    -1.0505079444556031E-005
   6.6800000000000026E-002    -1.1777549843827728E-005
   6.7600000000000021E-002    -1.3189685887482483E-005
   6.8400000000000016E-002    -1.4756035852769855E-005
   6.9200000000000012E-002    -1.6492256690980867E-005
   7.0000000000000007E-002    -1.8414757505524904E-005
   7.0800000000000030E-002    -2.0540852347039618E-005
   7.1600000000000025E-002    -2.2889400497660972E-005
   7.2400000000000020E-002    -2.5481644115643576E-005
   7.3200000000000015E-002    -2.8341752113192342E-005
   7.4000000000000010E-002    -3.1496776500716805E-005
   7.4800000000000005E-002    -3.4976004826603457E-005
   7.5600000000000028E-002    -3.8810030673630536E-005
   7.6400000000000023E-002    -4.3030064261984080E-005
   7.7200000000000019E-002    -4.7667941544204950E-005
   7.8000000000000014E-002    -5.2756873628823087E-005
   7.8800000000000009E-002    -5.8332676417194307E-005
   7.9600000000000004E-002    -6.4434883825015277E-005
   8.0400000000000027E-002    -7.1107315307017416E-005
   8.1200000000000022E-002    -7.8397766628768295E-005
   8.2000000000000017E-002    -8.6357154941651970E-005
   8.2800000000000012E-002    -9.5038594736251980E-005
   8.3600000000000008E-002    -1.0449698311276734E-004
   8.4400000000000031E-002    -1.1478953092591837E-004
   8.5200000000000026E-002    -1.2597702152561396E-004
   8.6000000000000021E-002    -1.3812526594847441E-004
   8.6800000000000016E-002    -1.5130604151636362E-004
   8.7600000000000011E-002    -1.6559685172978789E-004
   8.8400000000000006E-002    -1.8107962387148291E-004
   8.9200000000000029E-002    -1.9783868629019707E-004
   9.0000000000000024E-002    -2.1595897851511836E-004
   9.0800000000000020E-002    -2.3552532366011292E-004
   9.1600000000000015E-002    -2.5662314146757126E-004
   9.2400000000000010E-002    -2.7934063109569252E-004
   9.3200000000000005E-002    -3.0377134680747986E-004
   9.4000000000000028E-002    -3.3001622068695724E-004
   9.4800000000000023E-002    -3.5818436299450696E-004
   9.5600000000000018E-002    -3.8839183980599046E-004
   9.6400000000000013E-002    -4.2075908277183771E-004
   9.7200000000000009E-002    -4.5540780411101878E-004
   9.8000000000000004E-002    -4.9245834816247225E-004
   9.8800000000000027E-002    -5.3202890558168292E-004
   9.9600000000000022E-002    -5.7423586258664727E-004
  0.10040000000000002         -6.1919569270685315E-004
  0.10120000000000004         -6.6702713957056403E-004
  0.10200000000000001         -7.1785273030400276E-004
  0.10280000000000003         -7.7179871732369065E-004
  0.10360000000000000         -8.2899403059855103E-004
  0.10440000000000002         -8.8956771651282907E-004
  0.10520000000000004         -9.5364672597497702E-004
  0.10600000000000001         -1.0213538771495223E-003
  0.10680000000000003         -1.0928061092272401E-003
  0.10760000000000000         -1.1681145988404751E-003
  0.10840000000000002         -1.2473844690248370E-003
  0.10919999999999999         -1.3307138578966260E-003
  0.11000000000000001         -1.4181939186528325E-003
  0.11080000000000004         -1.5099081210792065E-003
  0.11160000000000000         -1.6059312038123608E-003
  0.11240000000000003         -1.7063288250938058E-003
  0.11320000000000000         -1.8111577956005931E-003
  0.11400000000000002         -1.9204644486308098E-003
  0.11480000000000004         -2.0342832431197166E-003
  0.11560000000000001         -2.1526350174099207E-003
  0.11640000000000003         -2.2755251266062260E-003
  0.11720000000000000         -2.4029398337006569E-003
  0.11800000000000002         -2.5348442140966654E-003
  0.11880000000000004         -2.6711802929639816E-003
  0.11960000000000001         -2.8118661139160395E-003
  0.12040000000000003         -2.9567964375019073E-003
  0.12120000000000000         -3.1058436725288630E-003
  0.12200000000000003         -3.2588590402156115E-003
  0.12279999999999999         -3.4156721085309982E-003
  0.12360000000000002         -3.5760886967182159E-003
  0.12440000000000004         -3.7398890126496553E-003
  0.12520000000000001         -3.9068255573511124E-003
  0.12600000000000003         -4.0766191668808460E-003
  0.12680000000000000         -4.2489608749747276E-003
  0.12760000000000002         -4.4235079549252987E-003
  0.12840000000000004         -4.5998869463801384E-003
  0.12920000000000001         -4.7776945866644382E-003
  0.13000000000000003         -4.9564959481358528E-003
  0.13080000000000000         -5.1358272321522236E-003
  0.13160000000000002         -5.3151939064264297E-003
  0.13240000000000005         -5.4940730333328247E-003
  0.13320000000000001         -5.6719137355685234E-003
  0.13400000000000004         -5.8481367304921150E-003
  0.13480000000000000         -6.0221375897526741E-003
  0.13560000000000003         -6.1932839453220367E-003
  0.13639999999999999         -6.3609192147850990E-003
  0.13720000000000002         -6.5243612043559551E-003
  0.13800000000000004         -6.6829058341681957E-003
  0.13880000000000001         -6.8358276039361954E-003
  0.13960000000000003         -6.9823833182454109E-003
  0.14040000000000000         -7.1218162775039673E-003
  0.14120000000000002         -7.2533600032329559E-003
  0.14200000000000004         -7.3762396350502968E-003
  0.14280000000000001         -7.4896761216223240E-003
  0.14360000000000003         -7.5928894802927971E-003
  0.14440000000000000         -7.6851025223731995E-003
  0.14520000000000002         -7.7655427157878876E-003
  0.14600000000000005         -7.8334454447031021E-003
  0.14680000000000001         -7.8880582004785538E-003
  0.14760000000000004         -7.9286415129899979E-003
  0.14840000000000000         -7.9544726759195328E-003
  0.14920000000000003         -7.9648513346910477E-003
  0.14999999999999999         -7.9591069370508194E-003
  0.15080000000000002         -7.9366052523255348E-003
  0.15160000000000004         -7.8967511653900146E-003
  0.15240000000000001         -7.8389924019575119E-003
  0.15320000000000003         -7.7628227882087231E-003
  0.15400000000000000         -7.6677841134369373E-003
  0.15480000000000002         -7.5534712523221970E-003
  0.15560000000000004         -7.4195372872054577E-003
  0.15640000000000001         -7.2656949050724506E-003
  0.15720000000000003         -7.0917182601988316E-003
  0.15800000000000000         -6.8974476307630539E-003
  0.15880000000000002         -6.6827908158302307E-003
  0.15960000000000005         -6.4477277919650078E-003
  0.16040000000000001         -6.1923153698444366E-003
  0.16120000000000004         -5.9166895225644112E-003
  0.16200000000000001         -5.6210695765912533E-003
  0.16280000000000003         -5.3057549521327019E-003
  0.16360000000000000         -4.9711270257830620E-003
  0.16440000000000002         -4.6176468022167683E-003
  0.16520000000000004         -4.2458544485270977E-003
  0.16600000000000001         -3.8563688285648823E-003
  0.16680000000000003         -3.4498879685997963E-003
  0.16760000000000000         -3.0271888244897127E-003
  0.16840000000000002         -2.5891256518661976E-003
  0.16920000000000004         -2.1366272121667862E-003
  0.17000000000000001         -1.6706947935745120E-003
  0.17080000000000004         -1.1923999991267920E-003
  0.17160000000000000         -7.0288218557834625E-004
  0.17240000000000003         -2.0334488363005221E-004
  0.17320000000000005          3.0494938255287707E-004
  0.17400000000000002          8.2068587653338909E-004
  0.17480000000000004          1.3425037031993270E-003
  0.17560000000000001          1.8690028227865696E-003
  0.17640000000000003          2.3987481836229563E-003
  0.17720000000000000          2.9302742332220078E-003
  0.17800000000000002          3.4620892256498337E-003
  0.17880000000000004          3.9926813915371895E-003
  0.17960000000000001          4.5205270871520042E-003
  0.18040000000000003          5.0440952181816101E-003
  0.18120000000000000          5.5618560872972012E-003
  0.18200000000000002          6.0722883790731430E-003
  0.18280000000000005          6.5738861449062824E-003
  0.18360000000000001          7.0651648566126823E-003
  0.18440000000000004          7.5446697883307934E-003
  0.18520000000000000          8.0109834671020508E-003
  0.18600000000000003          8.4627280011773109E-003
  0.18680000000000005          8.8985739275813103E-003
  0.18760000000000002          9.3172462657094002E-003
  0.18840000000000004          9.7175296396017075E-003
  0.18920000000000001          1.0098274797201157E-002
  0.19000000000000003          1.0458406060934067E-002
  0.19080000000000000          1.0796921327710152E-002
  0.19160000000000002          1.1112895794212818E-002
  0.19240000000000004          1.1405481956899166E-002
  0.19320000000000001          1.1673915199935436E-002
  0.19400000000000003          1.1917523108422756E-002
  0.19480000000000000          1.2135730125010014E-002
  0.19560000000000002          1.2328056618571281E-002
  0.19640000000000005          1.2494120746850967E-002
  0.19720000000000001          1.2633638456463814E-002
  0.19800000000000004          1.2746419757604599E-002
  0.19880000000000000          1.2832370586693287E-002
  0.19960000000000003          1.2891493737697601E-002
  0.20039999999999999          1.2923885136842728E-002
  0.20120000000000002          1.2929735705256462E-002
  0.20200000000000004          1.2909322977066040E-002
  0.20280000000000001          1.2863011099398136E-002
  0.20360000000000003          1.2791243381798267E-002
  0.20440000000000000          1.2694549746811390E-002
  0.20520000000000002          1.2573543004691601E-002
  0.20600000000000004          1.2428916059434414E-002
  0.20680000000000001          1.2261431664228439E-002
  0.20760000000000003          1.2071918696165085E-002
  0.20840000000000000          1.1861258186399937E-002
  0.20920000000000002          1.1630379594862461E-002
  0.21000000000000005          1.1380261741578579E-002
  0.21080000000000002          1.1111925356090069E-002
  0.21160000000000004          1.0826432146131992E-002
  0.21240000000000001          1.0524875484406948E-002
  0.21320000000000003          1.0208370164036751E-002
  0.21400000000000000          9.8780458793044090E-003
  0.21480000000000002          9.5350407063961029E-003
  0.21560000000000004          9.1805038973689079E-003
  0.21640000000000001          8.8155874982476234E-003
  0.21720000000000003          8.4414426237344742E-003
  0.21800000000000000          8.0592073500156403E-003
  0.21880000000000002          7.6700011268258095E-003
  0.21960000000000005          7.2749159298837185E-003
  0.22040000000000001          6.8750162608921528E-003
  0.22120000000000004          6.4713340252637863E-003
  0.22200000000000000          6.0648699291050434E-003
  0.22280000000000003          5.6565846316516399E-003
  0.22360000000000005          5.2473922260105610E-003
  0.22440000000000002          4.8381560482084751E-003
  0.22520000000000004          4.4296840205788612E-003
  0.22600000000000001          4.0227309800684452E-003
  0.22680000000000003          3.6179965827614069E-003
  0.22760000000000000          3.2161239068955183E-003
  0.22840000000000002          2.8176971245557070E-003
  0.22920000000000004          2.4232377763837576E-003
  0.23000000000000001          2.0332031417638063E-003
  0.23080000000000003          1.6479868208989501E-003
  0.23160000000000000          1.2679186183959246E-003
  0.23240000000000002          8.9326419401913881E-004
  0.23320000000000005          5.2422331646084785E-004
  0.23400000000000001          1.6093027079477906E-004
  0.23480000000000004         -1.9654429343063384E-004
  0.23560000000000000         -5.4818834178149700E-004
  0.23640000000000003         -8.9404353639110923E-004
  0.23720000000000005         -1.2342031113803387E-003
  0.23800000000000002         -1.5688118292018771E-003
  0.23880000000000004         -1.8980669556185603E-003
  0.23960000000000001         -2.2222180850803852E-003
  0.24040000000000003         -2.5415620766580105E-003
  0.24120000000000000         -2.8564380481839180E-003
  0.24200000000000002         -3.1672201585024595E-003
  0.24280000000000004         -3.4743139985948801E-003
  0.24360000000000001         -3.7781544961035252E-003
  0.24440000000000003         -4.0792040526866913E-003
  0.24520000000000000         -4.3779490515589714E-003
  0.24600000000000002         -4.6748914755880833E-003
  0.24680000000000005         -4.9705426208674908E-003
  0.24760000000000001         -5.2654165774583817E-003
  0.24840000000000004         -5.5600279010832310E-003
  0.24920000000000000         -5.8548916131258011E-003
  0.25000000000000000         -6.1505208723247051E-003
  0.25080000000000002         -6.4474204555153847E-003
  0.25160000000000005         -6.7460788413882256E-003
  0.25240000000000007         -7.0469588972628117E-003
  0.25319999999999998         -7.3504908941686153E-003
  0.25400000000000000         -7.6570715755224228E-003
  0.25480000000000003         -7.9670613631606102E-003
  0.25560000000000005         -8.2807885482907295E-003
  0.25640000000000007         -8.5985399782657623E-003
  0.25719999999999998         -8.9205540716648102E-003
  0.25800000000000001         -9.2470124363899231E-003
  0.25880000000000003         -9.5780324190855026E-003
  0.25960000000000005         -9.9136689677834511E-003
  0.26040000000000008         -1.0253912769258022E-002
  0.26119999999999999         -1.0598690249025822E-002
  0.26200000000000001         -1.0947857983410358E-002
  0.26280000000000003         -1.1301198974251747E-002
  0.26360000000000006         -1.1658420786261559E-002
  0.26440000000000008         -1.2019149027764797E-002
  0.26519999999999999         -1.2382932007312775E-002
  0.26600000000000001         -1.2749236077070236E-002
  0.26680000000000004         -1.3117444701492786E-002
  0.26760000000000006         -1.3486859388649464E-002
  0.26839999999999997         -1.3856696896255016E-002
  0.26919999999999999         -1.4226089231669903E-002
  0.27000000000000002         -1.4594087377190590E-002
  0.27080000000000004         -1.4959662221372128E-002
  0.27160000000000006         -1.5321707352995872E-002
  0.27239999999999998         -1.5679037198424339E-002
  0.27320000000000000         -1.6030393540859222E-002
  0.27400000000000002         -1.6374446451663971E-002
  0.27480000000000004         -1.6709802672266960E-002
  0.27560000000000007         -1.7035007476806641E-002
  0.27639999999999998         -1.7348548397421837E-002
  0.27720000000000000         -1.7648860812187195E-002
  0.27800000000000002         -1.7934327945113182E-002
  0.27880000000000005         -1.8203295767307281E-002
  0.27960000000000007         -1.8454072996973991E-002
  0.28039999999999998         -1.8684947863221169E-002
  0.28120000000000001         -1.8894195556640625E-002
  0.28200000000000003         -1.9080080091953278E-002
  0.28280000000000005         -1.9240863621234894E-002
  0.28360000000000007         -1.9374808296561241E-002
  0.28439999999999999         -1.9480191171169281E-002
  0.28520000000000001         -1.9555322825908661E-002