 -0.14999999999999999          0.0000000000000000     
 -0.14920000000000000          0.0000000000000000     
 -0.14840000000000000          0.0000000000000000     
 -0.14759999999999998          0.0000000000000000     
 -0.14679999999999999          0.0000000000000000     
 -0.14599999999999999          0.0000000000000000     
 -0.14520000000000000          0.0000000000000000     
 -0.14440000000000000          0.0000000000000000     
 -0.14360000000000001          0.0000000000000000     
 -0.14279999999999998          0.0000000000000000     
 -0.14199999999999999          0.0000000000000000     
 -0.14119999999999999          0.0000000000000000     
 -0.14040000000000000          1.3150649334324633E-036
 -0.13960000000000000          5.5853169430502679E-037
 -0.13880000000000001          1.0530297651913129E-034
 -0.13799999999999998          1.2700580959001403E-033
 -0.13719999999999999          4.8957201781397717E-033
 -0.13639999999999999          5.0869040487254470E-033
 -0.13560000000000000         -1.5378235867319646E-033
 -0.13480000000000000          1.1835380235660943E-031
 -0.13400000000000001          7.5614882524836289E-031
 -0.13319999999999999          1.3566249587868209E-030
 -0.13239999999999999         -3.2977277140567305E-030
 -0.13159999999999999         -2.1105948783025448E-029
 -0.13080000000000000         -3.0315774365107821E-029
 -0.13000000000000000          7.7517133499099657E-029
 -0.12919999999999998          4.1543666681043470E-028
 -0.12839999999999999          5.8006506216015840E-028
 -0.12759999999999999         -1.0301753050208659E-027
 -0.12680000000000000         -5.9513037951993534E-027
 -0.12600000000000000         -9.4798092907749413E-027
 -0.12519999999999998          6.7454902819025848E-027
 -0.12440000000000000          6.2798110524830442E-026
 -0.12359999999999999          1.2248523713635703E-025
 -0.12279999999999999          1.8514875135072205E-026
 -0.12200000000000000         -4.7558944861577512E-025
 -0.12119999999999999         -1.2043253477931045E-024
 -0.12039999999999999         -9.6419569381337586E-025
 -0.11960000000000000          2.3127376340705911E-024
 -0.11879999999999999          8.8574959046116170E-024
 -0.11799999999999999          1.2059073688954799E-023
 -0.11720000000000000         -3.0501866991613128E-024
 -0.11639999999999999         -4.6968437508947987E-023
 -0.11559999999999999         -9.4740408735954097E-023
 -0.11479999999999999         -6.1560205932100021E-023
 -0.11399999999999999          1.5533633003017368E-022
 -0.11320000000000000          5.2185327398645789E-022
 -0.11240000000000000          6.7404496463470543E-022
 -0.11159999999999999         -4.1235999880873115E-023
 -0.11080000000000000         -1.9652046325316160E-021
 -0.10999999999999999         -4.0445238388850372E-021
 -0.10919999999999999         -3.2546618754861872E-021
 -0.10840000000000000          3.7812142361128656E-021
 -0.10760000000000000          1.6193606607612652E-020
 -0.10679999999999999          2.3891378468599538E-020
 -0.10599999999999998          8.9968509350657461E-021
 -0.10519999999999999         -3.9620158039571405E-020
 -0.10439999999999999         -1.0179081054098688E-019
 -0.10360000000000000         -1.1240247151253386E-019
 -0.10280000000000000          9.2414023595230738E-021
 -0.10199999999999999          2.7349307822327449E-019
 -0.10119999999999998          5.2233653608398674E-019
 -0.10039999999999999          4.3020575399389579E-019
  -9.9599999999999994E-002    -2.8629152685342464E-019
  -9.8799999999999999E-002    -1.4788170589076284E-018
  -9.7999999999999990E-002    -2.2765708245666587E-018
  -9.7199999999999995E-002    -1.3420574270778581E-018
  -9.6399999999999986E-002     2.0723186314265429E-018
  -9.5599999999999991E-002     6.6905800742830973E-018
  -9.4799999999999995E-002     8.6601922385422998E-018
  -9.4000000000000000E-002     3.3196648089452684E-018
  -9.3199999999999991E-002    -1.0531309525722976E-017
  -9.2399999999999982E-002    -2.6240336243386927E-017
  -9.1599999999999987E-002    -2.9354105458110090E-017
  -9.0799999999999992E-002    -5.8176232866313851E-018
  -8.9999999999999997E-002     4.3433655852216031E-017
  -8.9200000000000002E-002     9.1221458100013191E-017
  -8.8399999999999992E-002     9.0143807197979106E-017
  -8.7599999999999983E-002     3.0925044691259560E-018
  -8.6799999999999988E-002    -1.5336500303972530E-016
  -8.5999999999999993E-002    -2.8533636258175072E-016
  -8.5199999999999998E-002    -2.5422852172846491E-016
  -8.4399999999999989E-002     2.6305802625786824E-017
  -8.3599999999999994E-002     4.7618011184797585E-016
  -8.2799999999999985E-002     8.1126221649615920E-016
  -8.1999999999999990E-002     6.6538487883104351E-016
  -8.1199999999999994E-002    -1.3863601329436927E-016
  -8.0399999999999985E-002    -1.3199141834100759E-015
  -7.9599999999999990E-002    -2.1101577008365933E-015
  -7.8799999999999995E-002    -1.6269043344834520E-015
  -7.7999999999999986E-002     4.4776284468186372E-016
  -7.7199999999999991E-002     3.2958905363359185E-015
  -7.6399999999999996E-002     5.0382531907057753E-015
  -7.5599999999999987E-002     3.7232150583356872E-015
  -7.4799999999999991E-002    -1.1335966870464021E-015
  -7.3999999999999996E-002    -7.4548132017503502E-015
  -7.3199999999999987E-002    -1.1049822623739047E-014
  -7.2399999999999992E-002    -7.9471858306927497E-015
  -7.1599999999999997E-002     2.4197596780028280E-015
  -7.0799999999999988E-002     1.5331774071885088E-014
  -6.9999999999999993E-002     2.2226371540782705E-014
  -6.9199999999999984E-002     1.5675105324527462E-014
  -6.8399999999999989E-002    -4.5830496380383154E-015
  -6.7599999999999993E-002    -2.8795640595298891E-014
  -6.6799999999999984E-002    -4.0877535595817624E-014
  -6.5999999999999989E-002    -2.8127357010903666E-014
  -6.5199999999999994E-002     8.3022078320731281E-015
  -6.4399999999999985E-002     4.9809711476916929E-014
  -6.3599999999999990E-002     6.8526178384053366E-014
  -6.2799999999999995E-002     4.4827565325120805E-014
  -6.1999999999999986E-002    -1.6038868705923505E-014
  -6.1199999999999991E-002    -8.0815162775780408E-014
  -6.0399999999999995E-002    -1.0474975243755444E-013
  -5.9599999999999986E-002    -6.1013301073768733E-014
  -5.8799999999999991E-002     3.5221466314263455E-014
  -5.7999999999999996E-002     1.2722898364188329E-013
  -5.7199999999999987E-002     1.4776462659796957E-013
  -5.6399999999999992E-002     6.5623667524356000E-014
  -5.5599999999999997E-002    -8.2690629246272990E-014
  -5.4799999999999988E-002    -2.0326330950424382E-013
  -5.3999999999999992E-002    -1.9984678517083465E-013
  -5.3199999999999983E-002    -4.4213534200997218E-014
  -5.2399999999999988E-002     1.8616483138042539E-013
  -5.1599999999999993E-002     3.3868405042297711E-013
  -5.0799999999999984E-002     2.7862036137450696E-013
  -4.9999999999999989E-002    -8.0431716042756070E-015
  -4.9199999999999994E-002    -3.7405289369379924E-013
  -4.8399999999999985E-002    -5.7645674258338664E-013
  -4.7599999999999990E-002    -4.2613945683799004E-013
  -4.6799999999999994E-002     6.5594827746567885E-014
  -4.5999999999999985E-002     6.4730561405781928E-013
  -4.5199999999999990E-002     9.4572700365391782E-013
  -4.4399999999999995E-002     6.9373890312918185E-013
  -4.3599999999999986E-002    -6.6230183772171547E-014
  -4.2799999999999991E-002    -9.4727188332949241E-013
  -4.1999999999999996E-002    -1.4077689751770817E-012
  -4.1199999999999987E-002    -1.0795868322574509E-012
  -4.0399999999999991E-002    -3.9088829016046406E-014
  -3.9599999999999982E-002     1.1700603593650660E-012
  -3.8799999999999987E-002     1.8184497961246104E-012
  -3.7999999999999992E-002     1.4376738731794458E-012
  -3.7199999999999983E-002     1.6010988108244861E-013
  -3.6399999999999988E-002    -1.2908063290115179E-012
  -3.5599999999999993E-002    -2.0041789408620225E-012
  -3.4799999999999984E-002    -1.4645624123177381E-012
  -3.3999999999999989E-002     5.3888713830900839E-014
  -3.3199999999999993E-002     1.5773132583038474E-012
  -3.2399999999999984E-002     2.0161047310784941E-012
  -3.1599999999999989E-002     9.1588086940930236E-013
  -3.0799999999999994E-002    -1.1187788976491087E-012
  -2.9999999999999985E-002    -2.6774387828359947E-012
  -2.9199999999999990E-002    -2.4143506204693521E-012
  -2.8399999999999995E-002    -3.9026077427182018E-014
  -2.7599999999999986E-002     3.2430152313578375E-012
  -2.6799999999999990E-002     5.2526472754665932E-012
  -2.5999999999999995E-002     4.1507873527191208E-012
  -2.5199999999999986E-002    -2.0233726532366964E-013
  -2.4399999999999977E-002    -5.7597451114110854E-012
  -2.3599999999999982E-002    -9.1734423876554949E-012
  -2.2799999999999987E-002    -7.7280898694298550E-012
  -2.1999999999999992E-002    -1.2416648655436124E-012
  -2.1199999999999997E-002     7.3187636506766296E-012
  -2.0400000000000001E-002     1.3134654822111180E-011
  -1.9599999999999979E-002     1.2238974590739193E-011
  -1.8799999999999983E-002     4.1282897239591776E-012
  -1.7999999999999988E-002    -7.3875653858190837E-012
  -1.7199999999999993E-002    -1.5899011274189689E-011
  -1.6399999999999998E-002    -1.5967758365542650E-011
  -1.5599999999999975E-002    -6.5836155971332744E-012
  -1.4799999999999980E-002     7.6537031920564935E-012
  -1.3999999999999985E-002     1.8645023025509744E-011
  -1.3199999999999990E-002     1.9295365652483021E-011
  -1.2399999999999994E-002     7.9342860406783622E-012
  -1.1599999999999999E-002    -1.0043232738510266E-011
  -1.0799999999999976E-002    -2.4598732772940224E-011
  -9.9999999999999811E-003    -2.6488365320598284E-011
  -9.1999999999999860E-003    -1.2768532758888895E-011
  -8.3999999999999908E-003     1.0861270216544483E-011
  -7.5999999999999956E-003     3.2482880968354166E-011
  -6.8000000000000005E-003     4.0077424018347685E-011
  -5.9999999999999776E-003     2.8074516669751581E-011
  -5.1999999999999824E-003     6.9149389990072474E-013
  -4.3999999999999873E-003    -2.9865002831863663E-011
  -3.5999999999999921E-003    -4.9417959308017956E-011
  -2.7999999999999969E-003    -4.8817821313162924E-011
  -1.9999999999999740E-003    -2.8220203951434542E-011
  -1.1999999999999789E-003     3.4241912690718967E-012
  -3.9999999999998370E-004     3.3044164626794270E-011
   4.0000000000001146E-004     4.9535188451077516E-011
   1.2000000000000066E-003     4.8130627955389471E-011
   2.0000000000000018E-003     3.1331843369786228E-011
   2.8000000000000247E-003     6.7693147094705086E-012
   3.6000000000000199E-003    -1.6249251943989407E-011
   4.4000000000000150E-003    -2.9817232016782214E-011
   5.2000000000000102E-003    -2.9550046437565314E-011
   6.0000000000000053E-003    -1.6105021830026267E-011
   6.8000000000000005E-003     3.7351775318550384E-012
   7.6000000000000234E-003     1.7421385514748700E-011
   8.4000000000000186E-003     1.0282799785266139E-011
   9.2000000000000137E-003    -2.6688118728857013E-011
   1.0000000000000009E-002    -8.7158204264969896E-011
   1.0800000000000004E-002    -1.4366707823398883E-010
   1.1600000000000027E-002    -1.5252746288219043E-010
   1.2400000000000022E-002    -7.2429624797809566E-011
   1.3200000000000017E-002     1.0827557600512350E-010
   1.4000000000000012E-002     3.4896688316798929E-010
   1.4800000000000008E-002     5.5503396323430820E-010
   1.5600000000000003E-002     6.0665111822899576E-010
   1.6400000000000026E-002     4.1257774974212680E-010
   1.7200000000000021E-002    -3.3107606933757694E-011
   1.8000000000000016E-002    -6.2174132509085211E-010
   1.8800000000000011E-002    -1.1513735520551904E-009
   1.9600000000000006E-002    -1.3993044500892893E-009
   2.0400000000000001E-002    -1.2187506559513395E-009
   2.1200000000000024E-002    -6.1440230680886998E-010
   2.2000000000000020E-002     2.4460486414135119E-010
   2.2800000000000015E-002     1.0884744217065645E-009
   2.3600000000000010E-002     1.6623440401986045E-009
   2.4400000000000005E-002     1.8381585142890344E-009
   2.5200000000000000E-002     1.6636200195208062E-009
   2.6000000000000023E-002     1.3177132718311668E-009
   2.6800000000000018E-002     9.9105901263385476E-010
   2.7600000000000013E-002     7.5298539625734406E-010
   2.8400000000000009E-002     4.8071163716301157E-010
   2.9200000000000004E-002    -1.0114411391759504E-010
   3.0000000000000027E-002    -1.2788484715642312E-009
   3.0800000000000022E-002    -3.1701214986412651E-009
   3.1600000000000017E-002    -5.5962146028321058E-009
   3.2400000000000012E-002    -8.0715150119203827E-009
   3.3200000000000007E-002    -9.9153032451226863E-009
   3.4000000000000002E-002    -1.0423219620747659E-008
   3.4800000000000025E-002    -9.0016074594245765E-009
   3.5600000000000021E-002    -5.1887791840954378E-009
   3.6400000000000016E-002     1.4444101470445503E-009
   3.7200000000000011E-002     1.1442941705297471E-008
   3.8000000000000006E-002     2.5549525162205100E-008
   3.8800000000000001E-002     4.4627508799521820E-008
   3.9600000000000024E-002     6.9417353643075330E-008
   4.0400000000000019E-002     1.0022530716469191E-007
   4.1200000000000014E-002     1.3671156295913534E-007
   4.2000000000000010E-002     1.7793156814605027E-007
   4.2800000000000005E-002     2.2268297072969290E-007
   4.3600000000000028E-002     2.7006481673197413E-007
   4.4400000000000023E-002     3.2003509886635584E-007
   4.5200000000000018E-002     3.7372333849816641E-007
   4.6000000000000013E-002     4.3334142674211762E-007
   4.6800000000000008E-002     5.0170501708635129E-007
   4.7600000000000003E-002     5.8155501392320730E-007
   4.8400000000000026E-002     6.7496682731871260E-007
   4.9200000000000021E-002     7.8310438311746111E-007
   5.0000000000000017E-002     9.0642595296230866E-007
   5.0800000000000012E-002     1.0452454262122046E-006
   5.1600000000000007E-002     1.2003932852167054E-006
   5.2400000000000002E-002     1.3736823802901199E-006
   5.3200000000000025E-002     1.5679826219638926E-006
   5.4000000000000020E-002     1.7869064095066278E-006
   5.4800000000000015E-002     2.0342961306596408E-006
   5.5600000000000011E-002     2.3138065898820059E-006
   5.6400000000000006E-002     2.6288269054930424E-006
   5.7200000000000029E-002     2.9828124752384610E-006
   5.8000000000000024E-002     3.3798839922383195E-006
   5.8800000000000019E-002     3.8253911043284461E-006
   5.9600000000000014E-002     4.3261297832941636E-006
   6.0400000000000009E-002     4.8900546971708536E-006
   6.1200000000000004E-002     5.5255750339711085E-006
   6.2000000000000027E-002     6.2407452787738293E-006
   6.2800000000000022E-002     7.0427618084067944E-006
   6.3600000000000018E-002     7.9380906754522584E-006
   6.4400000000000013E-002     8.9332834249944426E-006
   6.5200000000000008E-002     1.0036241292254999E-005
   6.6000000000000003E-002     1.1257460755587090E-005
   6.6800000000000026E-002     1.2610759767994750E-005
   6.7600000000000021E-002     1.4113184988673311E-005
   6.8400000000000016E-002     1.5784142306074500E-005
   6.9200000000000012E-002     1.7644126273808070E-005
   7.0000000000000007E-002     1.9713601432158612E-005
   7.0800000000000030E-002     2.2012512999936007E-005
   7.1600000000000025E-002     2.4560644305893220E-005
   7.2400000000000020E-002     2.7378631784813479E-005
   7.3200000000000015E-002     3.0489187338389456E-005
   7.4000000000000010E-002     3.3918007829925045E-005
   7.4800000000000005E-002     3.7694080674555153E-005
   7.5600000000000028E-002     4.1849369154078886E-005
   7.6400000000000023E-002     4.6418310375884175E-005
   7.7200000000000019E-002     5.1437498768791556E-005
   7.8000000000000014E-002     5.6945929827634245E-005
   7.8800000000000009E-002     6.2985753174871206E-005
   7.9600000000000004E-002     6.9603120209649205E-005
   8.0400000000000027E-002     7.6848707976751029E-005
   8.1200000000000022E-002     8.4777442680206150E-005
   8.2000000000000017E-002     9.3447481049224734E-005
   8.2800000000000012E-002     1.0291894432157278E-004
   8.3600000000000008E-002     1.1325305240461603E-004
   8.4400000000000031E-002     1.2451228394638747E-004
   8.5200000000000026E-002     1.3676166418008506E-004
   8.6000000000000021E-002     1.5007090405561030E-004
   8.6800000000000016E-002     1.6451632836833596E-004
   8.7600000000000011E-002     1.8018182890955359E-004
   8.8400000000000006E-002     1.9715850066859275E-004
   8.9200000000000029E-002     2.1554296836256981E-004
   9.0000000000000024E-002     2.3543517454527318E-004
   9.0800000000000020E-002     2.5693676434457302E-004
   9.1600000000000015E-002     2.8015059069730341E-004
   9.2400000000000010E-002     3.0518189305439591E-004
   9.3200000000000005E-002     3.3214030554518104E-004
   9.4000000000000028E-002     3.6114171962253749E-004
   9.4800000000000023E-002     3.9230924448929727E-004
   9.5600000000000018E-002     4.2577265412546694E-004
   9.6400000000000013E-002     4.6166658285073936E-004
   9.7200000000000009E-002     5.0012837164103985E-004
   9.8000000000000004E-002     5.4129649652168155E-004
   9.8800000000000027E-002     5.8531033573672175E-004
   9.9600000000000022E-002     6.3231081003323197E-004
  0.10040000000000002          6.8244198337197304E-004
  0.10120000000000004          7.3585199424996972E-004
  0.10200000000000001          7.9269293928518891E-004
  0.10280000000000003          8.5311947623267770E-004
  0.10360000000000000          9.1728725237771869E-004
  0.10440000000000002          9.8535092547535896E-004
  0.10520000000000004          1.0574628831818700E-003
  0.10600000000000001          1.1337727773934603E-003
  0.10680000000000003          1.2144274078309536E-003
  0.10760000000000000          1.2995711294934154E-003
  0.10840000000000002          1.3893457362428308E-003
  0.10919999999999999          1.4838892966508865E-003
  0.11000000000000001          1.5833346405997872E-003
  0.11080000000000004          1.6878070309758186E-003
  0.11160000000000000          1.7974224174395204E-003
  0.11240000000000003          1.9122859230265021E-003
  0.11320000000000000          2.0324909128248692E-003
  0.11400000000000002          2.1581193432211876E-003
  0.11480000000000004          2.2892407141625881E-003
  0.11560000000000001          2.4259113706648350E-003
  0.11640000000000003          2.5681732222437859E-003
  0.11720000000000000          2.7160504832863808E-003
  0.11800000000000002          2.8695478104054928E-003
  0.11880000000000004          3.0286489054560661E-003
  0.11960000000000001          3.1933153513818979E-003
  0.12040000000000003          3.3634868450462818E-003
  0.12120000000000000          3.5390809644013643E-003
  0.12200000000000003          3.7199903745204210E-003
  0.12279999999999999          3.9060823619365692E-003
  0.12360000000000002          4.0971958078444004E-003
  0.12440000000000004          4.2931400239467621E-003
  0.12520000000000001          4.4936933554708958E-003
  0.12600000000000003          4.6986010856926441E-003
  0.12680000000000000          4.9075763672590256E-003
  0.12760000000000002          5.1202983595430851E-003
  0.12840000000000004          5.3364136256277561E-003
  0.12920000000000001          5.5555356666445732E-003
  0.13000000000000003          5.7772449217736721E-003
  0.13080000000000000          6.0010887682437897E-003
  0.13160000000000002          6.2265824526548386E-003
  0.13240000000000005          6.4532067626714706E-003
  0.13320000000000001          6.6804084926843643E-003
  0.13400000000000004          6.9076009094715118E-003
  0.13480000000000000          7.1341609582304955E-003
  0.13560000000000003          7.3594343848526478E-003
  0.13639999999999999          7.5827371329069138E-003
  0.13720000000000002          7.8033576719462872E-003
  0.13800000000000004          8.0205583944916725E-003
  0.13880000000000001          8.2335742190480232E-003
  0.13960000000000003          8.4416167810559273E-003
  0.14040000000000000          8.6438776925206184E-003
  0.14120000000000002          8.8395299389958382E-003
  0.14200000000000004          9.0277343988418579E-003
  0.14280000000000001          9.2076379805803299E-003
  0.14360000000000003          9.3783801421523094E-003
  0.14440000000000000          9.5390900969505310E-003
  0.14520000000000002          9.6888933330774307E-003
  0.14600000000000005          9.8269172012805939E-003
  0.14680000000000001          9.9522955715656281E-003
  0.14760000000000004          1.0064176283776760E-002
  0.14840000000000000          1.0161719284951687E-002
  0.14920000000000003          1.0244103148579597E-002
  0.14999999999999999          1.0310526937246323E-002
  0.15080000000000002          1.0360213927924633E-002
  0.15160000000000004          1.0392421856522560E-002
  0.15240000000000001          1.0406450368463993E-002
  0.15320000000000003          1.0401638224720955E-002
  0.15400000000000000          1.0377370752394199E-002
  0.15480000000000002          1.0333077050745487E-002
  0.15560000000000004          1.0268237441778183E-002
  0.15640000000000001          1.0182389989495277E-002
  0.15720000000000003          1.0075137019157410E-002
  0.15800000000000000          9.9461469799280167E-003
  0.15880000000000002          9.7951563075184822E-003
  0.15960000000000005          9.6219712868332863E-003
  0.16040000000000001          9.4264755025506020E-003
  0.16120000000000004          9.2086261138319969E-003
  0.16200000000000001          8.9684640988707542E-003
  0.16280000000000003          8.7061133235692978E-003
  0.16360000000000000          8.4217796102166176E-003
  0.16440000000000002          8.1157553941011429E-003
  0.16520000000000004          7.7884136699140072E-003
  0.16600000000000001          7.4402140453457832E-003
  0.16680000000000003          7.0717013441026211E-003
  0.16760000000000000          6.6835056059062481E-003
  0.16840000000000002          6.2763397581875324E-003
  0.16920000000000004          5.8509982191026211E-003
  0.17000000000000001          5.4083545692265034E-003
  0.17080000000000004          4.9493620172142982E-003
  0.17160000000000000          4.4750487431883812E-003
  0.17240000000000003          3.9865178987383842E-003
  0.17320000000000005          3.4849410876631737E-003
  0.17400000000000002          2.9715525452047586E-003
  0.17480000000000004          2.4476433172821999E-003
  0.17560000000000001          1.9145557889714837E-003
  0.17640000000000003          1.3736812397837639E-003
  0.17720000000000000          8.2645582733675838E-004
  0.17800000000000002          2.7435473748482764E-004
  0.17880000000000004         -2.8111526626162231E-004
  0.17960000000000001         -8.3842361345887184E-004
  0.18040000000000003         -1.3960229698568583E-003
  0.18120000000000000         -1.9523545634001493E-003
  0.18200000000000002         -2.5058544706553221E-003
  0.18280000000000005         -3.0549594666808844E-003
  0.18360000000000001         -3.5981151740998030E-003
  0.18440000000000004         -4.1337846778333187E-003
  0.18520000000000000         -4.6604578383266926E-003
  0.18600000000000003         -5.1766550168395042E-003
  0.18680000000000005         -5.6809326633810997E-003
  0.18760000000000002         -6.1718886718153954E-003
  0.18840000000000004         -6.6481688991189003E-003
  0.18920000000000001         -7.1084750816226006E-003
  0.19000000000000003         -7.5515722855925560E-003
  0.19080000000000000         -7.9762963578104973E-003
  0.19160000000000002         -8.3815557882189751E-003
  0.19240000000000004         -8.7663345038890839E-003
  0.19320000000000001         -9.1296909376978874E-003
  0.19400000000000003         -9.4707664102315903E-003
  0.19480000000000000         -9.7887897863984108E-003
  0.19560000000000002         -1.0083085857331753E-002
  0.19640000000000005         -1.0353074409067631E-002
  0.19720000000000001         -1.0598272085189819E-002
  0.19800000000000004         -1.0818291455507278E-002
  0.19880000000000000         -1.1012838222086430E-002
  0.19960000000000003         -1.1181716807186604E-002
  0.20039999999999999         -1.1324832215905190E-002
  0.20120000000000002         -1.1442186310887337E-002
  0.20200000000000004         -1.1533876881003380E-002
  0.20280000000000001         -1.1600094847381115E-002
  0.20360000000000003         -1.1641123332083225E-002
  0.20440000000000000         -1.1657337658107281E-002
  0.20520000000000002         -1.1649200692772865E-002
  0.20600000000000004         -1.1617261916399002E-002
  0.20680000000000001         -1.1562149971723557E-002
  0.20760000000000003         -1.1484569869935513E-002
  0.20840000000000000         -1.1385298334062099E-002
  0.20920000000000002         -1.1265182867646217E-002
  0.21000000000000005         -1.1125133372843266E-002
  0.21080000000000002         -1.0966119356453419E-002
  0.21160000000000004         -1.0789164341986179E-002
  0.21240000000000001         -1.0595338419079781E-002
  0.21320000000000003         -1.0385755449533463E-002
  0.21400000000000000         -1.0161563754081726E-002
  0.21480000000000002         -9.9239461123943329E-003
  0.21560000000000004         -9.6741160377860069E-003
  0.21640000000000001         -9.4133103266358376E-003
  0.21720000000000003         -9.1427844017744064E-003
  0.21800000000000000         -8.8638002052903175E-003
  0.21880000000000002         -8.5776243358850479E-003
  0.21960000000000005         -8.2855224609375000E-003
  0.22040000000000001         -7.9887611791491508E-003
  0.22120000000000004         -7.6886028982698917E-003
  0.22200000000000000         -7.3863021098077297E-003
  0.22280000000000003         -7.0830974727869034E-003
  0.22360000000000005         -6.7802038975059986E-003
  0.22440000000000002         -6.4788106828927994E-003
  0.22520000000000004         -6.1800819821655750E-003
  0.22600000000000001         -5.8851549401879311E-003
  0.22680000000000003         -5.5951392278075218E-003
  0.22760000000000000         -5.3111114539206028E-003
  0.22840000000000002         -5.0341095775365829E-003
  0.22920000000000004         -4.7651315107941628E-003
  0.23000000000000001         -4.5051351189613342E-003
  0.23080000000000003         -4.2550396174192429E-003
  0.23160000000000000         -4.0157260373234749E-003
  0.23240000000000002         -3.7880365271121264E-003
  0.23320000000000005         -3.5727687645703554E-003
  0.23400000000000001         -3.3706745598465204E-003
  0.23480000000000004         -3.1824582256376743E-003
  0.23560000000000000         -3.0087807681411505E-003
  0.23640000000000003         -2.8502617496997118E-003
  0.23720000000000005         -2.7074823155999184E-003
  0.23800000000000002         -2.5809844955801964E-003
  0.23880000000000004         -2.4712674785405397E-003
  0.23960000000000001         -2.3787862155586481E-003
  0.24040000000000003         -2.3039518855512142E-003
  0.24120000000000000         -2.2471342235803604E-003
  0.24200000000000002         -2.2086645476520061E-003
  0.24280000000000004         -2.1888355258852243E-003
  0.24360000000000001         -2.1879025734961033E-003
  0.24440000000000003         -2.2060826886445284E-003
  0.24520000000000000         -2.2435546852648258E-003
  0.24600000000000002         -2.3004615213721991E-003
  0.24680000000000005         -2.3769098334014416E-003
  0.24760000000000001         -2.4729701690375805E-003
  0.24840000000000004         -2.5886744260787964E-003
  0.24920000000000000         -2.7240144554525614E-003
  0.25000000000000000         -2.8789422940462828E-003
  0.25080000000000002         -3.0533717945218086E-003
  0.25160000000000005         -3.2471811864525080E-003
  0.25240000000000007         -3.4602123778313398E-003
  0.25319999999999998         -3.6922674626111984E-003
  0.25400000000000000         -3.9431061595678329E-003
  0.25480000000000003         -4.2124409228563309E-003
  0.25560000000000005         -4.4999388046562672E-003
  0.25640000000000007         -4.8052235506474972E-003
  0.25719999999999998         -5.1278751343488693E-003
  0.25800000000000001         -5.4674274288117886E-003
  0.25880000000000003         -5.8233644813299179E-003
  0.25960000000000005         -6.1951153911650181E-003
  0.26040000000000008         -6.5820533782243729E-003
  0.26119999999999999         -6.9834967143833637E-003
  0.26200000000000001         -7.3987087234854698E-003
  0.26280000000000003         -7.8268991783261299E-003
  0.26360000000000006         -8.2672210410237312E-003
  0.26440000000000008         -8.7187653407454491E-003
  0.26519999999999999         -9.1805560514330864E-003
  0.26600000000000001         -9.6515528857707977E-003
  0.26680000000000004         -1.0130650363862514E-002
  0.26760000000000006         -1.0616684332489967E-002
  0.26839999999999997         -1.1108429171144962E-002
  0.26919999999999999         -1.1604599654674530E-002
  0.27000000000000002         -1.2103842571377754E-002
  0.27080000000000004         -1.2604739516973495E-002
  0.27160000000000006         -1.3105808757245541E-002
  0.27239999999999998         -1.3605509884655476E-002
  0.27320000000000000         -1.4102247543632984E-002
  0.27400000000000002         -1.4594373293220997E-002
  0.27480000000000004         -1.5080187469720840E-002
  0.27560000000000007         -1.5557938255369663E-002
  0.27639999999999998         -1.6025826334953308E-002
  0.27720000000000000         -1.6482010483741760E-002
  0.27800000000000002         -1.6924615949392319E-002
  0.27880000000000005         -1.7351737245917320E-002
  0.27960000000000007         -1.7761450260877609E-002
  0.28039999999999998         -1.8151814118027687E-002
  0.28120000000000001         -1.8520876765251160E-002
  0.28200000000000003         -1.8866678699851036E-002
  0.28280000000000005         -1.9187260419130325E-002
  0.28360000000000007         -1.9480673596262932E-002
  0.28439999999999999         -1.9744994118809700E-002
  0.28520000000000001         -1.9978329539299011E-002