 -0.12000000000000000          0.0000000000000000     
 -0.11939999999999999         -2.4438165269202727E-007
 -0.11879999999999999         -7.5770316243506386E-007
 -0.11820000000000000         -1.5584131460855133E-006
 -0.11760000000000000         -2.6587883894535480E-006
 -0.11699999999999999         -4.0652339521329850E-006
 -0.11639999999999999         -5.7789370657701511E-006
 -0.11580000000000000         -7.7968434197828174E-006
 -0.11520000000000000         -1.0112918971572071E-005
 -0.11459999999999999         -1.2719639016722795E-005
 -0.11399999999999999         -1.5609643014613539E-005
 -0.11340000000000000         -1.8777471268549562E-005
 -0.11280000000000000         -2.2221351173357107E-005
 -0.11219999999999999         -2.5944915250875056E-005
 -0.11159999999999999         -2.9958824597997591E-005
 -0.11100000000000000         -3.4282242268091068E-005
 -0.11040000000000000         -3.8944086554693058E-005
 -0.10979999999999999         -4.3984098738292232E-005
 -0.10919999999999999         -4.9453650717623532E-005
 -0.10860000000000000         -5.5416338000213727E-005
 -0.10800000000000000         -6.1948361690156162E-005
 -0.10740000000000000         -6.9138703111093491E-005
 -0.10679999999999999         -7.7089222031645477E-005
 -0.10620000000000000         -8.5914558439981192E-005
 -0.10560000000000000         -9.5742092526052147E-005
 -0.10500000000000000         -1.0671179188648239E-004
 -0.10439999999999999         -1.1897618969669566E-004
 -0.10380000000000000         -1.3270042836666107E-004
 -0.10320000000000000         -1.4806237595621496E-004
 -0.10260000000000000         -1.6525307728443295E-004
 -0.10199999999999999         -1.8447717593517154E-004
 -0.10139999999999999         -2.0595366368070245E-004
 -0.10080000000000000         -2.2991698642726988E-004
 -0.10020000000000000         -2.5661807740107179E-004
  -9.9599999999999994E-002    -2.8632595785893500E-004
  -9.9000000000000005E-002    -3.1932941055856645E-004
  -9.8400000000000001E-002    -3.5593882785178721E-004
  -9.7799999999999998E-002    -3.9648840902373195E-004
  -9.7199999999999995E-002    -4.4133843039162457E-004
  -9.6599999999999991E-002    -4.9087771913036704E-004
  -9.6000000000000002E-002    -5.4552633082494140E-004
  -9.5399999999999999E-002    -6.0573808150365949E-004
  -9.4799999999999995E-002    -6.7200354533270001E-004
  -9.4200000000000006E-002    -7.4485258664935827E-004
  -9.3600000000000003E-002    -8.2485738676041365E-004
  -9.2999999999999999E-002    -9.1263512149453163E-004
  -9.2399999999999996E-002    -1.0088505223393440E-003
  -9.1799999999999993E-002    -1.1142184957861900E-003
  -9.1200000000000003E-002    -1.2295071501284838E-003
  -9.0600000000000000E-002    -1.3555393088608980E-003
  -8.9999999999999997E-002    -1.4931961195543408E-003
  -8.9399999999999993E-002    -1.6434179851785302E-003
  -8.8799999999999990E-002    -1.8072079401463270E-003
  -8.8200000000000001E-002    -1.9856332801282406E-003
  -8.7599999999999997E-002    -2.1798270754516125E-003
  -8.6999999999999994E-002    -2.3909923620522022E-003
  -8.6400000000000005E-002    -2.6204015593975782E-003
  -8.5800000000000001E-002    -2.8693999629467726E-003
  -8.5199999999999998E-002    -3.1394076067954302E-003
  -8.4600000000000009E-002    -3.4319218248128891E-003
  -8.3999999999999991E-002    -3.7485167849808931E-003
  -8.3400000000000002E-002    -4.0908479131758213E-003
  -8.2799999999999999E-002    -4.4606504961848259E-003
  -8.2199999999999995E-002    -4.8597427085042000E-003
  -8.1600000000000006E-002    -5.2900258451700211E-003
  -8.0999999999999989E-002    -5.7534840889275074E-003
  -8.0399999999999999E-002    -6.2521835789084435E-003
  -7.9799999999999996E-002    -6.7882733419537544E-003
  -7.9199999999999993E-002    -7.3639834299683571E-003
  -7.8600000000000003E-002    -7.9816197976469994E-003
  -7.8000000000000000E-002    -8.6435675621032715E-003
  -7.7399999999999997E-002    -9.3522798269987106E-003
  -7.6800000000000007E-002    -1.0110282339155674E-002
  -7.6199999999999990E-002    -1.0920159518718719E-002
  -7.5600000000000001E-002    -1.1784553527832031E-002
  -7.4999999999999997E-002    -1.2706155888736248E-002
  -7.4399999999999994E-002    -1.3687700033187866E-002
  -7.3800000000000004E-002    -1.4731955714523792E-002
  -7.3200000000000001E-002    -1.5841709449887276E-002
  -7.2599999999999998E-002    -1.7019771039485931E-002
  -7.2000000000000008E-002    -1.8268939107656479E-002
  -7.1399999999999991E-002    -1.9592013210058212E-002
  -7.0800000000000002E-002    -2.0991759374737740E-002
  -7.0199999999999999E-002    -2.2470906376838684E-002
  -6.9599999999999995E-002    -2.4032127112150192E-002
  -6.9000000000000006E-002    -2.5678019970655441E-002
  -6.8400000000000002E-002    -2.7411093935370445E-002
  -6.7799999999999999E-002    -2.9233742505311966E-002
  -6.7200000000000010E-002    -3.1148230656981468E-002
  -6.6599999999999993E-002    -3.3156663179397583E-002
  -6.6000000000000003E-002    -3.5260967910289764E-002
  -6.5400000000000000E-002    -3.7462878972291946E-002
  -6.4799999999999996E-002    -3.9763897657394409E-002
  -6.4200000000000007E-002    -4.2165264487266541E-002
  -6.3600000000000004E-002    -4.4667955487966537E-002
  -6.3000000000000000E-002    -4.7272626310586929E-002
  -6.2399999999999997E-002    -4.9979593604803085E-002
  -6.1800000000000001E-002    -5.2788820117712021E-002
  -6.1199999999999997E-002    -5.5699862539768219E-002
  -6.0600000000000001E-002    -5.8711856603622437E-002
  -5.9999999999999998E-002    -6.1823476105928421E-002
  -5.9400000000000001E-002    -6.5032929182052612E-002
  -5.8799999999999998E-002    -6.8337880074977875E-002
  -5.8200000000000002E-002    -7.1735456585884094E-002
  -5.7599999999999998E-002    -7.5222216546535492E-002
  -5.6999999999999995E-002    -7.8794129192829132E-002
  -5.6400000000000006E-002    -8.2446508109569550E-002
  -5.5800000000000002E-002    -8.6174026131629944E-002
  -5.5199999999999999E-002    -8.9970692992210388E-002
  -5.4599999999999996E-002    -9.3829788267612457E-002
  -5.4000000000000006E-002    -9.7743891179561615E-002
  -5.3400000000000003E-002   -0.10170485079288483     
  -5.2800000000000000E-002   -0.10570375621318817     
  -5.2199999999999996E-002   -0.10973092913627625     
  -5.1600000000000007E-002   -0.11377594619989395     
  -5.1000000000000004E-002   -0.11782759428024292     
  -5.0400000000000000E-002   -0.12187389284372330     
  -4.9799999999999997E-002   -0.12590207159519196     
  -4.9200000000000008E-002   -0.12989866733551025     
  -4.8600000000000004E-002   -0.13384939730167389     
  -4.8000000000000001E-002   -0.13773927092552185     
  -4.7399999999999998E-002   -0.14155261218547821     
  -4.6800000000000008E-002   -0.14527302980422974     
  -4.6200000000000005E-002   -0.14888355135917664     
  -4.5600000000000002E-002   -0.15236653387546539     
  -4.4999999999999998E-002   -0.15570379793643951     
  -4.4400000000000009E-002   -0.15887665748596191     
  -4.3800000000000006E-002   -0.16186594963073730     
  -4.3200000000000002E-002   -0.16465215384960175     
  -4.2599999999999999E-002   -0.16721539199352264     
  -4.1999999999999996E-002   -0.16953554749488831     
  -4.1400000000000006E-002   -0.17159232497215271     
  -4.0800000000000003E-002   -0.17336530983448029     
  -4.0200000000000000E-002   -0.17483414709568024     
  -3.9599999999999996E-002   -0.17597846686840057     
  -3.9000000000000007E-002   -0.17677821218967438     
  -3.8400000000000004E-002   -0.17721350491046906     
  -3.7800000000000000E-002   -0.17726495862007141     
  -3.7199999999999997E-002   -0.17691361904144287     
  -3.6600000000000008E-002   -0.17614117264747620     
  -3.6000000000000004E-002   -0.17493006587028503     
  -3.5400000000000001E-002   -0.17326354980468750     
  -3.4799999999999998E-002   -0.17112582921981812     
  -3.4200000000000008E-002   -0.16850224137306213     
  -3.3600000000000005E-002   -0.16537930071353912     
  -3.3000000000000002E-002   -0.16174478828907013     
  -3.2399999999999998E-002   -0.15758799016475677     
  -3.1800000000000009E-002   -0.15289966762065887     
  -3.1200000000000006E-002   -0.14767222106456757     
  -3.0600000000000002E-002   -0.14189983904361725     
  -2.9999999999999999E-002   -0.13557849824428558     
  -2.9400000000000009E-002   -0.12870618700981140     
  -2.8800000000000006E-002   -0.12128285318613052     
  -2.8200000000000003E-002   -0.11331054568290710     
  -2.7600000000000000E-002   -0.10479351878166199     
  -2.7000000000000010E-002    -9.5738209784030914E-002
  -2.6400000000000007E-002    -8.6153365671634674E-002
  -2.5800000000000003E-002    -7.6050035655498505E-002
  -2.5200000000000000E-002    -6.5441638231277466E-002
  -2.4600000000000011E-002    -5.4343927651643753E-002
  -2.4000000000000007E-002    -4.2775064706802368E-002
  -2.3400000000000004E-002    -3.0755549669265747E-002
  -2.2800000000000001E-002    -1.8308235332369804E-002
  -2.2199999999999998E-002    -5.4582902230322361E-003
  -2.1600000000000008E-002     7.7668484300374985E-003
  -2.1000000000000005E-002     2.1337538957595825E-002
  -2.0400000000000001E-002     3.5222001373767853E-002
  -1.9799999999999998E-002     4.9386411905288696E-002
  -1.9200000000000009E-002     6.3794992864131927E-002
  -1.8600000000000005E-002     7.8410118818283081E-002
  -1.8000000000000002E-002     9.3192480504512787E-002
  -1.7399999999999999E-002    0.10810117423534393     
  -1.6800000000000009E-002    0.12309388071298599     
  -1.6200000000000006E-002    0.13812699913978577     
  -1.5600000000000003E-002    0.15315586328506470     
  -1.4999999999999999E-002    0.16813489794731140     
  -1.4400000000000010E-002    0.18301776051521301     
  -1.3800000000000007E-002    0.19775761663913727     
  -1.3200000000000003E-002    0.21230731904506683     
  -1.2600000000000000E-002    0.22661960124969482     
  -1.2000000000000011E-002    0.24064728617668152     
  -1.1400000000000007E-002    0.25434350967407227     
  -1.0800000000000004E-002    0.26766192913055420     
  -1.0200000000000001E-002    0.28055700659751892     
  -9.6000000000000113E-003    0.29298415780067444     
  -9.0000000000000080E-003    0.30489999055862427     
  -8.4000000000000047E-003    0.31626251339912415     
  -7.8000000000000014E-003    0.32703131437301636     
  -7.2000000000000119E-003    0.33716785907745361     
  -6.6000000000000086E-003    0.34663555026054382     
  -6.0000000000000053E-003    0.35540002584457397     
  -5.4000000000000020E-003    0.36342924833297729     
  -4.7999999999999987E-003    0.37069377303123474     
  -4.2000000000000093E-003    0.37716680765151978     
  -3.6000000000000060E-003    0.38282439112663269     
  -3.0000000000000027E-003    0.38764545321464539     
  -2.3999999999999994E-003    0.39161214232444763     
  -1.8000000000000099E-003    0.39470955729484558     
  -1.2000000000000066E-003    0.39692619442939758     
  -6.0000000000000331E-004    0.39825367927551270     
   0.0000000000000000         0.39868712425231934     
   5.9999999999998943E-004    0.39822494983673096     
   1.1999999999999927E-003    0.39686894416809082     
   1.7999999999999960E-003    0.39462420344352722     
   2.3999999999999994E-003    0.39149922132492065     
   2.9999999999999888E-003    0.38750579953193665     
   3.5999999999999921E-003    0.38265883922576904     
   4.1999999999999954E-003    0.37697654962539673     
   4.7999999999999987E-003    0.37048009037971497     
   5.3999999999999881E-003    0.36319360136985779     
   6.0000000000000053E-003    0.35514399409294128     
   6.5999999999999948E-003    0.34636089205741882     
   7.1999999999999842E-003    0.33687645196914673     
   7.8000000000000014E-003    0.32672512531280518     
   8.3999999999999908E-003    0.31594356894493103     
   8.9999999999999802E-003    0.30457043647766113     
   9.5999999999999974E-003    0.29264622926712036     
   1.0199999999999987E-002    0.28021296858787537     
   1.0800000000000004E-002    0.26731407642364502     
   1.1399999999999993E-002    0.25399413704872131     
   1.1999999999999983E-002    0.24029877781867981     
   1.2600000000000000E-002    0.22627423703670502     
   1.3199999999999990E-002    0.21196731925010681     
   1.3799999999999979E-002    0.19742518663406372     
   1.4399999999999996E-002    0.18269501626491547     
   1.4999999999999986E-002    0.16782386600971222     
   1.5600000000000003E-002    0.15285849571228027     
   1.6199999999999992E-002    0.13784511387348175     
   1.6799999999999982E-002    0.12282913923263550     
   1.7399999999999999E-002    0.10785515606403351     
   1.7999999999999988E-002     9.2966556549072266E-002
   1.8600000000000005E-002     7.8205533325672150E-002
   1.9199999999999995E-002     6.3612796366214752E-002
   1.9799999999999984E-002     4.9227494746446609E-002
   2.0400000000000001E-002     3.5087063908576965E-002
   2.0999999999999991E-002     2.1227095276117325E-002
   2.1599999999999980E-002     7.6812258921563625E-003
   2.2199999999999998E-002    -5.5189561098814011E-003
   2.2799999999999987E-002    -1.8343994393944740E-002
   2.3400000000000004E-002    -3.0766639858484268E-002
   2.3999999999999994E-002    -4.2761910706758499E-002
   2.4599999999999983E-002    -5.4307129234075546E-002
   2.5200000000000000E-002    -6.5381951630115509E-002
   2.5799999999999990E-002    -7.5968407094478607E-002
   2.6399999999999979E-002    -8.6050860583782196E-002
   2.6999999999999996E-002    -9.5616072416305542E-002
   2.7599999999999986E-002   -0.10465308278799057     
   2.8200000000000003E-002   -0.11315329372882843     
   2.8799999999999992E-002   -0.12111034989356995     
   2.9399999999999982E-002   -0.12852010130882263     
   2.9999999999999999E-002   -0.13538052141666412     
   3.0599999999999988E-002   -0.14169174432754517     
   3.1199999999999978E-002   -0.14745585620403290     
   3.1799999999999995E-002   -0.15267682075500488     
   3.2399999999999984E-002   -0.15736052393913269     
   3.3000000000000002E-002   -0.16151449084281921     
   3.3599999999999991E-002   -0.16514793038368225     
   3.4199999999999980E-002   -0.16827154159545898     
   3.4799999999999998E-002   -0.17089746892452240     
   3.5399999999999987E-002   -0.17303910851478577     
   3.6000000000000004E-002   -0.17471107840538025     
   3.6599999999999994E-002   -0.17592902481555939     
   3.7199999999999983E-002   -0.17670959234237671     
   3.7800000000000000E-002   -0.17707024514675140     
   3.8399999999999990E-002   -0.17702914774417877     
   3.8999999999999979E-002   -0.17660513520240784     
   3.9599999999999996E-002   -0.17581745982170105     
   4.0199999999999986E-002   -0.17468582093715668     
   4.0800000000000003E-002   -0.17323020100593567     
   4.1399999999999992E-002   -0.17147076129913330     
   4.1999999999999982E-002   -0.16942779719829559     
   4.2599999999999999E-002   -0.16712152957916260     
   4.3199999999999988E-002   -0.16457216441631317     
   4.3799999999999978E-002   -0.16179969906806946     
   4.4399999999999995E-002   -0.15882387757301331     
   4.4999999999999984E-002   -0.15566414594650269     
   4.5600000000000002E-002   -0.15233957767486572     
   4.6199999999999991E-002   -0.14886875450611115     
   4.6799999999999981E-002   -0.14526978135108948     
   4.7399999999999998E-002   -0.14156025648117065     
   4.7999999999999987E-002   -0.13775709271430969     
   4.8599999999999977E-002   -0.13387663662433624     
   4.9199999999999994E-002   -0.12993454933166504     
   4.9799999999999983E-002   -0.12594577670097351     
   5.0400000000000000E-002   -0.12192455679178238     
   5.0999999999999990E-002   -0.11788441240787506     
   5.1599999999999979E-002   -0.11383806914091110     
   5.2199999999999996E-002   -0.10979754477739334     
   5.2799999999999986E-002   -0.10577405989170074     
   5.3400000000000003E-002   -0.10177806764841080     
   5.3999999999999992E-002    -9.7819291055202484E-002
   5.4599999999999982E-002    -9.3906663358211517E-002
   5.5199999999999999E-002    -9.0048387646675110E-002
   5.5799999999999988E-002    -8.6251929402351379E-002
   5.6399999999999978E-002    -8.2524053752422333E-002
   5.6999999999999995E-002    -7.8870810568332672E-002
   5.7599999999999985E-002    -7.5297586619853973E-002
   5.8200000000000002E-002    -7.1809105575084686E-002
   5.8799999999999991E-002    -6.8409472703933716E-002
   5.9399999999999981E-002    -6.5102174878120422E-002
   5.9999999999999998E-002    -6.1890132725238800E-002
   6.0599999999999987E-002    -5.8775715529918671E-002
   6.1199999999999977E-002    -5.5760782212018967E-002
   6.1799999999999994E-002    -5.2846677601337433E-002
   6.2399999999999983E-002    -5.0034318119287491E-002
   6.3000000000000000E-002    -4.7324173152446747E-002
   6.3599999999999990E-002    -4.4716309756040573E-002
   6.4199999999999979E-002    -4.2210429906845093E-002
   6.4799999999999996E-002    -3.9805896580219269E-002
   6.5399999999999986E-002    -3.7501756101846695E-002
   6.5999999999999975E-002    -3.5296771675348282E-002
   6.6599999999999993E-002    -3.3189453184604645E-002
   6.7199999999999982E-002    -3.1178068369626999E-002
   6.7799999999999999E-002    -2.9260706156492233E-002
   6.8399999999999989E-002    -2.7435246855020523E-002
   6.8999999999999978E-002    -2.5699436664581299E-002
   6.9599999999999995E-002    -2.4050872772932053E-002
   7.0199999999999985E-002    -2.2487048059701920E-002
   7.0799999999999974E-002    -2.1005362272262573E-002
   7.1399999999999991E-002    -1.9603144377470016E-002
   7.1999999999999981E-002    -1.8277661874890327E-002
   7.2599999999999998E-002    -1.7026148736476898E-002
   7.3199999999999987E-002    -1.5845812857151031E-002
   7.3799999999999977E-002    -1.4733851887285709E-002
   7.4399999999999994E-002    -1.3687467202544212E-002
   7.4999999999999983E-002    -1.2703873217105865E-002
   7.5600000000000001E-002    -1.1780308559536934E-002
   7.6199999999999990E-002    -1.0914049111306667E-002
   7.6799999999999979E-002    -1.0102411732077599E-002
   7.7399999999999997E-002    -9.3427654355764389E-003
   7.7999999999999986E-002    -8.6325341835618019E-003
   7.8599999999999975E-002    -7.9692034050822258E-003
   7.9199999999999993E-002    -7.3503283783793449E-003
   7.9799999999999982E-002    -6.7735328339040279E-003
   8.0399999999999999E-002    -6.2365154735743999E-003
   8.0999999999999989E-002    -5.7370532304048538E-003
   8.1599999999999978E-002    -5.2729984745383263E-003
   8.2199999999999995E-002    -4.8422850668430328E-003
   8.2799999999999985E-002    -4.4429292902350426E-003
   8.3399999999999974E-002    -4.0730265900492668E-003
   8.3999999999999991E-002    -3.7307543680071831E-003
   8.4599999999999981E-002    -3.4143717493861914E-003
   8.5199999999999998E-002    -3.1222156248986721E-003
   8.5799999999999987E-002    -2.8527039103209972E-003
   8.6399999999999977E-002    -2.6043311227113008E-003
   8.6999999999999994E-002    -2.3756669834256172E-003
   8.7599999999999983E-002    -2.1653566509485245E-003
   8.8199999999999973E-002    -1.9721165299415588E-003
   8.8799999999999990E-002    -1.7947333399206400E-003
   8.9399999999999979E-002    -1.6320619033649564E-003
   8.9999999999999997E-002    -1.4830225845798850E-003
   9.0599999999999986E-002    -1.3465991942211986E-003
   9.1199999999999976E-002    -1.2218365445733070E-003
   9.1799999999999993E-002    -1.1078385869041085E-003
   9.2399999999999982E-002    -1.0037651518359780E-003
   9.2999999999999999E-002    -9.0882997028529644E-004
   9.3599999999999989E-002    -8.2229968393221498E-004
   9.4199999999999978E-002    -7.4348936323076487E-004
   9.4799999999999995E-002    -6.7176140146329999E-004
   9.5399999999999985E-002    -6.0652353568002582E-004
   9.5999999999999974E-002    -5.4722599452361465E-004
   9.6599999999999991E-002    -4.9336027586832643E-004
   9.7199999999999981E-002    -4.4445550884120166E-004
   9.7799999999999998E-002    -4.0007825009524822E-004
   9.8399999999999987E-002    -3.5982957342639565E-004
   9.8999999999999977E-002    -3.2334250863641500E-004
   9.9599999999999994E-002    -2.9028093558736145E-004
  0.10019999999999998         -2.6033751782961190E-004
  0.10079999999999997         -2.3323146160691977E-004
  0.10139999999999999         -2.0870720618404448E-004
  0.10199999999999998         -1.8653187726158649E-004
  0.10260000000000000         -1.6649431199766695E-004
  0.10319999999999999         -1.4840261428616941E-004
  0.10379999999999998         -1.3208299060352147E-004
  0.10439999999999999         -1.1737824388546869E-004
  0.10499999999999998         -1.0414547432446852E-004
  0.10559999999999997         -9.2255118943285197E-005
  0.10619999999999999         -8.1589489127509296E-005
  0.10679999999999998         -7.2041548264678568E-005
  0.10740000000000000         -6.3513682107441127E-005
  0.10799999999999998         -5.5916218116180971E-005
  0.10859999999999997         -4.9167090764967725E-005
  0.10919999999999999         -4.3190539145143703E-005
  0.10979999999999998         -3.7916484870947897E-005
  0.11040000000000000         -3.3279873605351895E-005
  0.11099999999999999         -2.9220227588666603E-005
  0.11159999999999998         -2.5681112674647011E-005
  0.11219999999999999         -2.2609878215007484E-005
  0.11279999999999998         -1.9957273252657615E-005
  0.11339999999999997         -1.7677341020316817E-005
  0.11399999999999999         -1.5727215213701129E-005
  0.11459999999999998         -1.4066915355215315E-005
  0.11520000000000000         -1.2659460480790585E-005
  0.11579999999999999         -1.1470499885035679E-005
  0.11639999999999998         -1.0468387699802406E-005
  0.11699999999999999         -9.6241428764187731E-006
  0.11759999999999998         -8.9113027570419945E-006
  0.11819999999999997         -8.3058621385134757E-006
  0.11879999999999999         -7.7864133345428854E-006
  0.11939999999999998         -7.3335072556801606E-006
  0.12000000000000000         -6.9302059273468331E-006
  0.12059999999999998         -6.5616518440947402E-006
  0.12119999999999997         -6.2149242694431450E-006
  0.12179999999999999         -5.8792484196601436E-006
  0.12239999999999998         -5.5452683227485977E-006
  0.12299999999999997         -5.2061709538975265E-006
  0.12359999999999999         -4.8561464609520044E-006
  0.12419999999999998         -4.4911826080351602E-006
  0.12479999999999999         -4.1091916500590742E-006
  0.12539999999999998         -3.7090826481289696E-006
  0.12599999999999997         -3.2910393201746047E-006
  0.12659999999999999         -2.8570898393809330E-006
  0.12719999999999998         -2.4096536890283460E-006
  0.12779999999999997         -1.9528652046574280E-006
  0.12839999999999999         -1.4909819583408535E-006
  0.12899999999999998         -1.0293491641277797E-006
  0.12959999999999999         -5.7417662446823670E-007
  0.13019999999999998         -1.3154408406990115E-007
  0.13079999999999997          2.9156859682188951E-007
  0.13139999999999996          6.8877204739692388E-007
  0.13200000000000001          1.0535377441556193E-006
  0.13260000000000000          1.3793816151519422E-006
  0.13319999999999999          1.6606744566161069E-006
  0.13379999999999997          1.8925496760857641E-006
  0.13439999999999996          2.0704289909190265E-006
  0.13500000000000001          2.1915898287261371E-006
  0.13560000000000000          2.2537960830959491E-006
  0.13619999999999999          2.2563906441064319E-006
  0.13679999999999998          2.2002766399964457E-006
  0.13739999999999997          2.0872266759397462E-006
  0.13799999999999996          1.9210192476748489E-006
  0.13860000000000000          1.7063296127162175E-006
  0.13919999999999999          1.4493954267891240E-006
  0.13979999999999998          1.1571519280551001E-006
  0.14039999999999997          8.3813165474566631E-007
  0.14099999999999996          5.0102045179301058E-007
  0.14160000000000000          1.5543407982931967E-007
  0.14219999999999999         -1.8914558097549161E-007
  0.14279999999999998         -5.2351623480717535E-007
  0.14339999999999997         -8.3859856658818899E-007
  0.14399999999999996         -1.1258724725848879E-006
  0.14460000000000001         -1.3775236311630579E-006
  0.14520000000000000         -1.5875511962804012E-006
  0.14579999999999999         -1.7506969243186177E-006
  0.14639999999999997         -1.8634833622854785E-006
  0.14699999999999996         -1.9238705135649070E-006
  0.14759999999999995         -1.9309475192130776E-006
  0.14820000000000000         -1.8862565411836840E-006
  0.14879999999999999         -1.7919343235917040E-006
  0.14939999999999998         -1.6518866914339014E-006
  0.14999999999999997         -1.4710242339788238E-006
  0.15059999999999996         -1.2555074135889299E-006
  0.15120000000000000         -1.0118644695467083E-006
  0.15179999999999999         -7.4760572488230537E-007
  0.15239999999999998         -4.7029249117258587E-007
  0.15299999999999997         -1.8782186828047998E-007
  0.15359999999999996          9.2479695013025776E-008
  0.15420000000000000          3.6325718610896729E-007
  0.15479999999999999          6.1790575500708655E-007
  0.15539999999999998          8.5036066366228624E-007
  0.15599999999999997          1.0555320386629319E-006
  0.15659999999999996          1.2291505981920636E-006
  0.15720000000000001          1.3679500625585206E-006
  0.15780000000000000          1.4696458947582869E-006
  0.15839999999999999          1.5329881080106134E-006
  0.15899999999999997          1.5576665646221954E-006
  0.15959999999999996          1.5443646361745778E-006
  0.16019999999999995          1.4945899238227867E-006
  0.16080000000000000          1.4105607988312840E-006
  0.16139999999999999          1.2952372117069899E-006
  0.16199999999999998          1.1521269698278047E-006
  0.16259999999999997          9.8511907253850950E-007
  0.16319999999999996          7.9854692103253910E-007
  0.16380000000000000          5.9688295550586190E-007
  0.16439999999999999          3.8454078321592533E-007
  0.16499999999999998          1.6622793452825135E-007
  0.16559999999999997         -5.3539974231853193E-008
  0.16619999999999996         -2.7059942908636003E-007
  0.16680000000000000         -4.8111274963957840E-007
  0.16739999999999999         -6.8123483742965618E-007
  0.16799999999999998         -8.6778339891679934E-007
  0.16859999999999997         -1.0376633099440369E-006
  0.16919999999999996         -1.1883435035997536E-006
  0.16980000000000001         -1.3177485698179225E-006
  0.17040000000000000         -1.4238355561246863E-006
  0.17099999999999999         -1.5054115465318318E-006
  0.17159999999999997         -1.5614424455634435E-006
  0.17219999999999996         -1.5912268054307788E-006
  0.17279999999999995         -1.5945801123962156E-006
  0.17340000000000000         -1.5714753089923761E-006
  0.17399999999999999         -1.5222669844661141E-006
  0.17459999999999998         -1.4478305274678860E-006
  0.17519999999999997         -1.3494324093699106E-006
  0.17579999999999996         -1.2286706123632030E-006
  0.17640000000000000         -1.0877572549361503E-006
  0.17699999999999999         -9.2921374061916140E-007
  0.17759999999999998         -7.5573791491478914E-007
  0.17819999999999997         -5.7089749816441326E-007
  0.17879999999999996         -3.7846518807782559E-007
  0.17940000000000000         -1.8218621278265346E-007
  0.17999999999999999          1.3844995372380708E-008
  0.18059999999999998          2.0540392142720520E-007
  0.18119999999999997          3.8830123116895265E-007
  0.18179999999999996          5.5874011195555795E-007
  0.18239999999999995          7.1306783411273500E-007
  0.18300000000000000          8.4804406697003287E-007
  0.18359999999999999          9.6116150416492019E-007
  0.18419999999999997          1.0504641068109777E-006
  0.18479999999999996          1.1144682048325194E-006
  0.18539999999999995          1.1528715049280436E-006
  0.18600000000000000          1.1657373306661611E-006
  0.18659999999999999          1.1541372941792361E-006
  0.18719999999999998          1.1195945717190625E-006
  0.18779999999999997          1.0643145742506022E-006
  0.18839999999999996          9.9099088401999325E-007
  0.18900000000000000          9.0259055696151336E-007
  0.18959999999999999          8.0237236943503376E-007
  0.19019999999999998          6.9366643629109603E-007
  0.19079999999999997          5.7975825029643602E-007
  0.19139999999999996          4.6393287789214810E-007
  0.19200000000000000          3.4906199175566144E-007
  0.19259999999999999          2.3780647495641460E-007
  0.19319999999999998          1.3248379104879859E-007
  0.19379999999999997          3.4942168269935792E-008
  0.19439999999999996         -5.3510831321545993E-008
  0.19499999999999995         -1.3182427949232078E-007
  0.19560000000000000         -1.9958358166149992E-007
  0.19619999999999999         -2.5662097868917044E-007
  0.19679999999999997         -3.0300995490506466E-007
  0.19739999999999996         -3.3925061870831996E-007
  0.19799999999999995         -3.6589486285265593E-007
  0.19860000000000000         -3.8355173614945670E-007
  0.19919999999999999         -3.9291856523959723E-007
  0.19979999999999998         -3.9463540701945021E-007
  0.20039999999999997         -3.8920336464798311E-007
  0.20099999999999996         -3.7691856391575129E-007
  0.20160000000000000         -3.5800329101220996E-007
  0.20219999999999999         -3.3246547559429018E-007
  0.20279999999999998         -3.0017218932698597E-007
  0.20339999999999997         -2.6090629035024904E-007
  0.20399999999999996         -2.1440814634843264E-007
  0.20459999999999995         -1.6051639306624566E-007
  0.20519999999999999         -9.9166676648110297E-008
  0.20579999999999998         -3.0571655429412203E-008
  0.20639999999999997          4.4802899168416843E-008