-0.1200000E+00  0.0000000E+00
-0.1194000E+00  0.0000000E+00
-0.1188000E+00  0.0000000E+00
-0.1182000E+00  0.1003119E-15
-0.1176000E+00 -0.1087174E-14
-0.1170000E+00 -0.2174348E-14
-0.1164000E+00 -0.4348696E-14
-0.1158000E+00 -0.8697392E-14
-0.1152000E+00 -0.1632479E-13
-0.1146000E+00 -0.1739478E-13
-0.1140000E+00 -0.2139988E-14
-0.1134000E+00  0.0000000E+00
-0.1128000E+00  0.0000000E+00
-0.1122000E+00  0.0000000E+00
-0.1116000E+00  0.1263183E-12
-0.1110000E+00  0.1305983E-12
-0.1104000E+00  0.1305983E-12
-0.1098000E+00  0.1284583E-12
-0.1092000E+00  0.2521017E-12
-0.1086000E+00  0.2515667E-12
-0.1080000E+00  0.4279975E-14
-0.1074000E+00  0.8559951E-14
-0.1068000E+00  0.8559951E-14
-0.1062000E+00  0.1711990E-13
-0.1056000E+00  0.1711990E-13
-0.1050000E+00  0.0000000E+00
-0.1044000E+00 -0.1711990E-13
-0.1038000E+00 -0.5223933E-12
-0.1032000E+00 -0.5223933E-12
-0.1026000E+00  0.0000000E+00
-0.1020000E+00  0.3423980E-13
-0.1014000E+00  0.3423980E-13
-0.1008000E+00  0.6847961E-13
-0.1002000E+00  0.1027194E-12
-0.9960000E-01  0.1369592E-12
-0.9900000E-01  0.1369592E-12
-0.9840000E-01  0.1369592E-12
-0.9780000E-01  0.2054388E-12
-0.9720000E-01  0.2054388E-12
-0.9660000E-01  0.2739184E-12
-0.9600000E-01  0.2054388E-12
-0.9540000E-01  0.1369592E-12
-0.9480000E-01 -0.6847961E-13
-0.9420000E-01 -0.2739184E-12
-0.9360000E-01 -0.5478368E-12
-0.9300000E-01 -0.6847960E-12
-0.9240000E-01 -0.6847960E-12
-0.9180000E-01 -0.6847960E-12
-0.9120000E-01 -0.5478368E-12
-0.9060000E-01 -0.2739184E-12
-0.9000000E-01  0.0000000E+00
-0.8940000E-01  0.7810455E-11
-0.8880000E-01  0.8084374E-11
-0.8820000E-01  0.8632211E-11
-0.8760000E-01  0.8906129E-11
-0.8700000E-01  0.1671658E-10
-0.8640000E-01  0.1095674E-11
-0.8580000E-01  0.5478368E-12
-0.8520000E-01  0.0000000E+00
-0.8460000E-01  0.0000000E+00
-0.8400000E-01 -0.5478368E-12
-0.8340000E-01 -0.1095674E-11
-0.8280000E-01 -0.1095674E-11
-0.8220000E-01 -0.1095674E-11
-0.8160000E-01  0.0000000E+00
-0.8100000E-01  0.1095674E-11
-0.8040000E-01  0.1095674E-11
-0.7980000E-01  0.0000000E+00
-0.7920000E-01 -0.2191347E-11
-0.7860000E-01 -0.2191347E-11
-0.7800000E-01 -0.2191347E-11
-0.7740000E-01 -0.2191347E-11
-0.7680000E-01 -0.2191347E-11
-0.7620000E-01 -0.2191347E-11
-0.7560000E-01  0.0000000E+00
-0.7500000E-01  0.2191347E-11
-0.7440000E-01  0.4382695E-11
-0.7380000E-01  0.4382695E-11
-0.7320000E-01  0.4382695E-11
-0.7260000E-01  0.4382695E-11
-0.7200000E-01  0.4382695E-11
-0.7140000E-01  0.0000000E+00
-0.7080000E-01 -0.4382695E-11
-0.7020000E-01 -0.8765389E-11
-0.6960000E-01 -0.1753078E-10
-0.6900000E-01 -0.1753078E-10
-0.6840000E-01 -0.1753078E-10
-0.6780000E-01 -0.1753078E-10
-0.6720000E-01 -0.1753078E-10
-0.6660000E-01 -0.1753078E-10
-0.6600000E-01 -0.1753078E-10
-0.6540000E-01 -0.1753078E-10
-0.6480000E-01 -0.8765389E-11
-0.6420000E-01 -0.1753078E-10
-0.6360000E-01  0.2324038E-09
-0.6300000E-01  0.2324038E-09
-0.6240000E-01  0.2324038E-09
-0.6180000E-01  0.2324038E-09
-0.6120000E-01  0.2499346E-09
-0.6060000E-01  0.2499346E-09
-0.6000000E-01  0.2499346E-09
-0.5940000E-01  0.5174000E-09
-0.5880000E-01  0.5349307E-09
-0.5820000E-01  0.5349307E-09
-0.5760000E-01  0.5349307E-09
-0.5700000E-01  0.0000000E+00
-0.5640000E-01 -0.3506156E-10
-0.5580000E-01 -0.7012312E-10
-0.5520000E-01 -0.7012312E-10
-0.5460000E-01 -0.7012312E-10
-0.5400000E-01 -0.7012312E-10
-0.5340000E-01 -0.6050538E-09
-0.5280000E-01 -0.6050538E-09
-0.5220000E-01 -0.5699923E-09
-0.5160000E-01 -0.5349307E-09
-0.5100000E-01 -0.4998691E-09
-0.5040000E-01 -0.9296152E-09
-0.4980000E-01 -0.8594921E-09
-0.4920000E-01  0.2103693E-09
-0.4860000E-01  0.2103693E-09
-0.4800000E-01  0.1210108E-08
-0.4740000E-01  0.1210108E-08
-0.4680000E-01  0.1402462E-09
-0.4620000E-01  0.7012312E-10
-0.4560000E-01  0.0000000E+00
-0.4500000E-01 -0.7012312E-10
-0.4440000E-01 -0.1402462E-09
-0.4380000E-01 -0.1402462E-09
-0.4320000E-01 -0.2103693E-09
-0.4260000E-01 -0.2103693E-09
-0.4200000E-01 -0.2103693E-09
-0.4140000E-01 -0.1210108E-08
-0.4080000E-01 -0.1139985E-08
-0.4020000E-01 -0.1069861E-08
-0.3960000E-01 -0.9997383E-09
-0.3900000E-01 -0.9296152E-09
-0.3840000E-01 -0.8594921E-09
-0.3780000E-01 -0.8594921E-09
-0.3720000E-01 -0.9997383E-09
-0.3660000E-01 -0.9997383E-09
-0.3600000E-01  0.0000000E+00
-0.3540000E-01  0.0000000E+00
-0.3480000E-01  0.0000000E+00
-0.3420000E-01  0.0000000E+00
-0.3360000E-01  0.9997383E-09
-0.3300000E-01  0.9997383E-09
-0.3240000E-01  0.9997383E-09
-0.3180000E-01  0.9997383E-09
-0.3120000E-01  0.9997383E-09
-0.3060000E-01  0.9997383E-09
-0.3000000E-01  0.0000000E+00
-0.2940000E-01  0.0000000E+00
-0.2880000E-01  0.0000000E+00
-0.2820000E-01  0.0000000E+00
-0.2760000E-01 -0.9997383E-09
-0.2700000E-01 -0.1859230E-08
-0.2640000E-01 -0.1859230E-08
-0.2580000E-01 -0.2858969E-08
-0.2520000E-01 -0.2718723E-08
-0.2460000E-01 -0.2148730E-08
-0.2400000E-01 -0.2078607E-08
-0.2340000E-01 -0.1508615E-08
-0.2280000E-01 -0.1008746E-08
-0.2220000E-01 -0.1078869E-08
-0.2160000E-01 -0.5789997E-09
-0.2100000E-01 -0.1492536E-09
-0.2040000E-01  0.1555252E-09
-0.1980000E-01  0.4526645E-09
-0.1920000E-01  0.6560783E-09
-0.1860000E-01  0.6994633E-09
-0.1800000E-01  0.6491228E-09
-0.1740000E-01  0.7588111E-09
-0.1680000E-01  0.8684995E-09
-0.1620000E-01  0.1263184E-08
-0.1560000E-01  0.1228122E-08
-0.1500000E-01  0.1236888E-08
-0.1440000E-01  0.1276332E-08
-0.1380000E-01  0.1385900E-08
-0.1320000E-01  0.1526146E-08
-0.1260000E-01  0.1718984E-08
-0.1200000E-01  0.1894292E-08
-0.1140000E-01  0.2034538E-08
-0.1080000E-01  0.2069600E-08
-0.1020000E-01  0.2139723E-08
-0.9600000E-02  0.1402462E-09
-0.9000000E-02  0.1402462E-09
-0.8400000E-02  0.7012312E-10
-0.7800000E-02  0.0000000E+00
-0.7200000E-02  0.0000000E+00
-0.6600000E-02  0.0000000E+00
-0.6000000E-02 -0.1402462E-09
-0.5400000E-02 -0.1402462E-09
-0.4800000E-02 -0.1402462E-09
-0.4200000E-02 -0.1402462E-09
-0.3600000E-02  0.0000000E+00
-0.3000000E-02  0.1402462E-09
-0.2400000E-02  0.4207387E-09
-0.1800000E-02  0.7012311E-09
-0.1200000E-02  0.9817236E-09
-0.6000000E-03  0.1402462E-08
 0.0000000E+00  0.1682955E-08
 0.6000000E-03  0.2243940E-08
 0.1200000E-02  0.2804925E-08
 0.1800000E-02  0.3365909E-08
 0.2400000E-02  0.1927418E-08
 0.3000000E-02  0.2488403E-08
 0.3600000E-02  0.1330403E-08
 0.4200000E-02  0.2171880E-08
 0.4800000E-02  0.1294374E-08
 0.5400000E-02  0.4168667E-09
 0.6000000E-02 -0.2179624E-08
 0.6600000E-02 -0.2776639E-08
 0.7200000E-02 -0.5092637E-08
 0.7800000E-02 -0.7128144E-08
 0.8400000E-02 -0.8883157E-08
 0.9000000E-02 -0.1035768E-07
 0.9600000E-02 -0.1155171E-07
 0.1020000E-01 -0.1218475E-07
 0.1080000E-01 -0.1253730E-07
 0.1140000E-01 -0.1288985E-07
 0.1200000E-01 -0.1268142E-07
 0.1260000E-01 -0.1447247E-07
 0.1320000E-01 -0.1598302E-07
 0.1380000E-01 -0.1693258E-07
 0.1440000E-01 -0.1960113E-07
 0.1500000E-01 -0.2370817E-07
 0.1560000E-01 -0.2725423E-07
 0.1620000E-01 -0.3081830E-07
 0.1680000E-01 -0.3540013E-07
 0.1740000E-01 -0.4071921E-07
 0.1800000E-01 -0.4691580E-07
 0.1860000E-01 -0.5370941E-07
 0.1920000E-01 -0.6095979E-07
 0.1980000E-01 -0.6852669E-07
 0.2040000E-01 -0.7726960E-07
 0.2100000E-01 -0.8618878E-07
 0.2160000E-01 -0.9664361E-07
 0.2220000E-01 -0.1086341E-06
 0.2280000E-01 -0.1219894E-06
 0.2340000E-01 -0.1375995E-06
 0.2400000E-01 -0.1554493E-06
 0.2460000E-01 -0.1756880E-06
 0.2520000E-01 -0.1982538E-06
 0.2580000E-01 -0.2233894E-06
 0.2640000E-01 -0.2513062E-06
 0.2700000E-01 -0.2819743E-06
 0.2760000E-01 -0.3157927E-06
 0.2820000E-01 -0.3531607E-06
 0.2880000E-01 -0.3938725E-06
 0.2940000E-01 -0.4380422E-06
 0.3000000E-01 -0.4868538E-06
 0.3060000E-01 -0.5408777E-06
 0.3120000E-01 -0.5996667E-06
 0.3180000E-01 -0.6652667E-06
 0.3240000E-01 -0.7372064E-06
 0.3300000E-01 -0.8160189E-06
 0.3360000E-01 -0.9021582E-06
 0.3420000E-01 -0.9979836E-06
 0.3480000E-01 -0.1103882E-05
 0.3540000E-01 -0.1219115E-05
 0.3600000E-01 -0.1344913E-05
 0.3660000E-01 -0.1483504E-05
 0.3720000E-01 -0.1634974E-05
 0.3780000E-01 -0.1798483E-05
 0.3840000E-01 -0.1977048E-05
 0.3900000E-01 -0.2170757E-05
 0.3960000E-01 -0.2380768E-05
 0.4020000E-01 -0.2608239E-05
 0.4080000E-01 -0.2855188E-05
 0.4140000E-01 -0.3121702E-05
 0.4200000E-01 -0.3410939E-05
 0.4260000E-01 -0.3722988E-05
 0.4320000E-01 -0.4059936E-05
 0.4380000E-01 -0.4423870E-05
 0.4440000E-01 -0.4816879E-05
 0.4500000E-01 -0.5238979E-05
 0.4560000E-01 -0.5692909E-05
 0.4620000E-01 -0.6180895E-05
 0.4680000E-01 -0.6703816E-05
 0.4740000E-01 -0.7264548E-05
 0.4800000E-01 -0.7863108E-05
 0.4860000E-01 -0.8501516E-05
 0.4920000E-01 -0.9182648E-05
 0.4980000E-01 -0.9907661E-05
 0.5040000E-01 -0.1067857E-04
 0.5100000E-01 -0.1149682E-04
 0.5160000E-01 -0.1236557E-04
 0.5220000E-01 -0.1328639E-04
 0.5280000E-01 -0.1426172E-04
 0.5340000E-01 -0.1529200E-04
 0.5400000E-01 -0.1637996E-04
 0.5460000E-01 -0.1752751E-04
 0.5520000E-01 -0.1873651E-04
 0.5580000E-01 -0.2000898E-04
 0.5640000E-01 -0.2134519E-04
 0.5700000E-01 -0.2274641E-04
 0.5760000E-01 -0.2421400E-04
 0.5820000E-01 -0.2574817E-04
 0.5880000E-01 -0.2734931E-04
 0.5940000E-01 -0.2901792E-04
 0.6000000E-01 -0.3075425E-04
 0.6060000E-01 -0.3255743E-04
 0.6120000E-01 -0.3442770E-04
 0.6180000E-01 -0.3636359E-04
 0.6240000E-01 -0.3836507E-04
 0.6300000E-01 -0.4043022E-04
 0.6360000E-01 -0.4255708E-04
 0.6420000E-01 -0.4474399E-04
 0.6480000E-01 -0.4698797E-04
 0.6540000E-01 -0.4928595E-04
 0.6600000E-01 -0.5163414E-04
 0.6660000E-01 -0.5402803E-04
 0.6720000E-01 -0.5646264E-04
 0.6780000E-01 -0.5893245E-04
 0.6840000E-01 -0.6143118E-04
 0.6900000E-01 -0.6395167E-04
 0.6960000E-01 -0.6648658E-04
 0.7020000E-01 -0.6902721E-04
 0.7080000E-01 -0.7156499E-04
 0.7140000E-01 -0.7409026E-04
 0.7200000E-01 -0.7659283E-04
 0.7260000E-01 -0.7906205E-04
 0.7320000E-01 -0.8148644E-04
 0.7380000E-01 -0.8385417E-04
 0.7440000E-01 -0.8615288E-04
 0.7500000E-01 -0.8836962E-04
 0.7560000E-01 -0.9049113E-04
 0.7620000E-01 -0.9250369E-04
 0.7680000E-01 -0.9439288E-04
 0.7740000E-01 -0.9614407E-04
 0.7800000E-01 -0.9774218E-04
 0.7860000E-01 -0.9917183E-04
 0.7920000E-01 -0.1004175E-03
 0.7980000E-01 -0.1014631E-03
 0.8040000E-01 -0.1022927E-03
 0.8100000E-01 -0.1028898E-03
 0.8160000E-01 -0.1032379E-03
 0.8220000E-01 -0.1033209E-03
 0.8280000E-01 -0.1031223E-03
 0.8340000E-01 -0.1026262E-03
 0.8400000E-01 -0.1018165E-03
 0.8460000E-01 -0.1006779E-03
 0.8520000E-01 -0.9919542E-04
 0.8580000E-01 -0.9735466E-04
 0.8640000E-01 -0.9514188E-04
 0.8700000E-01 -0.9254422E-04
 0.8760000E-01 -0.8954971E-04
 0.8820000E-01 -0.8614741E-04
 0.8880000E-01 -0.8232747E-04
 0.8940000E-01 -0.7808146E-04
 0.9000000E-01 -0.7340223E-04
 0.9060000E-01 -0.6828418E-04
 0.9120000E-01 -0.6272337E-04
 0.9180000E-01 -0.5671761E-04
 0.9240000E-01 -0.5026660E-04
 0.9300000E-01 -0.4337206E-04
 0.9360000E-01 -0.3603781E-04
 0.9420000E-01 -0.2826983E-04
 0.9480000E-01 -0.2007633E-04
 0.9540000E-01 -0.1146785E-04
 0.9600000E-01 -0.2457177E-05
 0.9660000E-01  0.6940541E-05
 0.9720000E-01  0.1670790E-04
 0.9780000E-01  0.2682524E-04
 0.9840000E-01  0.3727075E-04
 0.9900000E-01  0.4802039E-04
 0.9960000E-01  0.5904809E-04
 0.1002000E+00  0.7032580E-04
 0.1008000E+00  0.8182348E-04
 0.1014000E+00  0.9350923E-04
 0.1020000E+00  0.1053494E-03
 0.1026000E+00  0.1173085E-03
 0.1032000E+00  0.1293496E-03
 0.1038000E+00  0.1414339E-03
 0.1044000E+00  0.1535213E-03
 0.1050000E+00  0.1655703E-03
 0.1056000E+00  0.1775381E-03
 0.1062000E+00  0.1893806E-03
 0.1068000E+00  0.2010531E-03
 0.1074000E+00  0.2125096E-03
 0.1080000E+00  0.2237038E-03
 0.1086000E+00  0.2345888E-03
 0.1092000E+00  0.2451178E-03
 0.1098000E+00  0.2552437E-03
 0.1104000E+00  0.2649200E-03
 0.1110000E+00  0.2741007E-03
 0.1116000E+00  0.2827407E-03
 0.1122000E+00  0.2907962E-03
 0.1128000E+00  0.2982247E-03
 0.1134000E+00  0.3049854E-03
 0.1140000E+00  0.3110396E-03
 0.1146000E+00  0.3163509E-03
 0.1152000E+00  0.3208853E-03
 0.1158000E+00  0.3246116E-03
 0.1164000E+00  0.3275014E-03
 0.1170000E+00  0.3295296E-03
 0.1176000E+00  0.3306743E-03
 0.1182000E+00  0.3309169E-03
 0.1188000E+00  0.3302428E-03
 0.1194000E+00  0.3286407E-03
 0.1200000E+00  0.3261033E-03
 0.1206000E+00  0.3226272E-03
 0.1212000E+00  0.3182128E-03
 0.1218000E+00  0.3128646E-03
 0.1224000E+00  0.3065908E-03
 0.1230000E+00  0.2994035E-03
 0.1236000E+00  0.2913189E-03
 0.1242000E+00  0.2823567E-03
 0.1248000E+00  0.2725406E-03
 0.1254000E+00  0.2618974E-03
 0.1260000E+00  0.2504578E-03
 0.1266000E+00  0.2382556E-03
 0.1272000E+00  0.2253280E-03
 0.1278000E+00  0.2117152E-03
 0.1284000E+00  0.1974604E-03
 0.1290000E+00  0.1826097E-03
 0.1296000E+00  0.1672116E-03
 0.1302000E+00  0.1513176E-03
 0.1308000E+00  0.1349812E-03
 0.1314000E+00  0.1182580E-03
 0.1320000E+00  0.1012057E-03
 0.1326000E+00  0.8388361E-04
 0.1332000E+00  0.6635236E-04
 0.1338000E+00  0.4867378E-04
 0.1344000E+00  0.3091044E-04
 0.1350000E+00  0.1312540E-04
 0.1356000E+00 -0.4618190E-05
 0.1362000E+00 -0.2225741E-04
 0.1368000E+00 -0.3972990E-04
 0.1374000E+00 -0.5697431E-04
 0.1380000E+00 -0.7393059E-04
 0.1386000E+00 -0.9054036E-04
 0.1392000E+00 -0.1067472E-03
 0.1398000E+00 -0.1224970E-03
 0.1404000E+00 -0.1377381E-03
 0.1410000E+00 -0.1524219E-03
 0.1416000E+00 -0.1665028E-03
 0.1422000E+00 -0.1799381E-03
 0.1428000E+00 -0.1926891E-03
 0.1434000E+00 -0.2047202E-03
 0.1440000E+00 -0.2159997E-03
 0.1446000E+00 -0.2264996E-03
 0.1452000E+00 -0.2361957E-03
 0.1458000E+00 -0.2450677E-03
 0.1464000E+00 -0.2530990E-03
 0.1470000E+00 -0.2602769E-03
 0.1476000E+00 -0.2665923E-03
 0.1482000E+00 -0.2720400E-03
 0.1488000E+00 -0.2766183E-03
 0.1494000E+00 -0.2803289E-03
 0.1500000E+00 -0.2831769E-03
 0.1506000E+00 -0.2851709E-03
 0.1512000E+00 -0.2863224E-03
 0.1518000E+00 -0.2866460E-03
 0.1524000E+00 -0.2861590E-03
 0.1530000E+00 -0.2848817E-03
 0.1536000E+00 -0.2828368E-03
 0.1542000E+00 -0.2800496E-03
 0.1548000E+00 -0.2765476E-03
 0.1554000E+00 -0.2723606E-03
 0.1560000E+00 -0.2675205E-03
 0.1566000E+00 -0.2620612E-03
 0.1572000E+00 -0.2560181E-03
 0.1578000E+00 -0.2494284E-03
 0.1584000E+00 -0.2423307E-03
 0.1590000E+00 -0.2347647E-03
 0.1596000E+00 -0.2267714E-03
 0.1602000E+00 -0.2183922E-03
 0.1608000E+00 -0.2096694E-03
 0.1614000E+00 -0.2006455E-03
 0.1620000E+00 -0.1913629E-03
 0.1626000E+00 -0.1818642E-03
 0.1632000E+00 -0.1721914E-03
 0.1638000E+00 -0.1623858E-03
 0.1644000E+00 -0.1524880E-03
 0.1650000E+00 -0.1425375E-03
 0.1656000E+00 -0.1325725E-03
 0.1662000E+00 -0.1226300E-03
 0.1668000E+00 -0.1127451E-03
 0.1674000E+00 -0.1029513E-03
 0.1680000E+00 -0.9328043E-04
 0.1686000E+00 -0.8376210E-04
 0.1692000E+00 -0.7442402E-04
 0.1698000E+00 -0.6529171E-04
 0.1704000E+00 -0.5638858E-04
 0.1710000E+00 -0.4773579E-04
 0.1716000E+00 -0.3935232E-04
 0.1722000E+00 -0.3125497E-04
 0.1728000E+00 -0.2345834E-04
 0.1734000E+00 -0.1597497E-04
 0.1740000E+00 -0.8815318E-05
 0.1746000E+00 -0.1987913E-05
 0.1752000E+00  0.4500572E-05
 0.1758000E+00  0.1064519E-04
 0.1764000E+00  0.1644266E-04
 0.1770000E+00  0.2189125E-04
 0.1776000E+00  0.2699059E-04
 0.1782000E+00  0.3174166E-04
 0.1788000E+00  0.3614665E-04
 0.1794000E+00  0.4020889E-04
 0.1800000E+00  0.4393276E-04
 0.1806000E+00  0.4732362E-04
 0.1812000E+00  0.5038777E-04
 0.1818000E+00  0.5313242E-04
 0.1824000E+00  0.5556552E-04
 0.1830000E+00  0.5769584E-04
 0.1836000E+00  0.5953282E-04
 0.1842000E+00  0.6108656E-04
 0.1848000E+00  0.6236775E-04
 0.1854000E+00  0.6338757E-04
 0.1860000E+00  0.6415768E-04
 0.1866000E+00  0.6469010E-04
 0.1872000E+00  0.6499712E-04
 0.1878000E+00  0.6509128E-04
 0.1884000E+00  0.6498530E-04
 0.1890000E+00  0.6469194E-04
 0.1896000E+00  0.6422409E-04
 0.1902000E+00  0.6359453E-04
 0.1908000E+00  0.6281604E-04
 0.1914000E+00  0.6190130E-04
 0.1920000E+00  0.6086283E-04
 0.1926000E+00  0.5971299E-04
 0.1932000E+00  0.5846392E-04
 0.1938000E+00  0.5712746E-04
 0.1944000E+00  0.5571522E-04
 0.1950000E+00  0.5423835E-04
 0.1956000E+00  0.5270764E-04
 0.1962000E+00  0.5113339E-04
 0.1968000E+00  0.4952535E-04
 0.1974000E+00  0.4789270E-04
 0.1980000E+00  0.4624397E-04
 0.1986000E+00  0.4458703E-04
 0.1992000E+00  0.4292908E-04
 0.1998000E+00  0.4127657E-04
 0.2004000E+00  0.3963530E-04
 0.2010000E+00  0.3801038E-04
 0.2016000E+00  0.3640629E-04
 0.2022000E+00  0.3482691E-04
 0.2028000E+00  0.3327557E-04
 0.2034000E+00  0.3175512E-04
 0.2040000E+00  0.3026797E-04
 0.2046000E+00  0.2881616E-04
 0.2052000E+00  0.2740137E-04
 0.2058000E+00  0.2602498E-04
 0.2064000E+00  0.2468811E-04
 0.2070000E+00  0.2339164E-04
 0.2076000E+00  0.2213623E-04
 0.2082000E+00  0.2092233E-04
 0.2088000E+00  0.1975021E-04
 0.2094000E+00  0.1861999E-04
 0.2100000E+00  0.1753165E-04
 0.2106000E+00  0.1648502E-04
 0.2112000E+00  0.1547989E-04
 0.2118000E+00  0.1451593E-04
 0.2124000E+00  0.1359281E-04
 0.2130000E+00  0.1271016E-04
 0.2136000E+00  0.1186762E-04
 0.2142000E+00  0.1106484E-04
 0.2148000E+00  0.1030147E-04
 0.2154000E+00  0.9577156E-05
 0.2160000E+00  0.8891546E-05
 0.2166000E+00  0.8244234E-05
 0.2172000E+00  0.7634747E-05
 0.2178000E+00  0.7062502E-05
 0.2184000E+00  0.6526792E-05
 0.2190000E+00  0.6026742E-05
 0.2196000E+00  0.5561300E-05
 0.2202000E+00  0.5129228E-05
 0.2208000E+00  0.4729099E-05
 0.2214000E+00  0.4359317E-05
 0.2220000E+00  0.4018138E-05
 0.2226000E+00  0.3703706E-05
 0.2232000E+00  0.3414094E-05
 0.2238000E+00  0.3147348E-05
 0.2244000E+00  0.2901539E-05
 0.2250000E+00  0.2674796E-05
 0.2256000E+00  0.2465349E-05
 0.2262000E+00  0.2271559E-05
 0.2268000E+00  0.2091936E-05
 0.2274000E+00  0.1925147E-05
 0.2280000E+00  0.1770025E-05
 0.2286000E+00  0.1625554E-05
 0.2292000E+00  0.1490864E-05
 0.2298000E+00  0.1365211E-05
 0.2304000E+00  0.1247962E-05
 0.2310000E+00  0.1138577E-05
 0.2316000E+00  0.1036595E-05
 0.2322000E+00  0.9416217E-06
 0.2328000E+00  0.8533185E-06
 0.2334000E+00  0.7713977E-06
 0.2340000E+00  0.6956165E-06
 0.2346000E+00  0.6257712E-06
 0.2352000E+00  0.5616922E-06
 0.2358000E+00  0.5032364E-06
 0.2364000E+00  0.4502792E-06
 0.2370000E+00  0.4027007E-06
 0.2376000E+00  0.3603733E-06
 0.2382000E+00  0.3231490E-06
 0.2388000E+00  0.2908452E-06
 0.2394000E+00  0.2632347E-06
 0.2400000E+00  0.2400377E-06
 0.2406000E+00  0.2209221E-06
 0.2412000E+00  0.2055044E-06
 0.2418000E+00  0.1933615E-06
 0.2424000E+00  0.1840452E-06
 0.2430000E+00  0.1771000E-06
 0.2436000E+00  0.1720848E-06
 0.2442000E+00  0.1685924E-06
 0.2448000E+00  0.1662691E-06
 0.2454000E+00  0.1648289E-06
 0.2460000E+00  0.1640614E-06
 0.2466000E+00  0.1638343E-06
 0.2472000E+00  0.1640862E-06
 0.2478000E+00  0.1648158E-06
 0.2484000E+00  0.1660617E-06
 0.2490000E+00  0.1678817E-06
 0.2496000E+00  0.1703266E-06
 0.2502000E+00  0.1734194E-06
 0.2508000E+00  0.1771317E-06
 0.2514000E+00  0.1813718E-06
 0.2520000E+00  0.1859750E-06
 0.2526000E+00  0.1907042E-06
 0.2532000E+00  0.1952583E-06
 0.2538000E+00  0.1992898E-06
 0.2544000E+00  0.2024257E-06
 0.2550000E+00  0.2042954E-06
 0.2556000E+00  0.2045590E-06
 0.2562000E+00  0.2029358E-06
 0.2568000E+00  0.1992271E-06
 0.2574000E+00  0.1933364E-06
 0.2580000E+00  0.1852776E-06
 0.2586000E+00  0.1751797E-06
 0.2592000E+00  0.1632786E-06
 0.2598000E+00  0.1499030E-06
 0.2604000E+00  0.1354542E-06
 0.2610000E+00  0.1203803E-06
 0.2616000E+00  0.1051495E-06
 0.2622000E+00  0.9022284E-07
 0.2628000E+00  0.7602986E-07
 0.2634000E+00  0.6294770E-07
 0.2640000E+00  0.5128517E-07
 0.2646000E+00  0.4127217E-07
 0.2652000E+00  0.3305375E-07
 0.2658000E+00  0.2668851E-07
 0.2664000E+00  0.2215008E-07
 0.2670000E+00  0.1933117E-07
 0.2676000E+00  0.1804874E-07
 0.2682000E+00  0.1805045E-07
 0.2688000E+00  0.1902210E-07
 0.2694000E+00  0.2059628E-07
 0.2700000E+00  0.2236315E-07
 0.2706000E+00  0.2388379E-07
 0.2712000E+00  0.2470708E-07
 0.2718000E+00  0.2438973E-07
 0.2724000E+00  0.2251989E-07
 0.2730000E+00  0.1874258E-07
 0.2736000E+00  0.1278644E-07
 0.2742000E+00  0.4488766E-08
 0.2748000E+00 -0.6183345E-08
 0.2754000E+00 -0.1911769E-07
 0.2760000E+00 -0.3405031E-07
 0.2766000E+00 -0.5056849E-07
 0.2772000E+00 -0.6812553E-07
 0.2778000E+00 -0.8606489E-07
 0.2784000E+00 -0.1036543E-06
 0.2790000E+00 -0.1201276E-06
 0.2796000E+00 -0.1347292E-06
 0.2802000E+00 -0.1467610E-06
 0.2808000E+00 -0.1556247E-06
 0.2814000E+00 -0.1608581E-06
 0.2820000E+00 -0.1621619E-06
 0.2826000E+00 -0.1594139E-06
 0.2832000E+00 -0.1526714E-06
 0.2838000E+00 -0.1421603E-06
 0.2844000E+00 -0.1282521E-06
 0.2850000E+00 -0.1114333E-06
 0.2856000E+00 -0.9226655E-07
 0.2862000E+00 -0.7135183E-07
 0.2868000E+00 -0.4928539E-07
 0.2874000E+00 -0.2662541E-07
 0.2880000E+00 -0.3864223E-08
 0.2886000E+00  0.1859206E-07
 0.2892000E+00  0.4043167E-07
 0.2898000E+00  0.6143728E-07
 0.2904000E+00  0.8147851E-07
 0.2910000E+00  0.1004967E-06
 0.2916000E+00  0.1184870E-06
 0.2922000E+00  0.1354787E-06
 0.2928000E+00  0.1515190E-06
 0.2934000E+00  0.1666582E-06
 0.2940000E+00  0.1809418E-06
 0.2946000E+00  0.1944058E-06
 0.2952000E+00  0.2070785E-06
 0.2958000E+00  0.2189853E-06
 0.2964000E+00  0.2301540E-06
 0.2970000E+00  0.2406206E-06
 0.2976000E+00  0.2504321E-06
 0.2982000E+00  0.2596465E-06
 0.2988000E+00  0.2683275E-06
 0.2994000E+00  0.2765350E-06
 0.3000000E+00  0.2843132E-06
 0.3006000E+00  0.2916768E-06
 0.3012000E+00  0.2985982E-06
 0.3018000E+00  0.3049981E-06
 0.3024000E+00  0.3107409E-06
 0.3030000E+00  0.3156364E-06
 0.3036000E+00  0.3194492E-06
 0.3042000E+00  0.3219132E-06
 0.3048000E+00  0.3227525E-06
 0.3054000E+00  0.3217033E-06
 0.3060000E+00  0.3185373E-06
 0.3066000E+00  0.3130809E-06
 0.3072000E+00  0.3052309E-06
 0.3078000E+00  0.2949612E-06
 0.3084000E+00  0.2823230E-06
 0.3090000E+00  0.2674368E-06
 0.3096000E+00  0.2504777E-06
 0.3102000E+00  0.2316563E-06
 0.3108000E+00  0.2111977E-06
 0.3114000E+00  0.1893207E-06
 0.3120000E+00  0.1662204E-06
 0.3126000E+00  0.1420569E-06
 0.3132000E+00  0.1169496E-06
 0.3138000E+00  0.9097968E-07
 0.3144000E+00  0.6419874E-07
 0.3150000E+00  0.3664309E-07
 0.3156000E+00  0.8351715E-08
 0.3162000E+00 -0.2061488E-07
 0.3168000E+00 -0.5015675E-07
 0.3174000E+00 -0.8012037E-07
 0.3180000E+00 -0.1102897E-06
 0.3186000E+00 -0.1403840E-06
 0.3192000E+00 -0.1700622E-06
 0.3198000E+00 -0.1989347E-06
 0.3204000E+00 -0.2265806E-06
 0.3210000E+00 -0.2525686E-06
 0.3216000E+00 -0.2764806E-06
 0.3222000E+00 -0.2979345E-06
 0.3228000E+00 -0.3166040E-06
 0.3234000E+00 -0.3322344E-06
 0.3240000E+00 -0.3446511E-06
 0.3246000E+00 -0.3537620E-06
 0.3252000E+00 -0.3595516E-06
 0.3258000E+00 -0.3620688E-06
 0.3264000E+00 -0.3614103E-06
 0.3270000E+00 -0.3577002E-06
 0.3276000E+00 -0.3510690E-06
 0.3282000E+00 -0.3416359E-06
 0.3288000E+00 -0.3294942E-06
 0.3294000E+00 -0.3147041E-06
 0.3300000E+00 -0.2972920E-06
 0.3306000E+00 -0.2772582E-06
 0.3312000E+00 -0.2545908E-06
 0.3318000E+00 -0.2292847E-06
 0.3324000E+00 -0.2013640E-06
 0.3330000E+00 -0.1709027E-06
 0.3336000E+00 -0.1380434E-06
 0.3342000E+00 -0.1030113E-06
 0.3348000E+00 -0.6611842E-07
 0.3354000E+00 -0.2776312E-07
 0.3360000E+00  0.1158216E-07
 0.3366000E+00  0.5138803E-07
 0.3372000E+00  0.9109146E-07
 0.3378000E+00  0.1301231E-06
 0.3384000E+00  0.1679336E-06
 0.3390000E+00  0.2040194E-06
 0.3396000E+00  0.2379438E-06
 0.3402000E+00  0.2693518E-06
 0.3408000E+00  0.2979798E-06
 0.3414000E+00  0.3236575E-06
 0.3420000E+00  0.3463048E-06
 0.3426000E+00  0.3659224E-06
 0.3432000E+00  0.3825803E-06
 0.3438000E+00  0.3964030E-06
 0.3444000E+00  0.4075545E-06
 0.3450000E+00  0.4162234E-06
 0.3456000E+00  0.4226093E-06
 0.3462000E+00  0.4269107E-06
 0.3468000E+00  0.4293144E-06
 0.3474000E+00  0.4299872E-06
 0.3480000E+00  0.4290686E-06
 0.3486000E+00  0.4266649E-06
 0.3492000E+00  0.4228449E-06
 0.3498000E+00  0.4176364E-06
 0.3504000E+00  0.4110239E-06
 0.3510000E+00  0.4029482E-06
 0.3516000E+00  0.3933076E-06
 0.3522000E+00  0.3819618E-06
 0.3528000E+00  0.3687378E-06
 0.3534000E+00  0.3534392E-06
 0.3540000E+00  0.3358582E-06
 0.3546000E+00  0.3157909E-06
 0.3552000E+00  0.2930540E-06
 0.3558000E+00  0.2675038E-06
 0.3564000E+00  0.2390547E-06
 0.3570000E+00  0.2076981E-06
 0.3576000E+00  0.1735164E-06
 0.3582000E+00  0.1366949E-06
 0.3588000E+00  0.9752623E-07
 0.3594000E+00  0.5640861E-07
 0.3600000E+00  0.1383644E-07
 0.3606000E+00 -0.2961711E-07
 0.3612000E+00 -0.7332410E-07
 0.3618000E+00 -0.1166304E-06
 0.3624000E+00 -0.1588881E-06
 0.3630000E+00 -0.1994872E-06
 0.3636000E+00 -0.2378845E-06
 0.3642000E+00 -0.2736274E-06
 0.3648000E+00 -0.3063685E-06
 0.3654000E+00 -0.3358714E-06
 0.3660000E+00 -0.3620062E-06
 0.3666000E+00 -0.3847357E-06
 0.3672000E+00 -0.4040940E-06
 0.3678000E+00 -0.4201607E-06
 0.3684000E+00 -0.4330330E-06
 0.3690000E+00 -0.4428000E-06
 0.3696000E+00 -0.4495218E-06
 0.3702000E+00 -0.4532157E-06
 0.3708000E+00 -0.4538516E-06
 0.3714000E+00 -0.4513554E-06
 0.3720000E+00 -0.4456205E-06
 0.3726000E+00 -0.4365254E-06
 0.3732000E+00 -0.4239540E-06
 0.3738000E+00 -0.4078172E-06
 0.3744000E+00 -0.3880712E-06
 0.3750000E+00 -0.3647326E-06
 0.3756000E+00 -0.3378861E-06
 0.3762000E+00 -0.3076883E-06
 0.3768000E+00 -0.2743636E-06
 0.3774000E+00 -0.2381983E-06
 0.3780000E+00 -0.1995288E-06
 0.3786000E+00 -0.1587328E-06
 0.3792000E+00 -0.1162186E-06
 0.3798000E+00 -0.7241725E-07
 0.3804000E+00 -0.2777747E-07
 0.3810000E+00  0.1723689E-07
 0.3816000E+00  0.6214838E-07
 0.3822000E+00  0.1064676E-06
 0.3828000E+00  0.1496948E-06
 0.3834000E+00  0.1913257E-06
 0.3840000E+00  0.2308597E-06
 0.3846000E+00  0.2678134E-06
 0.3852000E+00  0.3017366E-06
 0.3858000E+00  0.3322320E-06
 0.3864000E+00  0.3589746E-06
 0.3870000E+00  0.3817320E-06
 0.3876000E+00  0.4003791E-06
 0.3882000E+00  0.4149084E-06
 0.3888000E+00  0.4254325E-06
 0.3894000E+00  0.4321772E-06
 0.3900000E+00  0.4354669E-06
 0.3906000E+00  0.4357003E-06
 0.3912000E+00  0.4333206E-06
 0.3918000E+00  0.4287804E-06
 0.3924000E+00  0.4225065E-06
 0.3930000E+00  0.4148651E-06
 0.3936000E+00  0.4061346E-06
 0.3942000E+00  0.3964851E-06
 0.3948000E+00  0.3859692E-06
 0.3954000E+00  0.3745248E-06
 0.3960000E+00  0.3619890E-06
 0.3966000E+00  0.3481231E-06
 0.3972000E+00  0.3326453E-06
 0.3978000E+00  0.3152683E-06
 0.3984000E+00  0.2957366E-06
 0.3990000E+00  0.2738619E-06
 0.3996000E+00  0.2495497E-06
 0.4002000E+00  0.2228172E-06
 0.4008000E+00  0.1937979E-06
 0.4014000E+00  0.1627351E-06
 0.4020000E+00  0.1299637E-06
 0.4026000E+00  0.9588355E-07
 0.4032000E+00  0.6092777E-07
 0.4038000E+00  0.2552976E-07
 0.4044000E+00 -0.9906168E-08
 0.4050000E+00 -0.4502841E-07
 0.4056000E+00 -0.7955123E-07
 0.4062000E+00 -0.1132582E-06
 0.4068000E+00 -0.1459942E-06
 0.4074000E+00 -0.1776496E-06
 0.4080000E+00 -0.2081368E-06
 0.4086000E+00 -0.2373659E-06
 0.4092000E+00 -0.2652197E-06
 0.4098000E+00 -0.2915348E-06
 0.4104000E+00 -0.3160899E-06
 0.4110000E+00 -0.3386034E-06
 0.4116000E+00 -0.3587419E-06
 0.4122000E+00 -0.3761362E-06
 0.4128000E+00 -0.3904065E-06
 0.4134000E+00 -0.4011904E-06
 0.4140000E+00 -0.4081725E-06
 0.4146000E+00 -0.4111119E-06
 0.4152000E+00 -0.4098633E-06
 0.4158000E+00 -0.4043907E-06
 0.4164000E+00 -0.3947727E-06
 0.4170000E+00 -0.3811968E-06
 0.4176000E+00 -0.3639461E-06
 0.4182000E+00 -0.3433789E-06
 0.4188000E+00 -0.3199031E-06
 0.4194000E+00 -0.2939496E-06
 0.4200000E+00 -0.2659458E-06
 0.4206000E+00 -0.2362940E-06
 0.4212000E+00 -0.2053544E-06
 0.4218000E+00 -0.1734365E-06
 0.4224000E+00 -0.1407977E-06
 0.4230000E+00 -0.1076496E-06
 0.4236000E+00 -0.7417009E-07
 0.4242000E+00 -0.4052076E-07
 0.4248000E+00 -0.6864306E-08
 0.4254000E+00  0.2661739E-07
 0.4260000E+00  0.5970949E-07
 0.4266000E+00  0.9215663E-07
 0.4272000E+00  0.1236624E-06
 0.4278000E+00  0.1538966E-06
 0.4284000E+00  0.1825106E-06
 0.4290000E+00  0.2091580E-06
 0.4296000E+00  0.2335192E-06
 0.4302000E+00  0.2553261E-06
 0.4308000E+00  0.2743844E-06
 0.4314000E+00  0.2905894E-06
 0.4320000E+00  0.3039328E-06
 0.4326000E+00  0.3145012E-06
 0.4332000E+00  0.3224622E-06
 0.4338000E+00  0.3280433E-06
 0.4344000E+00  0.3315028E-06
 0.4350000E+00  0.3330984E-06
 0.4356000E+00  0.3330557E-06
 0.4362000E+00  0.3315419E-06
 0.4368000E+00  0.3286480E-06
 0.4374000E+00  0.3243803E-06
 0.4380000E+00  0.3186653E-06
 0.4386000E+00  0.3113651E-06
 0.4392000E+00  0.3023027E-06
 0.4398000E+00  0.2912928E-06
 0.4404000E+00  0.2781767E-06
 0.4410000E+00  0.2628533E-06
 0.4416000E+00  0.2453052E-06
 0.4422000E+00  0.2256152E-06
 0.4428000E+00  0.2039713E-06
 0.4434000E+00  0.1806594E-06
 0.4440000E+00  0.1560451E-06
 0.4446000E+00  0.1305463E-06
 0.4452000E+00  0.1046001E-06
 0.4458000E+00  0.7862835E-07
 0.4464000E+00  0.5300491E-07
 0.4470000E+00  0.2803035E-07
 0.4476000E+00  0.3914594E-08
 0.4482000E+00 -0.1922847E-07
 0.4488000E+00 -0.4137580E-07
 0.4494000E+00 -0.6257901E-07
 0.4500000E+00 -0.8293968E-07
 0.4506000E+00 -0.1025804E-06
 0.4512000E+00 -0.1216128E-06
 0.4518000E+00 -0.1401101E-06
 0.4524000E+00 -0.1580835E-06
 0.4530000E+00 -0.1754682E-06
 0.4536000E+00 -0.1921206E-06
 0.4542000E+00 -0.2078250E-06
 0.4548000E+00 -0.2223119E-06
 0.4554000E+00 -0.2352830E-06
 0.4560000E+00 -0.2464411E-06
 0.4566000E+00 -0.2555219E-06
 0.4572000E+00 -0.2623215E-06
 0.4578000E+00 -0.2667178E-06
 0.4584000E+00 -0.2686824E-06
 0.4590000E+00 -0.2682803E-06
 0.4596000E+00 -0.2656595E-06
 0.4602000E+00 -0.2610286E-06
 0.4608000E+00 -0.2546287E-06
 0.4614000E+00 -0.2466995E-06
 0.4620000E+00 -0.2374479E-06
 0.4626000E+00 -0.2270204E-06
 0.4632000E+00 -0.2154844E-06
 0.4638000E+00 -0.2028217E-06
 0.4644000E+00 -0.1889350E-06
 0.4650000E+00 -0.1736662E-06
 0.4656000E+00 -0.1568255E-06
 0.4662000E+00 -0.1382282E-06
 0.4668000E+00 -0.1177325E-06
 0.4674000E+00 -0.9527628E-07
 0.4680000E+00 -0.7090612E-07
 0.4686000E+00 -0.4479577E-07
 0.4692000E+00 -0.1725146E-07
 0.4698000E+00  0.1129632E-07
 0.4704000E+00  0.4031487E-07
 0.4710000E+00  0.6920132E-07
 0.4716000E+00  0.9732145E-07
 0.4722000E+00  0.1240520E-06
 0.4728000E+00  0.1488207E-06
 0.4734000E+00  0.1711409E-06
 0.4740000E+00  0.1906372E-06
 0.4746000E+00  0.2070614E-06
 0.4752000E+00  0.2202963E-06
 0.4758000E+00  0.2303497E-06
 0.4764000E+00  0.2373397E-06
 0.4770000E+00  0.2414734E-06
 0.4776000E+00  0.2430228E-06
 0.4782000E+00  0.2422993E-06
 0.4788000E+00  0.2396301E-06
 0.4794000E+00  0.2353386E-06