-0.1200000E+00  0.0000000E+00
-0.1194000E+00  0.0000000E+00
-0.1188000E+00  0.0000000E+00
-0.1182000E+00  0.1003119E-15
-0.1176000E+00 -0.1337492E-15
-0.1170000E+00 -0.8024953E-15
-0.1164000E+00 -0.1604991E-14
-0.1158000E+00 -0.2139988E-14
-0.1152000E+00 -0.1069994E-14
-0.1146000E+00 -0.2139988E-14
-0.1140000E+00 -0.2139988E-14
-0.1134000E+00 -0.4279975E-14
-0.1128000E+00 -0.8559951E-14
-0.1122000E+00 -0.7813909E-13
-0.1116000E+00 -0.1434383E-12
-0.1110000E+00 -0.2654766E-12
-0.1104000E+00 -0.2611966E-12
-0.1098000E+00 -0.2504967E-12
-0.1092000E+00 -0.2349818E-12
-0.1086000E+00 -0.2216069E-12
-0.1080000E+00 -0.2098369E-12
-0.1074000E+00 -0.4367938E-12
-0.1068000E+00 -0.4196739E-12
-0.1062000E+00 -0.4025540E-12
-0.1056000E+00 -0.3854341E-12
-0.1050000E+00 -0.3683142E-12
-0.1044000E+00 -0.3683142E-12
-0.1038000E+00 -0.3511943E-12
-0.1032000E+00 -0.3511943E-12
-0.1026000E+00  0.1711990E-12
-0.1020000E+00  0.1711990E-12
-0.1014000E+00  0.1711990E-12
-0.1008000E+00  0.1711990E-12
-0.1002000E+00  0.1711990E-12
-0.9960000E-01  0.2054388E-12
-0.9900000E-01  0.2054388E-12
-0.9840000E-01  0.2226532E-11
-0.9780000E-01  0.2158053E-11
-0.9720000E-01  0.2089573E-11
-0.9660000E-01  0.2021094E-11
-0.9600000E-01  0.1952614E-11
-0.9540000E-01  0.1815655E-11
-0.9480000E-01  0.3562830E-11
-0.9420000E-01 -0.5478368E-12
-0.9360000E-01 -0.6847960E-12
-0.9300000E-01 -0.6847960E-12
-0.9240000E-01 -0.6847960E-12
-0.9180000E-01 -0.5478368E-12
-0.9120000E-01 -0.5478368E-12
-0.9060000E-01 -0.5478368E-12
-0.9000000E-01 -0.5478368E-12
-0.8940000E-01 -0.5478368E-12
-0.8880000E-01 -0.5478368E-12
-0.8820000E-01 -0.2739184E-12
-0.8760000E-01  0.0000000E+00
-0.8700000E-01 -0.1507307E-10
-0.8640000E-01 -0.3014615E-10
-0.8580000E-01 -0.2905048E-10
-0.8520000E-01 -0.2795480E-10
-0.8460000E-01 -0.2631129E-10
-0.8400000E-01 -0.2576346E-10
-0.8340000E-01 -0.2466778E-10
-0.8280000E-01 -0.2466778E-10
-0.8220000E-01 -0.2357211E-10
-0.8160000E-01 -0.2357211E-10
-0.8100000E-01 -0.2466778E-10
-0.8040000E-01 -0.2576346E-10
-0.7980000E-01 -0.2685913E-10
-0.7920000E-01 -0.2685913E-10
-0.7860000E-01 -0.2685913E-10
-0.7800000E-01  0.6574042E-11
-0.7740000E-01  0.6574042E-11
-0.7680000E-01  0.6574042E-11
-0.7620000E-01  0.6905769E-10
-0.7560000E-01  0.6905769E-10
-0.7500000E-01  0.6905769E-10
-0.7440000E-01  0.6686634E-10
-0.7380000E-01  0.1293500E-09
-0.7320000E-01  0.1249673E-09
-0.7260000E-01  0.1205846E-09
-0.7200000E-01  0.1118192E-09
-0.7140000E-01  0.1030538E-09
-0.7080000E-01  0.8990574E-10
-0.7020000E-01  0.8114035E-10
-0.6960000E-01  0.7237496E-10
-0.6900000E-01  0.6360957E-10
-0.6840000E-01  0.6360957E-10
-0.6780000E-01  0.6360957E-10
-0.6720000E-01  0.6360957E-10
-0.6660000E-01  0.6360957E-10
-0.6600000E-01 -0.6135772E-10
-0.6540000E-01 -0.5259233E-10
-0.6480000E-01 -0.4382695E-10
-0.6420000E-01 -0.3506156E-10
-0.6360000E-01 -0.3506156E-10
-0.6300000E-01 -0.2674654E-09
-0.6240000E-01 -0.2499346E-09
-0.6180000E-01 -0.2324038E-09
-0.6120000E-01 -0.2324038E-09
-0.6060000E-01 -0.2148730E-09
-0.6000000E-01 -0.1973423E-09
-0.5940000E-01  0.8765389E-10
-0.5880000E-01  0.1227154E-09
-0.5820000E-01  0.1402462E-09
-0.5760000E-01  0.1402462E-09
-0.5700000E-01  0.1051847E-09
-0.5640000E-01  0.1051847E-09
-0.5580000E-01  0.7012312E-10
-0.5520000E-01  0.3506156E-10
-0.5460000E-01  0.0000000E+00
-0.5400000E-01 -0.3506156E-10
-0.5340000E-01 -0.3506156E-10
-0.5280000E-01 -0.3506156E-10
-0.5220000E-01 -0.3506156E-10
-0.5160000E-01 -0.3506156E-10
-0.5100000E-01 -0.3506156E-10
-0.5040000E-01 -0.7012312E-10
-0.4980000E-01  0.0000000E+00
-0.4920000E-01  0.7012312E-10
-0.4860000E-01  0.1402462E-09
-0.4800000E-01  0.1402462E-09
-0.4740000E-01  0.1402462E-09
-0.4680000E-01  0.1402462E-09
-0.4620000E-01  0.7012312E-10
-0.4560000E-01  0.7012312E-10
-0.4500000E-01  0.7012312E-10
-0.4440000E-01  0.0000000E+00
-0.4380000E-01 -0.7012312E-10
-0.4320000E-01 -0.1402462E-09
-0.4260000E-01 -0.1402462E-09
-0.4200000E-01 -0.2103693E-09
-0.4140000E-01 -0.2103693E-09
-0.4080000E-01 -0.1402462E-09
-0.4020000E-01 -0.7012312E-10
-0.3960000E-01 -0.7012312E-10
-0.3900000E-01  0.0000000E+00
-0.3840000E-01  0.0000000E+00
-0.3780000E-01  0.1402462E-09
-0.3720000E-01  0.1402462E-09
-0.3660000E-01  0.1402462E-09
-0.3600000E-01  0.1402462E-09
-0.3540000E-01  0.1402462E-09
-0.3480000E-01 -0.8594921E-09
-0.3420000E-01 -0.9997383E-09
-0.3360000E-01 -0.1139985E-08
-0.3300000E-01 -0.1139985E-08
-0.3240000E-01 -0.1139985E-08
-0.3180000E-01 -0.1402462E-09
-0.3120000E-01 -0.2804925E-09
-0.3060000E-01 -0.2804925E-09
-0.3000000E-01 -0.1402462E-09
-0.2940000E-01 -0.1402462E-09
-0.2880000E-01 -0.1402462E-09
-0.2820000E-01 -0.1402462E-09
-0.2760000E-01  0.8594921E-09
-0.2700000E-01  0.8594921E-09
-0.2640000E-01  0.9997383E-09
-0.2580000E-01  0.1139985E-08
-0.2520000E-01  0.1280231E-08
-0.2460000E-01  0.7102385E-09
-0.2400000E-01  0.1402462E-09
-0.2340000E-01 -0.4998691E-09
-0.2280000E-01 -0.1139985E-08
-0.2220000E-01 -0.1709977E-08
-0.2160000E-01 -0.1780100E-08
-0.2100000E-01 -0.1850223E-08
-0.2040000E-01 -0.1600288E-08
-0.1980000E-01 -0.1092780E-08
-0.1920000E-01 -0.5776318E-09
-0.1860000E-01  0.0000000E+00
-0.1800000E-01  0.6050538E-09
-0.1740000E-01  0.1210108E-08
-0.1680000E-01  0.1780100E-08
-0.1620000E-01  0.2315031E-08
-0.1560000E-01  0.2762307E-08
-0.1500000E-01  0.3148227E-08
-0.1440000E-01  0.2959771E-08
-0.1380000E-01  0.1727750E-08
-0.1320000E-01  0.1526146E-08
-0.1260000E-01  0.1333307E-08
-0.1200000E-01  0.1582610E-09
-0.1140000E-01  0.5307633E-10
-0.1080000E-01 -0.1051847E-08
-0.1020000E-01 -0.1051847E-08
-0.9600000E-02 -0.1051847E-08
-0.9000000E-02 -0.9817236E-09
-0.8400000E-02 -0.8414773E-09
-0.7800000E-02 -0.7012311E-09
-0.7200000E-02 -0.4207387E-09
-0.6600000E-02 -0.1402462E-09
-0.6000000E-02  0.1402462E-09
-0.5400000E-02  0.4207387E-09
-0.4800000E-02  0.5609849E-09
-0.4200000E-02  0.7012311E-09
-0.3600000E-02  0.8414773E-09
-0.3000000E-02  0.9817236E-09
-0.2400000E-02 -0.7372607E-09
-0.1800000E-02 -0.5970144E-09
-0.1200000E-02 -0.2596491E-08
-0.6000000E-03 -0.4595968E-08
 0.0000000E+00 -0.4315476E-08
 0.6000000E-03 -0.3754490E-08
 0.1200000E-02 -0.3193506E-08
 0.1800000E-02 -0.2352028E-08
 0.2400000E-02 -0.1510551E-08
 0.3000000E-02 -0.6690735E-09
 0.3600000E-02  0.2171880E-08
 0.4200000E-02  0.3013358E-08
 0.4800000E-02  0.1855359E-08
 0.5400000E-02  0.2696836E-08
 0.6000000E-02  0.3538313E-08
 0.6600000E-02  0.4940775E-08
 0.7200000E-02  0.4343761E-08
 0.7800000E-02  0.4027239E-08
 0.8400000E-02  0.1711240E-08
 0.9000000E-02 -0.4377345E-10
 0.9600000E-02 -0.1798787E-08
 0.1020000E-01 -0.4992293E-08
 0.1080000E-01 -0.5625337E-08
 0.1140000E-01 -0.7977365E-08
 0.1200000E-01 -0.9768408E-08
 0.1260000E-01 -0.1327844E-07
 0.1320000E-01 -0.1622748E-07
 0.1380000E-01 -0.1861554E-07
 0.1440000E-01 -0.2444156E-07
 0.1500000E-01 -0.2970660E-07
 0.1560000E-01 -0.3413017E-07
 0.1620000E-01 -0.3885224E-07
 0.1680000E-01 -0.4459206E-07
 0.1740000E-01 -0.4935016E-07
 0.1800000E-01 -0.5512602E-07
 0.1860000E-01 -0.6077964E-07
 0.1920000E-01 -0.6803002E-07
 0.1980000E-01 -0.7487767E-07
 0.2040000E-01 -0.8232233E-07
 0.2100000E-01 -0.9044314E-07
 0.2160000E-01 -0.1002398E-06
 0.2220000E-01 -0.1115722E-06
 0.2280000E-01 -0.1241596E-06
 0.2340000E-01 -0.1386118E-06
 0.2400000E-01 -0.1548829E-06
 0.2460000E-01 -0.1732852E-06
 0.2520000E-01 -0.1940616E-06
 0.2580000E-01 -0.2174862E-06
 0.2640000E-01 -0.2437083E-06
 0.2700000E-01 -0.2729316E-06
 0.2760000E-01 -0.3057503E-06
 0.2820000E-01 -0.3426535E-06
 0.2880000E-01 -0.3835055E-06
 0.2940000E-01 -0.4284556E-06
 0.3000000E-01 -0.4786176E-06
 0.3060000E-01 -0.5340444E-06
 0.3120000E-01 -0.5957360E-06
 0.3180000E-01 -0.6637342E-06
 0.3240000E-01 -0.7379846E-06
 0.3300000E-01 -0.8189455E-06
 0.3360000E-01 -0.9080315E-06
 0.3420000E-01 -0.1004646E-05
 0.3480000E-01 -0.1110123E-05
 0.3540000E-01 -0.1224761E-05
 0.3600000E-01 -0.1349823E-05
 0.3660000E-01 -0.1486607E-05
 0.3720000E-01 -0.1635377E-05
 0.3780000E-01 -0.1797325E-05
 0.3840000E-01 -0.1973610E-05
 0.3900000E-01 -0.2165389E-05
 0.3960000E-01 -0.2373892E-05
 0.4020000E-01 -0.2600135E-05
 0.4080000E-01 -0.2846206E-05
 0.4140000E-01 -0.3112334E-05
 0.4200000E-01 -0.3400465E-05
 0.4260000E-01 -0.3712618E-05
 0.4320000E-01 -0.4049740E-05
 0.4380000E-01 -0.4413919E-05
 0.4440000E-01 -0.4805962E-05
 0.4500000E-01 -0.5228816E-05
 0.4560000E-01 -0.5682429E-05
 0.4620000E-01 -0.6168538E-05
 0.4680000E-01 -0.6689301E-05
 0.4740000E-01 -0.7247735E-05
 0.4800000E-01 -0.7843577E-05
 0.4860000E-01 -0.8480126E-05
 0.4920000E-01 -0.9159257E-05
 0.4980000E-01 -0.9881412E-05
 0.5040000E-01 -0.1065075E-04
 0.5100000E-01 -0.1146870E-04
 0.5160000E-01 -0.1233657E-04
 0.5220000E-01 -0.1325679E-04
 0.5280000E-01 -0.1423194E-04
 0.5340000E-01 -0.1526261E-04
 0.5400000E-01 -0.1635130E-04
 0.5460000E-01 -0.1749865E-04
 0.5520000E-01 -0.1870754E-04
 0.5580000E-01 -0.1997895E-04
 0.5640000E-01 -0.2131290E-04
 0.5700000E-01 -0.2271107E-04
 0.5760000E-01 -0.2417455E-04
 0.5820000E-01 -0.2570382E-04
 0.5880000E-01 -0.2729936E-04
 0.5940000E-01 -0.2896229E-04
 0.6000000E-01 -0.3069195E-04
 0.6060000E-01 -0.3248896E-04
 0.6120000E-01 -0.3435326E-04
 0.6180000E-01 -0.3628397E-04
 0.6240000E-01 -0.3827961E-04
 0.6300000E-01 -0.4033936E-04
 0.6360000E-01 -0.4246222E-04
 0.6420000E-01 -0.4464485E-04
 0.6480000E-01 -0.4688540E-04
 0.6540000E-01 -0.4918002E-04
 0.6600000E-01 -0.5152492E-04
 0.6660000E-01 -0.5391563E-04
 0.6720000E-01 -0.5634716E-04
 0.6780000E-01 -0.5881355E-04
 0.6840000E-01 -0.6130826E-04
 0.6900000E-01 -0.6382430E-04
 0.6960000E-01 -0.6635417E-04
 0.7020000E-01 -0.6888937E-04
 0.7080000E-01 -0.7142120E-04
 0.7140000E-01 -0.7394033E-04
 0.7200000E-01 -0.7643648E-04
 0.7260000E-01 -0.7889906E-04
 0.7320000E-01 -0.8131700E-04
 0.7380000E-01 -0.8367876E-04
 0.7440000E-01 -0.8597188E-04
 0.7500000E-01 -0.8818369E-04
 0.7560000E-01 -0.9030067E-04
 0.7620000E-01 -0.9230918E-04
 0.7680000E-01 -0.9419473E-04
 0.7740000E-01 -0.9594262E-04
 0.7800000E-01 -0.9753768E-04
 0.7860000E-01 -0.9896438E-04
 0.7920000E-01 -0.1002069E-03
 0.7980000E-01 -0.1012493E-03
 0.8040000E-01 -0.1020755E-03
 0.8100000E-01 -0.1026693E-03
 0.8160000E-01 -0.1030147E-03
 0.8220000E-01 -0.1030954E-03
 0.8280000E-01 -0.1028954E-03
 0.8340000E-01 -0.1023990E-03
 0.8400000E-01 -0.1015904E-03
 0.8460000E-01 -0.1004544E-03
 0.8520000E-01 -0.9897604E-04
 0.8580000E-01 -0.9714095E-04
 0.8640000E-01 -0.9493524E-04
 0.8700000E-01 -0.9234583E-04
 0.8760000E-01 -0.8936048E-04
 0.8820000E-01 -0.8596799E-04
 0.8880000E-01 -0.8215825E-04
 0.8940000E-01 -0.7792250E-04
 0.9000000E-01 -0.7325358E-04
 0.9060000E-01 -0.6814580E-04
 0.9120000E-01 -0.6259533E-04
 0.9180000E-01 -0.5660011E-04
 0.9240000E-01 -0.5016016E-04
 0.9300000E-01 -0.4327751E-04
 0.9360000E-01 -0.3595627E-04
 0.9420000E-01 -0.2820272E-04
 0.9480000E-01 -0.2002536E-04
 0.9540000E-01 -0.1143488E-04
 0.9600000E-01 -0.2444222E-05
 0.9660000E-01  0.6931587E-05
 0.9720000E-01  0.1667525E-04
 0.9780000E-01  0.2676732E-04
 0.9840000E-01  0.3718626E-04
 0.9900000E-01  0.4790842E-04
 0.9960000E-01  0.5890807E-04
 0.1002000E+00  0.7015748E-04
 0.1008000E+00  0.8162695E-04
 0.1014000E+00  0.9328481E-04
 0.1020000E+00  0.1050975E-03
 0.1026000E+00  0.1170297E-03
 0.1032000E+00  0.1290443E-03
 0.1038000E+00  0.1411026E-03
 0.1044000E+00  0.1531644E-03
 0.1050000E+00  0.1651878E-03
 0.1056000E+00  0.1771300E-03
 0.1062000E+00  0.1889469E-03
 0.1068000E+00  0.2005935E-03
 0.1074000E+00  0.2120240E-03
 0.1080000E+00  0.2231921E-03
 0.1086000E+00  0.2340511E-03
 0.1092000E+00  0.2445544E-03
 0.1098000E+00  0.2546552E-03
 0.1104000E+00  0.2643072E-03
 0.1110000E+00  0.2734648E-03
 0.1116000E+00  0.2820831E-03
 0.1122000E+00  0.2901185E-03
 0.1128000E+00  0.2975286E-03
 0.1134000E+00  0.3042727E-03
 0.1140000E+00  0.3103121E-03
 0.1146000E+00  0.3156105E-03
 0.1152000E+00  0.3201338E-03
 0.1158000E+00  0.3238507E-03
 0.1164000E+00  0.3267328E-03
 0.1170000E+00  0.3287551E-03
 0.1176000E+00  0.3298957E-03
 0.1182000E+00  0.3301363E-03
 0.1188000E+00  0.3294621E-03
 0.1194000E+00  0.3278622E-03
 0.1200000E+00  0.3253293E-03
 0.1206000E+00  0.3218601E-03
 0.1212000E+00  0.3174550E-03
 0.1218000E+00  0.3121185E-03
 0.1224000E+00  0.3058588E-03
 0.1230000E+00  0.2986880E-03
 0.1236000E+00  0.2906221E-03
 0.1242000E+00  0.2816808E-03
 0.1248000E+00  0.2718873E-03
 0.1254000E+00  0.2612688E-03
 0.1260000E+00  0.2498555E-03
 0.1266000E+00  0.2376813E-03
 0.1272000E+00  0.2247834E-03
 0.1278000E+00  0.2112019E-03
 0.1284000E+00  0.1969800E-03
 0.1290000E+00  0.1821638E-03
 0.1296000E+00  0.1668020E-03
 0.1302000E+00  0.1509458E-03
 0.1308000E+00  0.1346486E-03
 0.1314000E+00  0.1179660E-03
 0.1320000E+00  0.1009555E-03
 0.1326000E+00  0.8367626E-04
 0.1332000E+00  0.6618872E-04
 0.1338000E+00  0.4855450E-04
 0.1344000E+00  0.3083593E-04
 0.1350000E+00  0.1309582E-04
 0.1356000E+00 -0.4602895E-05
 0.1362000E+00 -0.2219750E-04
 0.1368000E+00 -0.3962590E-04
 0.1374000E+00 -0.5682694E-04
 0.1380000E+00 -0.7374070E-04
 0.1386000E+00 -0.9030902E-04
 0.1392000E+00 -0.1064756E-03
 0.1398000E+00 -0.1221864E-03
 0.1404000E+00 -0.1373900E-03
 0.1410000E+00 -0.1520378E-03
 0.1416000E+00 -0.1660842E-03
 0.1422000E+00 -0.1794868E-03
 0.1428000E+00 -0.1922067E-03
 0.1434000E+00 -0.2042086E-03
 0.1440000E+00 -0.2154608E-03
 0.1446000E+00 -0.2259354E-03
 0.1452000E+00 -0.2356081E-03
 0.1458000E+00 -0.2444587E-03
 0.1464000E+00 -0.2524707E-03
 0.1470000E+00 -0.2596311E-03
 0.1476000E+00 -0.2659310E-03
 0.1482000E+00 -0.2713651E-03
 0.1488000E+00 -0.2759314E-03
 0.1494000E+00 -0.2796316E-03
 0.1500000E+00 -0.2824708E-03
 0.1506000E+00 -0.2844574E-03
 0.1512000E+00 -0.2856030E-03
 0.1518000E+00 -0.2859222E-03
 0.1524000E+00 -0.2854325E-03
 0.1530000E+00 -0.2841542E-03
 0.1536000E+00 -0.2821102E-03
 0.1542000E+00 -0.2793259E-03
 0.1548000E+00 -0.2758291E-03
 0.1554000E+00 -0.2716497E-03
 0.1560000E+00 -0.2668196E-03
 0.1566000E+00 -0.2613727E-03
 0.1572000E+00 -0.2553442E-03
 0.1578000E+00 -0.2487714E-03
 0.1584000E+00 -0.2416924E-03
 0.1590000E+00 -0.2341469E-03
 0.1596000E+00 -0.2261754E-03
 0.1602000E+00 -0.2178192E-03
 0.1608000E+00 -0.2091203E-03
 0.1614000E+00 -0.2001210E-03
 0.1620000E+00 -0.1908636E-03
 0.1626000E+00 -0.1813904E-03
 0.1632000E+00 -0.1717434E-03
 0.1638000E+00 -0.1619640E-03
 0.1644000E+00 -0.1520926E-03
 0.1650000E+00 -0.1421686E-03
 0.1656000E+00 -0.1322304E-03
 0.1662000E+00 -0.1223145E-03
 0.1668000E+00 -0.1124562E-03
 0.1674000E+00 -0.1026888E-03
 0.1680000E+00 -0.9304379E-04
 0.1686000E+00 -0.8355062E-04
 0.1692000E+00 -0.7423676E-04
 0.1698000E+00 -0.6512752E-04
 0.1704000E+00 -0.5624611E-04
 0.1710000E+00 -0.4761356E-04
 0.1716000E+00 -0.3924880E-04
 0.1722000E+00 -0.3116856E-04
 0.1728000E+00 -0.2338760E-04
 0.1734000E+00 -0.1591857E-04
 0.1740000E+00 -0.8772216E-05
 0.1746000E+00 -0.1957328E-05
 0.1752000E+00  0.4519080E-05
 0.1758000E+00  0.1065175E-04
 0.1764000E+00  0.1643713E-04
 0.1770000E+00  0.2187323E-04
 0.1776000E+00  0.2695957E-04
 0.1782000E+00  0.3169711E-04
 0.1788000E+00  0.3608810E-04
 0.1794000E+00  0.4013608E-04
 0.1800000E+00  0.4384571E-04
 0.1806000E+00  0.4722272E-04
 0.1812000E+00  0.5027373E-04
 0.1818000E+00  0.5300625E-04
 0.1824000E+00  0.5542858E-04
 0.1830000E+00  0.5754966E-04
 0.1836000E+00  0.5937904E-04
 0.1842000E+00  0.6092683E-04
 0.1848000E+00  0.6220360E-04
 0.1854000E+00  0.6322040E-04
 0.1860000E+00  0.6398864E-04
 0.1866000E+00  0.6452011E-04
 0.1872000E+00  0.6482693E-04
 0.1878000E+00  0.6492149E-04
 0.1884000E+00  0.6481638E-04
 0.1890000E+00  0.6452438E-04
 0.1896000E+00  0.6405838E-04
 0.1902000E+00  0.6343130E-04
 0.1908000E+00  0.6265601E-04
 0.1914000E+00  0.6174528E-04
 0.1920000E+00  0.6071170E-04
 0.1926000E+00  0.5956764E-04
 0.1932000E+00  0.5832513E-04
 0.1938000E+00  0.5699590E-04
 0.1944000E+00  0.5559123E-04
 0.1950000E+00  0.5412205E-04
 0.1956000E+00  0.5259874E-04
 0.1962000E+00  0.5103127E-04
 0.1968000E+00  0.4942908E-04
 0.1974000E+00  0.4780108E-04
 0.1980000E+00  0.4615565E-04
 0.1986000E+00  0.4450061E-04
 0.1992000E+00  0.4284320E-04
 0.1998000E+00  0.4119009E-04
 0.2004000E+00  0.3954734E-04
 0.2010000E+00  0.3792044E-04
 0.2016000E+00  0.3631425E-04
 0.2022000E+00  0.3473307E-04
 0.2028000E+00  0.3318062E-04
 0.2034000E+00  0.3166005E-04
 0.2040000E+00  0.3017397E-04
 0.2046000E+00  0.2872451E-04
 0.2052000E+00  0.2731330E-04
 0.2058000E+00  0.2594157E-04
 0.2064000E+00  0.2461019E-04
 0.2070000E+00  0.2331970E-04
 0.2076000E+00  0.2207040E-04
 0.2082000E+00  0.2086240E-04
 0.2088000E+00  0.1969565E-04
 0.2094000E+00  0.1857004E-04
 0.2100000E+00  0.1748544E-04
 0.2106000E+00  0.1644168E-04
 0.2112000E+00  0.1543861E-04
 0.2118000E+00  0.1447612E-04
 0.2124000E+00  0.1355411E-04
 0.2130000E+00  0.1267247E-04
 0.2136000E+00  0.1183109E-04
 0.2142000E+00  0.1102980E-04
 0.2148000E+00  0.1026836E-04
 0.2154000E+00  0.9546449E-05
 0.2160000E+00  0.8863614E-05
 0.2166000E+00  0.8219290E-05
 0.2172000E+00  0.7612777E-05
 0.2178000E+00  0.7043246E-05
 0.2184000E+00  0.6509743E-05
 0.2190000E+00  0.6011198E-05
 0.2196000E+00  0.5546434E-05
 0.2202000E+00  0.5114174E-05
 0.2208000E+00  0.4713048E-05
 0.2214000E+00  0.4341606E-05
 0.2220000E+00  0.3998318E-05
 0.2226000E+00  0.3681586E-05
 0.2232000E+00  0.3389754E-05
 0.2238000E+00  0.3121124E-05
 0.2244000E+00  0.2873970E-05
 0.2250000E+00  0.2646567E-05
 0.2256000E+00  0.2437210E-05
 0.2262000E+00  0.2244246E-05
 0.2268000E+00  0.2066099E-05
 0.2274000E+00  0.1901298E-05
 0.2280000E+00  0.1748497E-05
 0.2286000E+00  0.1606493E-05
 0.2292000E+00  0.1474236E-05
 0.2298000E+00  0.1350833E-05
 0.2304000E+00  0.1235545E-05
 0.2310000E+00  0.1127780E-05
 0.2316000E+00  0.1027075E-05
 0.2322000E+00  0.9330852E-06
 0.2328000E+00  0.8455572E-06
 0.2334000E+00  0.7643098E-06
 0.2340000E+00  0.6892102E-06
 0.2346000E+00  0.6201511E-06
 0.2352000E+00  0.5570282E-06
 0.2358000E+00  0.4997220E-06
 0.2364000E+00  0.4480799E-06
 0.2370000E+00  0.4019074E-06
 0.2376000E+00  0.3609589E-06
 0.2382000E+00  0.3249385E-06
 0.2388000E+00  0.2935064E-06
 0.2394000E+00  0.2662869E-06
 0.2400000E+00  0.2428837E-06
 0.2406000E+00  0.2228976E-06
 0.2412000E+00  0.2059421E-06
 0.2418000E+00  0.1916599E-06
 0.2424000E+00  0.1797331E-06
 0.2430000E+00  0.1698930E-06
 0.2436000E+00  0.1619185E-06
 0.2442000E+00  0.1556357E-06
 0.2448000E+00  0.1509081E-06
 0.2454000E+00  0.1476267E-06
 0.2460000E+00  0.1456982E-06
 0.2466000E+00  0.1450330E-06
 0.2472000E+00  0.1455376E-06
 0.2478000E+00  0.1471071E-06
 0.2484000E+00  0.1496220E-06
 0.2490000E+00  0.1529475E-06
 0.2496000E+00  0.1569334E-06
 0.2502000E+00  0.1614170E-06
 0.2508000E+00  0.1662247E-06
 0.2514000E+00  0.1711707E-06
 0.2520000E+00  0.1760575E-06
 0.2526000E+00  0.1806743E-06
 0.2532000E+00  0.1847966E-06
 0.2538000E+00  0.1881869E-06
 0.2544000E+00  0.1905986E-06
 0.2550000E+00  0.1917832E-06
 0.2556000E+00  0.1915023E-06
 0.2562000E+00  0.1895429E-06
 0.2568000E+00  0.1857340E-06
 0.2574000E+00  0.1799653E-06
 0.2580000E+00  0.1722038E-06
 0.2586000E+00  0.1625053E-06
 0.2592000E+00  0.1510220E-06
 0.2598000E+00  0.1380013E-06
 0.2604000E+00  0.1237776E-06
 0.2610000E+00  0.1087574E-06
 0.2616000E+00  0.9339711E-07
 0.2622000E+00  0.7817845E-07
 0.2628000E+00  0.6358032E-07
 0.2634000E+00  0.5005139E-07
 0.2640000E+00  0.3798571E-07
 0.2646000E+00  0.2770108E-07
 0.2652000E+00  0.1942287E-07
 0.2658000E+00  0.1327281E-07
 0.2664000E+00  0.9263422E-08
 0.2670000E+00  0.7297299E-08
 0.2676000E+00  0.7171590E-08
 0.2682000E+00  0.8586716E-08
 0.2688000E+00  0.1115930E-07
 0.2694000E+00  0.1443932E-07
 0.2700000E+00  0.1793055E-07
 0.2706000E+00  0.2111444E-07
 0.2712000E+00  0.2347648E-07
 0.2718000E+00  0.2453361E-07
 0.2724000E+00  0.2386223E-07
 0.2730000E+00  0.2112397E-07
 0.2736000E+00  0.1608804E-07
 0.2742000E+00  0.8648828E-08
 0.2748000E+00 -0.1163846E-08
 0.2754000E+00 -0.1318212E-07
 0.2760000E+00 -0.2710466E-07
 0.2766000E+00 -0.4251007E-07
 0.2772000E+00 -0.5887680E-07
 0.2778000E+00 -0.7560821E-07
 0.2784000E+00 -0.9206149E-07
 0.2790000E+00 -0.1075793E-06
 0.2796000E+00 -0.1215208E-06
 0.2802000E+00 -0.1332911E-06
 0.2808000E+00 -0.1423691E-06
 0.2814000E+00 -0.1483300E-06
 0.2820000E+00 -0.1508645E-06
 0.2826000E+00 -0.1497908E-06
 0.2832000E+00 -0.1450622E-06
 0.2838000E+00 -0.1367668E-06
 0.2844000E+00 -0.1251211E-06
 0.2850000E+00 -0.1104574E-06
 0.2856000E+00 -0.9320298E-07
 0.2862000E+00 -0.7385718E-07
 0.2868000E+00 -0.5296150E-07
 0.2874000E+00 -0.3106942E-07
 0.2880000E+00 -0.8717189E-08
 0.2886000E+00  0.1360431E-07
 0.2892000E+00  0.3547100E-07
 0.2898000E+00  0.5654161E-07
 0.2904000E+00  0.7656524E-07
 0.2910000E+00  0.9538099E-07
 0.2916000E+00  0.1129116E-06
 0.2922000E+00  0.1291503E-06
 0.2928000E+00  0.1441450E-06
 0.2934000E+00  0.1579818E-06
 0.2940000E+00  0.1707690E-06
 0.2946000E+00  0.1826246E-06
 0.2952000E+00  0.1936672E-06
 0.2958000E+00  0.2040106E-06
 0.2964000E+00  0.2137616E-06
 0.2970000E+00  0.2230202E-06
 0.2976000E+00  0.2318795E-06
 0.2982000E+00  0.2404243E-06
 0.2988000E+00  0.2487275E-06
 0.2994000E+00  0.2568443E-06
 0.3000000E+00  0.2648041E-06
 0.3006000E+00  0.2726002E-06
 0.3012000E+00  0.2801813E-06
 0.3018000E+00  0.2874450E-06
 0.3024000E+00  0.2942351E-06
 0.3030000E+00  0.3003440E-06
 0.3036000E+00  0.3055212E-06
 0.3042000E+00  0.3094870E-06
 0.3048000E+00  0.3119496E-06
 0.3054000E+00  0.3126256E-06
 0.3060000E+00  0.3112598E-06
 0.3066000E+00  0.3076429E-06
 0.3072000E+00  0.3016253E-06
 0.3078000E+00  0.2931261E-06
 0.3084000E+00  0.2821354E-06
 0.3090000E+00  0.2687118E-06
 0.3096000E+00  0.2529745E-06
 0.3102000E+00  0.2350920E-06
 0.3108000E+00  0.2152687E-06
 0.3114000E+00  0.1937312E-06
 0.3120000E+00  0.1707145E-06
 0.3126000E+00  0.1464512E-06
 0.3132000E+00  0.1211622E-06
 0.3138000E+00  0.9505003E-07
 0.3144000E+00  0.6829619E-07
 0.3150000E+00  0.4106028E-07
 0.3156000E+00  0.1348236E-07
 0.3162000E+00 -0.1431222E-07
 0.3168000E+00 -0.4220618E-07
 0.3174000E+00 -0.7008168E-07
 0.3180000E+00 -0.9781121E-07
 0.3186000E+00 -0.1252484E-06
 0.3192000E+00 -0.1522201E-06
 0.3198000E+00 -0.1785208E-06
 0.3204000E+00 -0.2039105E-06
 0.3210000E+00 -0.2281175E-06
 0.3216000E+00 -0.2508447E-06
 0.3222000E+00 -0.2717821E-06
 0.3228000E+00 -0.2906210E-06
 0.3234000E+00 -0.3070722E-06
 0.3240000E+00 -0.3208819E-06
 0.3246000E+00 -0.3318472E-06
 0.3252000E+00 -0.3398261E-06
 0.3258000E+00 -0.3447419E-06
 0.3264000E+00 -0.3465809E-06
 0.3270000E+00 -0.3453834E-06
 0.3276000E+00 -0.3412292E-06
 0.3282000E+00 -0.3342198E-06
 0.3288000E+00 -0.3244606E-06
 0.3294000E+00 -0.3120441E-06
 0.3300000E+00 -0.2970383E-06
 0.3306000E+00 -0.2794826E-06
 0.3312000E+00 -0.2593899E-06
 0.3318000E+00 -0.2367566E-06
 0.3324000E+00 -0.2115802E-06
 0.3330000E+00 -0.1838787E-06
 0.3336000E+00 -0.1537135E-06
 0.3342000E+00 -0.1212090E-06
 0.3348000E+00 -0.8656961E-07
 0.3354000E+00 -0.5008912E-07
 0.3360000E+00 -0.1215239E-07
 0.3366000E+00  0.2677123E-07
 0.3372000E+00  0.6614226E-07
 0.3378000E+00  0.1053723E-06
 0.3384000E+00  0.1438502E-06
 0.3390000E+00  0.1809715E-06
 0.3396000E+00  0.2161680E-06
 0.3402000E+00  0.2489357E-06
 0.3408000E+00  0.2788594E-06
 0.3414000E+00  0.3056319E-06
 0.3420000E+00  0.3290669E-06
 0.3426000E+00  0.3491043E-06
 0.3432000E+00  0.3658067E-06
 0.3438000E+00  0.3793489E-06
 0.3444000E+00  0.3899993E-06
 0.3450000E+00  0.3980945E-06
 0.3456000E+00  0.4040096E-06
 0.3462000E+00  0.4081252E-06
 0.3468000E+00  0.4107946E-06
 0.3474000E+00  0.4123140E-06
 0.3480000E+00  0.4128973E-06
 0.3486000E+00  0.4126592E-06
 0.3492000E+00  0.4116073E-06
 0.3498000E+00  0.4096445E-06
 0.3504000E+00  0.4065808E-06
 0.3510000E+00  0.4021534E-06
 0.3516000E+00  0.3960527E-06
 0.3522000E+00  0.3879514E-06
 0.3528000E+00  0.3775329E-06
 0.3534000E+00  0.3645176E-06
 0.3540000E+00  0.3486835E-06
 0.3546000E+00  0.3298796E-06
 0.3552000E+00  0.3080333E-06
 0.3558000E+00  0.2831509E-06
 0.3564000E+00  0.2553131E-06
 0.3570000E+00  0.2246679E-06
 0.3576000E+00  0.1914217E-06
 0.3582000E+00  0.1558314E-06
 0.3588000E+00  0.1181981E-06
 0.3594000E+00  0.7886258E-07
 0.3600000E+00  0.3820238E-07
 0.3606000E+00 -0.3370513E-08
 0.3612000E+00 -0.4541285E-07
 0.3618000E+00 -0.8745475E-07
 0.3624000E+00 -0.1290078E-06
 0.3630000E+00 -0.1695757E-06
 0.3636000E+00 -0.2086681E-06
 0.3642000E+00 -0.2458166E-06
 0.3648000E+00 -0.2805902E-06
 0.3654000E+00 -0.3126110E-06
 0.3660000E+00 -0.3415652E-06
 0.3666000E+00 -0.3672113E-06
 0.3672000E+00 -0.3893823E-06
 0.3678000E+00 -0.4079827E-06
 0.3684000E+00 -0.4229819E-06
 0.3690000E+00 -0.4344025E-06
 0.3696000E+00 -0.4423077E-06
 0.3702000E+00 -0.4467868E-06
 0.3708000E+00 -0.4479419E-06
 0.3714000E+00 -0.4458761E-06
 0.3720000E+00 -0.4406834E-06
 0.3726000E+00 -0.4324421E-06
 0.3732000E+00 -0.4212102E-06
 0.3738000E+00 -0.4070245E-06
 0.3744000E+00 -0.3899013E-06
 0.3750000E+00 -0.3698411E-06
 0.3756000E+00 -0.3468352E-06
 0.3762000E+00 -0.3208760E-06
 0.3768000E+00 -0.2919691E-06
 0.3774000E+00 -0.2601483E-06
 0.3780000E+00 -0.2254925E-06
 0.3786000E+00 -0.1881422E-06
 0.3792000E+00 -0.1483146E-06
 0.3798000E+00 -0.1063159E-06
 0.3804000E+00 -0.6254840E-07
 0.3810000E+00 -0.1750952E-07
 0.3816000E+00  0.2821601E-07
 0.3822000E+00  0.7397327E-07
 0.3828000E+00  0.1190620E-06
 0.3834000E+00  0.1627674E-06
 0.3840000E+00  0.2043962E-06
 0.3846000E+00  0.2433108E-06
 0.3852000E+00  0.2789639E-06
 0.3858000E+00  0.3109257E-06
 0.3864000E+00  0.3389029E-06
 0.3870000E+00  0.3627482E-06
 0.3876000E+00  0.3824595E-06
 0.3882000E+00  0.3981671E-06
 0.3888000E+00  0.4101133E-06
 0.3894000E+00  0.4186247E-06
 0.3900000E+00  0.4240803E-06
 0.3906000E+00  0.4268777E-06
 0.3912000E+00  0.4274019E-06
 0.3918000E+00  0.4259965E-06
 0.3924000E+00  0.4229422E-06
 0.3930000E+00  0.4184415E-06
 0.3936000E+00  0.4126116E-06
 0.3942000E+00  0.4054851E-06
 0.3948000E+00  0.3970179E-06
 0.3954000E+00  0.3871040E-06
 0.3960000E+00  0.3755943E-06
 0.3966000E+00  0.3623196E-06
 0.3972000E+00  0.3471135E-06
 0.3978000E+00  0.3298356E-06
 0.3984000E+00  0.3103904E-06
 0.3990000E+00  0.2887425E-06
 0.3996000E+00  0.2649246E-06
 0.4002000E+00  0.2390388E-06
 0.4008000E+00  0.2112520E-06
 0.4014000E+00  0.1817836E-06
 0.4020000E+00  0.1508900E-06
 0.4026000E+00  0.1188455E-06
 0.4032000E+00  0.8592548E-07
 0.4038000E+00  0.5238950E-07
 0.4044000E+00  0.1847214E-07
 0.4050000E+00 -0.1562228E-07
 0.4056000E+00 -0.4971642E-07
 0.4062000E+00 -0.8365154E-07
 0.4068000E+00 -0.1172740E-06
 0.4074000E+00 -0.1504191E-06
 0.4080000E+00 -0.1828964E-06
 0.4086000E+00 -0.2144769E-06
 0.4092000E+00 -0.2448867E-06
 0.4098000E+00 -0.2738071E-06
 0.4104000E+00 -0.3008822E-06
 0.4110000E+00 -0.3257335E-06
 0.4116000E+00 -0.3479788E-06
 0.4122000E+00 -0.3672544E-06
 0.4128000E+00 -0.3832371E-06
 0.4134000E+00 -0.3956623E-06
 0.4140000E+00 -0.4043386E-06
 0.4146000E+00 -0.4091549E-06
 0.4152000E+00 -0.4100809E-06
 0.4158000E+00 -0.4071609E-06
 0.4164000E+00 -0.4005037E-06
 0.4170000E+00 -0.3902681E-06
 0.4176000E+00 -0.3766482E-06
 0.4182000E+00 -0.3598599E-06
 0.4188000E+00 -0.3401290E-06
 0.4194000E+00 -0.3176843E-06
 0.4200000E+00 -0.2927529E-06
 0.4206000E+00 -0.2655614E-06
 0.4212000E+00 -0.2363376E-06
 0.4218000E+00 -0.2053161E-06
 0.4224000E+00 -0.1727436E-06
 0.4230000E+00 -0.1388842E-06
 0.4236000E+00 -0.1040237E-06
 0.4242000E+00 -0.6847272E-07
 0.4248000E+00 -0.3256622E-07
 0.4254000E+00  0.3337529E-08
 0.4260000E+00  0.3886205E-07
 0.4266000E+00  0.7361941E-07
 0.4272000E+00  0.1072197E-06
 0.4278000E+00  0.1392821E-06
 0.4284000E+00  0.1694494E-06
 0.4290000E+00  0.1974011E-06
 0.4296000E+00  0.2228688E-06
 0.4302000E+00  0.2456482E-06
 0.4308000E+00  0.2656102E-06
 0.4314000E+00  0.2827065E-06
 0.4320000E+00  0.2969702E-06
 0.4326000E+00  0.3085107E-06
 0.4332000E+00  0.3175006E-06
 0.4338000E+00  0.3241584E-06
 0.4344000E+00  0.3287262E-06
 0.4350000E+00  0.3314448E-06
 0.4356000E+00  0.3325293E-06
 0.4362000E+00  0.3321490E-06
 0.4368000E+00  0.3304101E-06
 0.4374000E+00  0.3273487E-06
 0.4380000E+00  0.3229311E-06
 0.4386000E+00  0.3170626E-06
 0.4392000E+00  0.3096046E-06
 0.4398000E+00  0.3003971E-06
 0.4404000E+00  0.2892836E-06
 0.4410000E+00  0.2761377E-06
 0.4416000E+00  0.2608851E-06
 0.4422000E+00  0.2435210E-06
 0.4428000E+00  0.2241204E-06
 0.4434000E+00  0.2028402E-06
 0.4440000E+00  0.1799127E-06
 0.4446000E+00  0.1556329E-06
 0.4452000E+00  0.1303391E-06
 0.4458000E+00  0.1043912E-06
 0.4464000E+00  0.7814715E-07
 0.4470000E+00  0.5194175E-07
 0.4476000E+00  0.2606799E-07
 0.4482000E+00  0.7638392E-09
 0.4488000E+00 -0.2379433E-07
 0.4494000E+00 -0.4749234E-07
 0.4500000E+00 -0.7027213E-07
 0.4506000E+00 -0.9211976E-07
 0.4512000E+00 -0.1130494E-06
 0.4518000E+00 -0.1330851E-06
 0.4524000E+00 -0.1522414E-06
 0.4530000E+00 -0.1705069E-06
 0.4536000E+00 -0.1878304E-06
 0.4542000E+00 -0.2041141E-06
 0.4548000E+00 -0.2192121E-06
 0.4554000E+00 -0.2329372E-06
 0.4560000E+00 -0.2450739E-06
 0.4566000E+00 -0.2553969E-06
 0.4572000E+00 -0.2636927E-06
 0.4578000E+00 -0.2697820E-06
 0.4584000E+00 -0.2735392E-06
 0.4590000E+00 -0.2749064E-06
 0.4596000E+00 -0.2739004E-06
 0.4602000E+00 -0.2706103E-06
 0.4608000E+00 -0.2651865E-06
 0.4614000E+00 -0.2578214E-06
 0.4620000E+00 -0.2487249E-06
 0.4626000E+00 -0.2380982E-06
 0.4632000E+00 -0.2261085E-06
 0.4638000E+00 -0.2128695E-06
 0.4644000E+00 -0.1984305E-06
 0.4650000E+00 -0.1827754E-06
 0.4656000E+00 -0.1658328E-06
 0.4662000E+00 -0.1474963E-06
 0.4668000E+00 -0.1276519E-06
 0.4674000E+00 -0.1062097E-06
 0.4680000E+00 -0.8313573E-07
 0.4686000E+00 -0.5847848E-07
 0.4692000E+00 -0.3238886E-07
 0.4698000E+00 -0.5128765E-08
 0.4704000E+00  0.2293247E-07
 0.4710000E+00  0.5133144E-07
 0.4716000E+00  0.7953636E-07
 0.4722000E+00  0.1069777E-06
 0.4728000E+00  0.1330840E-06
 0.4734000E+00  0.1573172E-06
 0.4740000E+00  0.1792046E-06
 0.4746000E+00  0.1983651E-06
 0.4752000E+00  0.2145270E-06
 0.4758000E+00  0.2275370E-06
 0.4764000E+00  0.2373610E-06
 0.4770000E+00  0.2440756E-06
 0.4776000E+00  0.2478548E-06
 0.4782000E+00  0.2489507E-06
 0.4788000E+00  0.2476722E-06
 0.4794000E+00  0.2443621E-06