-0.1200000E+00  0.0000000E+00
-0.1194000E+00 -0.2443816E-06
-0.1188000E+00 -0.7577031E-06
-0.1182000E+00 -0.1558413E-05
-0.1176000E+00 -0.2658788E-05
-0.1170000E+00 -0.4065233E-05
-0.1164000E+00 -0.5778937E-05
-0.1158000E+00 -0.7796843E-05
-0.1152000E+00 -0.1011292E-04
-0.1146000E+00 -0.1271964E-04
-0.1140000E+00 -0.1560964E-04
-0.1134000E+00 -0.1877747E-04
-0.1128000E+00 -0.2222135E-04
-0.1122000E+00 -0.2594491E-04
-0.1116000E+00 -0.2995882E-04
-0.1110000E+00 -0.3428224E-04
-0.1104000E+00 -0.3894409E-04
-0.1098000E+00 -0.4398410E-04
-0.1092000E+00 -0.4945366E-04
-0.1086000E+00 -0.5541635E-04
-0.1080000E+00 -0.6194837E-04
-0.1074000E+00 -0.6913871E-04
-0.1068000E+00 -0.7708923E-04
-0.1062000E+00 -0.8591457E-04
-0.1056000E+00 -0.9574211E-04
-0.1050000E+00 -0.1067118E-03
-0.1044000E+00 -0.1189762E-03
-0.1038000E+00 -0.1327004E-03
-0.1032000E+00 -0.1480624E-03
-0.1026000E+00 -0.1652531E-03
-0.1020000E+00 -0.1844772E-03
-0.1014000E+00 -0.2059537E-03
-0.1008000E+00 -0.2299170E-03
-0.1002000E+00 -0.2566180E-03
-0.9960000E-01 -0.2863259E-03
-0.9900000E-01 -0.3193294E-03
-0.9840000E-01 -0.3559388E-03
-0.9780000E-01 -0.3964884E-03
-0.9720000E-01 -0.4413384E-03
-0.9660000E-01 -0.4908777E-03
-0.9600000E-01 -0.5455263E-03
-0.9540000E-01 -0.6057381E-03
-0.9480000E-01 -0.6720035E-03
-0.9420000E-01 -0.7448526E-03
-0.9360000E-01 -0.8248574E-03
-0.9300000E-01 -0.9126351E-03
-0.9240000E-01 -0.1008851E-02
-0.9180000E-01 -0.1114218E-02
-0.9120000E-01 -0.1229507E-02
-0.9060000E-01 -0.1355539E-02
-0.9000000E-01 -0.1493196E-02
-0.8940000E-01 -0.1643418E-02
-0.8880000E-01 -0.1807208E-02
-0.8820000E-01 -0.1985633E-02
-0.8760000E-01 -0.2179827E-02
-0.8700000E-01 -0.2390993E-02
-0.8640000E-01 -0.2620402E-02
-0.8580000E-01 -0.2869400E-02
-0.8520000E-01 -0.3139408E-02
-0.8460000E-01 -0.3431922E-02
-0.8400000E-01 -0.3748517E-02
-0.8340000E-01 -0.4090848E-02
-0.8280000E-01 -0.4460651E-02
-0.8220000E-01 -0.4859743E-02
-0.8160000E-01 -0.5290026E-02
-0.8100000E-01 -0.5753484E-02
-0.8040000E-01 -0.6252184E-02
-0.7980000E-01 -0.6788273E-02
-0.7920000E-01 -0.7363982E-02
-0.7860000E-01 -0.7981619E-02
-0.7800000E-01 -0.8643566E-02
-0.7740000E-01 -0.9352279E-02
-0.7680000E-01 -0.1011028E-01
-0.7620000E-01 -0.1092016E-01
-0.7560000E-01 -0.1178455E-01
-0.7500000E-01 -0.1270616E-01
-0.7440000E-01 -0.1368770E-01
-0.7380000E-01 -0.1473196E-01
-0.7320000E-01 -0.1584171E-01
-0.7260000E-01 -0.1701977E-01
-0.7200000E-01 -0.1826894E-01
-0.7140000E-01 -0.1959202E-01
-0.7080000E-01 -0.2099176E-01
-0.7020000E-01 -0.2247091E-01
-0.6960000E-01 -0.2403213E-01
-0.6900000E-01 -0.2567803E-01
-0.6840000E-01 -0.2741110E-01
-0.6780000E-01 -0.2923375E-01
-0.6720000E-01 -0.3114823E-01
-0.6660000E-01 -0.3315666E-01
-0.6600000E-01 -0.3526097E-01
-0.6540000E-01 -0.3746288E-01
-0.6480000E-01 -0.3976389E-01
-0.6420000E-01 -0.4216526E-01
-0.6360000E-01 -0.4466795E-01
-0.6300000E-01 -0.4727262E-01
-0.6240000E-01 -0.4997959E-01
-0.6180000E-01 -0.5278882E-01
-0.6120000E-01 -0.5569986E-01
-0.6060000E-01 -0.5871186E-01
-0.6000000E-01 -0.6182349E-01
-0.5940000E-01 -0.6503294E-01
-0.5880000E-01 -0.6833789E-01
-0.5820000E-01 -0.7173547E-01
-0.5760000E-01 -0.7522223E-01
-0.5700000E-01 -0.7879414E-01
-0.5640000E-01 -0.8244652E-01
-0.5580000E-01 -0.8617404E-01
-0.5520000E-01 -0.8997071E-01
-0.5460000E-01 -0.9382980E-01
-0.5400000E-01 -0.9774390E-01
-0.5340000E-01 -0.1017049E+00
-0.5280000E-01 -0.1057038E+00
-0.5220000E-01 -0.1097309E+00
-0.5160000E-01 -0.1137759E+00
-0.5100000E-01 -0.1178276E+00
-0.5040000E-01 -0.1218739E+00
-0.4980000E-01 -0.1259021E+00
-0.4920000E-01 -0.1298987E+00
-0.4860000E-01 -0.1338494E+00
-0.4800000E-01 -0.1377393E+00
-0.4740000E-01 -0.1415526E+00
-0.4680000E-01 -0.1452731E+00
-0.4620000E-01 -0.1488836E+00
-0.4560000E-01 -0.1523666E+00
-0.4500000E-01 -0.1557038E+00
-0.4440000E-01 -0.1588767E+00
-0.4380000E-01 -0.1618660E+00
-0.4320000E-01 -0.1646522E+00
-0.4260000E-01 -0.1672154E+00
-0.4200000E-01 -0.1695355E+00
-0.4140000E-01 -0.1715923E+00
-0.4080000E-01 -0.1733653E+00
-0.4020000E-01 -0.1748341E+00
-0.3960000E-01 -0.1759784E+00
-0.3900000E-01 -0.1767782E+00
-0.3840000E-01 -0.1772135E+00
-0.3780000E-01 -0.1772650E+00
-0.3720000E-01 -0.1769136E+00
-0.3660000E-01 -0.1761412E+00
-0.3600000E-01 -0.1749301E+00
-0.3540000E-01 -0.1732635E+00
-0.3480000E-01 -0.1711258E+00
-0.3420000E-01 -0.1685023E+00
-0.3360000E-01 -0.1653793E+00
-0.3300000E-01 -0.1617448E+00
-0.3240000E-01 -0.1575880E+00
-0.3180000E-01 -0.1528997E+00
-0.3120000E-01 -0.1476723E+00
-0.3060000E-01 -0.1418999E+00
-0.3000000E-01 -0.1355785E+00
-0.2940000E-01 -0.1287062E+00
-0.2880000E-01 -0.1212829E+00
-0.2820000E-01 -0.1133106E+00
-0.2760000E-01 -0.1047935E+00
-0.2700000E-01 -0.9573822E-01
-0.2640000E-01 -0.8615337E-01
-0.2580000E-01 -0.7605004E-01
-0.2520000E-01 -0.6544165E-01
-0.2460000E-01 -0.5434394E-01
-0.2400000E-01 -0.4277508E-01
-0.2340000E-01 -0.3075556E-01
-0.2280000E-01 -0.1830824E-01
-0.2220000E-01 -0.5458294E-02
-0.2160000E-01  0.7766848E-02
-0.2100000E-01  0.2133754E-01
-0.2040000E-01  0.3522201E-01
-0.1980000E-01  0.4938642E-01
-0.1920000E-01  0.6379499E-01
-0.1860000E-01  0.7841013E-01
-0.1800000E-01  0.9319250E-01
-0.1740000E-01  0.1081012E+00
-0.1680000E-01  0.1230939E+00
-0.1620000E-01  0.1381270E+00
-0.1560000E-01  0.1531559E+00
-0.1500000E-01  0.1681349E+00
-0.1440000E-01  0.1830178E+00
-0.1380000E-01  0.1977576E+00
-0.1320000E-01  0.2123073E+00
-0.1260000E-01  0.2266196E+00
-0.1200000E-01  0.2406473E+00
-0.1140000E-01  0.2543435E+00
-0.1080000E-01  0.2676619E+00
-0.1020000E-01  0.2805570E+00
-0.9600000E-02  0.2929842E+00
-0.9000000E-02  0.3049000E+00
-0.8400000E-02  0.3162625E+00
-0.7800000E-02  0.3270313E+00
-0.7200000E-02  0.3371679E+00
-0.6600000E-02  0.3466355E+00
-0.6000000E-02  0.3554000E+00
-0.5400000E-02  0.3634292E+00
-0.4800000E-02  0.3706937E+00
-0.4200000E-02  0.3771668E+00
-0.3600000E-02  0.3828244E+00
-0.3000000E-02  0.3876455E+00
-0.2400000E-02  0.3916122E+00
-0.1800000E-02  0.3947096E+00
-0.1200000E-02  0.3969263E+00
-0.6000000E-03  0.3982538E+00
 0.0000000E+00  0.3986873E+00
 0.6000000E-03  0.3982251E+00
 0.1200000E-02  0.3968691E+00
 0.1800000E-02  0.3946244E+00
 0.2400000E-02  0.3914994E+00
 0.3000000E-02  0.3875059E+00
 0.3600000E-02  0.3826590E+00
 0.4200000E-02  0.3769767E+00
 0.4800000E-02  0.3704802E+00
 0.5400000E-02  0.3631937E+00
 0.6000000E-02  0.3551441E+00
 0.6600000E-02  0.3463610E+00
 0.7200000E-02  0.3368765E+00
 0.7800000E-02  0.3267251E+00
 0.8400000E-02  0.3159435E+00
 0.9000000E-02  0.3045704E+00
 0.9600000E-02  0.2926462E+00
 0.1020000E-01  0.2802129E+00
 0.1080000E-01  0.2673140E+00
 0.1140000E-01  0.2539941E+00
 0.1200000E-01  0.2402987E+00
 0.1260000E-01  0.2262741E+00
 0.1320000E-01  0.2119672E+00
 0.1380000E-01  0.1974251E+00
 0.1440000E-01  0.1826949E+00
 0.1500000E-01  0.1678238E+00
 0.1560000E-01  0.1528584E+00
 0.1620000E-01  0.1378450E+00
 0.1680000E-01  0.1228291E+00
 0.1740000E-01  0.1078551E+00
 0.1800000E-01  0.9296650E-01
 0.1860000E-01  0.7820550E-01
 0.1920000E-01  0.6361278E-01
 0.1980000E-01  0.4922750E-01
 0.2040000E-01  0.3508709E-01
 0.2100000E-01  0.2122714E-01
 0.2160000E-01  0.7681282E-02
 0.2220000E-01 -0.5518889E-02
 0.2280000E-01 -0.1834392E-01
 0.2340000E-01 -0.3076656E-01
 0.2400000E-01 -0.4276183E-01
 0.2460000E-01 -0.5430705E-01
 0.2520000E-01 -0.6538188E-01
 0.2580000E-01 -0.7596833E-01
 0.2640000E-01 -0.8605080E-01
 0.2700000E-01 -0.9561601E-01
 0.2760000E-01 -0.1046530E+00
 0.2820000E-01 -0.1131533E+00
 0.2880000E-01 -0.1211103E+00
 0.2940000E-01 -0.1285201E+00
 0.3000000E-01 -0.1353805E+00
 0.3060000E-01 -0.1416918E+00
 0.3120000E-01 -0.1474559E+00
 0.3180000E-01 -0.1526769E+00
 0.3240000E-01 -0.1573605E+00
 0.3300000E-01 -0.1615145E+00
 0.3360000E-01 -0.1651480E+00
 0.3420000E-01 -0.1682716E+00
 0.3480000E-01 -0.1708975E+00
 0.3540000E-01 -0.1730392E+00
 0.3600000E-01 -0.1747112E+00
 0.3660000E-01 -0.1759291E+00
 0.3720000E-01 -0.1767097E+00
 0.3780000E-01 -0.1770703E+00
 0.3840000E-01 -0.1770293E+00
 0.3900000E-01 -0.1766052E+00
 0.3960000E-01 -0.1758175E+00
 0.4020000E-01 -0.1746859E+00
 0.4080000E-01 -0.1732302E+00
 0.4140000E-01 -0.1714708E+00
 0.4200000E-01 -0.1694278E+00
 0.4260000E-01 -0.1671215E+00
 0.4320000E-01 -0.1645721E+00
 0.4380000E-01 -0.1617997E+00
 0.4440000E-01 -0.1588238E+00
 0.4500000E-01 -0.1556641E+00
 0.4560000E-01 -0.1523395E+00
 0.4620000E-01 -0.1488687E+00
 0.4680000E-01 -0.1452697E+00
 0.4740000E-01 -0.1415602E+00
 0.4800000E-01 -0.1377570E+00
 0.4860000E-01 -0.1338766E+00
 0.4920000E-01 -0.1299345E+00
 0.4980000E-01 -0.1259457E+00
 0.5040000E-01 -0.1219245E+00
 0.5100000E-01 -0.1178844E+00
 0.5160000E-01 -0.1138381E+00
 0.5220000E-01 -0.1097976E+00
 0.5280000E-01 -0.1057741E+00
 0.5340000E-01 -0.1017781E+00
 0.5400000E-01 -0.9781934E-01
 0.5460000E-01 -0.9390672E-01
 0.5520000E-01 -0.9004845E-01
 0.5580000E-01 -0.8625200E-01
 0.5640000E-01 -0.8252412E-01
 0.5700000E-01 -0.7887089E-01
 0.5760000E-01 -0.7529766E-01
 0.5820000E-01 -0.7180918E-01
 0.5880000E-01 -0.6840954E-01
 0.5940000E-01 -0.6510223E-01
 0.6000000E-01 -0.6189018E-01
 0.6060000E-01 -0.5877575E-01
 0.6120000E-01 -0.5576080E-01
 0.6180000E-01 -0.5284669E-01
 0.6240000E-01 -0.5003433E-01
 0.6300000E-01 -0.4732417E-01
 0.6360000E-01 -0.4471630E-01
 0.6420000E-01 -0.4221042E-01
 0.6480000E-01 -0.3980588E-01
 0.6540000E-01 -0.3750173E-01
 0.6600000E-01 -0.3529675E-01
 0.6660000E-01 -0.3318943E-01
 0.6720000E-01 -0.3117805E-01
 0.6780000E-01 -0.2926069E-01
 0.6840000E-01 -0.2743523E-01
 0.6900000E-01 -0.2569942E-01
 0.6960000E-01 -0.2405086E-01
 0.7020000E-01 -0.2248704E-01
 0.7080000E-01 -0.2100536E-01
 0.7140000E-01 -0.1960314E-01
 0.7200000E-01 -0.1827766E-01
 0.7260000E-01 -0.1702615E-01
 0.7320000E-01 -0.1584581E-01
 0.7380000E-01 -0.1473385E-01
 0.7440000E-01 -0.1368747E-01
 0.7500000E-01 -0.1270387E-01
 0.7560000E-01 -0.1178030E-01
 0.7620000E-01 -0.1091404E-01
 0.7680000E-01 -0.1010240E-01
 0.7740000E-01 -0.9342752E-02
 0.7800000E-01 -0.8632520E-02
 0.7860000E-01 -0.7969191E-02
 0.7920000E-01 -0.7350318E-02
 0.7980000E-01 -0.6773526E-02
 0.8040000E-01 -0.6236513E-02
 0.8100000E-01 -0.5737055E-02
 0.8160000E-01 -0.5273005E-02
 0.8220000E-01 -0.4842296E-02
 0.8280000E-01 -0.4442945E-02
 0.8340000E-01 -0.4073046E-02
 0.8400000E-01 -0.3730778E-02
 0.8460000E-01 -0.3414397E-02
 0.8520000E-01 -0.3122243E-02
 0.8580000E-01 -0.2852732E-02
 0.8640000E-01 -0.2604358E-02
 0.8700000E-01 -0.2375692E-02
 0.8760000E-01 -0.2165379E-02
 0.8820000E-01 -0.1972135E-02
 0.8880000E-01 -0.1794748E-02
 0.8940000E-01 -0.1632071E-02
 0.9000000E-01 -0.1483027E-02
 0.9060000E-01 -0.1346599E-02
 0.9120000E-01 -0.1221831E-02
 0.9180000E-01 -0.1107829E-02
 0.9240000E-01 -0.1003751E-02
 0.9300000E-01 -0.9088134E-03
 0.9360000E-01 -0.8222806E-03
 0.9420000E-01 -0.7434685E-03
 0.9480000E-01 -0.6717399E-03
 0.9540000E-01 -0.6065022E-03
 0.9600000E-01 -0.5472058E-03
 0.9660000E-01 -0.4933417E-03
 0.9720000E-01 -0.4444395E-03
 0.9780000E-01 -0.4000652E-03
 0.9840000E-01 -0.3598196E-03
 0.9900000E-01 -0.3233355E-03
 0.9960000E-01 -0.2902770E-03
 0.1002000E+00 -0.2603365E-03
 0.1008000E+00 -0.2332330E-03
 0.1014000E+00 -0.2087107E-03
 0.1020000E+00 -0.1865370E-03
 0.1026000E+00 -0.1665006E-03
 0.1032000E+00 -0.1484098E-03
 0.1038000E+00 -0.1320909E-03
 0.1044000E+00 -0.1173862E-03
 0.1050000E+00 -0.1041532E-03
 0.1056000E+00 -0.9226239E-04
 0.1062000E+00 -0.8159617E-04
 0.1068000E+00 -0.7204749E-04
 0.1074000E+00 -0.6351868E-04
 0.1080000E+00 -0.5592032E-04
 0.1086000E+00 -0.4917030E-04
 0.1092000E+00 -0.4319299E-04
 0.1098000E+00 -0.3791833E-04
 0.1104000E+00 -0.3328138E-04
 0.1110000E+00 -0.2922165E-04
 0.1116000E+00 -0.2568278E-04
 0.1122000E+00 -0.2261210E-04
 0.1128000E+00 -0.1996030E-04
 0.1134000E+00 -0.1768136E-04
 0.1140000E+00 -0.1573225E-04
 0.1146000E+00 -0.1407291E-04
 0.1152000E+00 -0.1266614E-04
 0.1158000E+00 -0.1147744E-04
 0.1164000E+00 -0.1047500E-04
 0.1170000E+00 -0.9629952E-05
 0.1176000E+00 -0.8915689E-05
 0.1182000E+00 -0.8308277E-05
 0.1188000E+00 -0.7786253E-05
 0.1194000E+00 -0.7330464E-05
 0.1200000E+00 -0.6924070E-05
 0.1206000E+00 -0.6552540E-05
 0.1212000E+00 -0.6203118E-05
 0.1218000E+00 -0.5865132E-05
 0.1224000E+00 -0.5529812E-05
 0.1230000E+00 -0.5189979E-05
 0.1236000E+00 -0.4840208E-05
 0.1242000E+00 -0.4476648E-05
 0.1248000E+00 -0.4096697E-05
 0.1254000E+00 -0.3699384E-05
 0.1260000E+00 -0.3284788E-05
 0.1266000E+00 -0.2854251E-05
 0.1272000E+00 -0.2410302E-05
 0.1278000E+00 -0.1956463E-05
 0.1284000E+00 -0.1496984E-05
 0.1290000E+00 -0.1037004E-05
 0.1296000E+00 -0.5826775E-06
 0.1302000E+00 -0.1401444E-06
 0.1308000E+00  0.2839311E-06
 0.1314000E+00  0.6827308E-06
 0.1320000E+00  0.1049598E-05
 0.1326000E+00  0.1377902E-05
 0.1332000E+00  0.1661716E-05
 0.1338000E+00  0.1895848E-05
 0.1344000E+00  0.2076102E-05
 0.1350000E+00  0.2198715E-05
 0.1356000E+00  0.2261949E-05
 0.1362000E+00  0.2264806E-05
 0.1368000E+00  0.2208206E-05
 0.1374000E+00  0.2094029E-05
 0.1380000E+00  0.1926037E-05
 0.1386000E+00  0.1709215E-05
 0.1392000E+00  0.1449534E-05
 0.1398000E+00  0.1154685E-05
 0.1404000E+00  0.8327856E-06
 0.1410000E+00  0.4930219E-06
 0.1416000E+00  0.1447121E-06
 0.1422000E+00 -0.2024547E-06
 0.1428000E+00 -0.5387675E-06
 0.1434000E+00 -0.8553993E-06
 0.1440000E+00 -0.1143734E-05
 0.1446000E+00 -0.1396001E-05
 0.1452000E+00 -0.1605932E-05
 0.1458000E+00 -0.1768237E-05
 0.1464000E+00 -0.1879569E-05
 0.1470000E+00 -0.1937666E-05
 0.1476000E+00 -0.1941865E-05
 0.1482000E+00 -0.1893455E-05
 0.1488000E+00 -0.1794894E-05
 0.1494000E+00 -0.1650111E-05
 0.1500000E+00 -0.1464164E-05
 0.1506000E+00 -0.1243216E-05
 0.1512000E+00 -0.9944193E-06
 0.1518000E+00 -0.7251843E-06
 0.1524000E+00 -0.4435159E-06
 0.1530000E+00 -0.1573482E-06
 0.1536000E+00  0.1255491E-06
 0.1542000E+00  0.3976880E-06
 0.1548000E+00  0.6522800E-06
 0.1554000E+00  0.8831433E-06
 0.1560000E+00  0.1085095E-05
 0.1566000E+00  0.1253945E-05
 0.1572000E+00  0.1386530E-05
 0.1578000E+00  0.1480792E-05
 0.1584000E+00  0.1535769E-05
 0.1590000E+00  0.1551557E-05
 0.1596000E+00  0.1529222E-05
 0.1602000E+00  0.1470741E-05
 0.1608000E+00  0.1378811E-05
 0.1614000E+00  0.1256888E-05
 0.1620000E+00  0.1108768E-05
 0.1626000E+00  0.9386754E-06
 0.1632000E+00  0.7510756E-06
 0.1638000E+00  0.5504604E-06
 0.1644000E+00  0.3414640E-06
 0.1650000E+00  0.1282736E-06
 0.1656000E+00 -0.8485144E-07
 0.1662000E+00 -0.2940536E-06
 0.1668000E+00 -0.4956468E-06
 0.1674000E+00 -0.6864094E-06
 0.1680000E+00 -0.8634661E-06
 0.1686000E+00 -0.1024318E-05
 0.1692000E+00 -0.1166629E-05
 0.1698000E+00 -0.1288675E-05
 0.1704000E+00 -0.1388800E-05
 0.1710000E+00 -0.1465848E-05
 0.1716000E+00 -0.1518913E-05
 0.1722000E+00 -0.1547282E-05
 0.1728000E+00 -0.1550829E-05
 0.1734000E+00 -0.1529507E-05
 0.1740000E+00 -0.1483735E-05
 0.1746000E+00 -0.1414160E-05
 0.1752000E+00 -0.1321812E-05
 0.1758000E+00 -0.1208247E-05
 0.1764000E+00 -0.1075347E-05
 0.1770000E+00 -0.9252544E-06
 0.1776000E+00 -0.7604908E-06
 0.1782000E+00 -0.5842119E-06
 0.1788000E+00 -0.3997773E-06
 0.1794000E+00 -0.2106670E-06
 0.1800000E+00 -0.2082080E-07
 0.1806000E+00  0.1660141E-06
 0.1812000E+00  0.3458912E-06
 0.1818000E+00  0.5150408E-06
 0.1824000E+00  0.6698730E-06
 0.1830000E+00  0.8072989E-06
 0.1836000E+00  0.9244998E-06
 0.1842000E+00  0.1019499E-05
 0.1848000E+00  0.1090628E-05
 0.1854000E+00  0.1137046E-05
 0.1860000E+00  0.1158632E-05
 0.1866000E+00  0.1155963E-05
 0.1872000E+00  0.1130213E-05
 0.1878000E+00  0.1083176E-05
 0.1884000E+00  0.1017220E-05
 0.1890000E+00  0.9350356E-06
 0.1896000E+00  0.8396022E-06
 0.1902000E+00  0.7341060E-06
 0.1908000E+00  0.6218041E-06
 0.1914000E+00  0.5058735E-06
 0.1920000E+00  0.3892919E-06
 0.1926000E+00  0.2748122E-06
 0.1932000E+00  0.1649110E-06
 0.1938000E+00  0.6156341E-07
 0.1944000E+00 -0.3360264E-07
 0.1950000E+00 -0.1193298E-06
 0.1956000E+00 -0.1948361E-06
 0.1962000E+00 -0.2596527E-06
 0.1968000E+00 -0.3136745E-06
 0.1974000E+00 -0.3570528E-06
 0.1980000E+00 -0.3901344E-06
 0.1986000E+00 -0.4133625E-06
 0.1992000E+00 -0.4272315E-06
 0.1998000E+00 -0.4322202E-06
 0.2004000E+00 -0.4287424E-06
 0.2010000E+00 -0.4170946E-06
 0.2016000E+00 -0.3974670E-06
 0.2022000E+00 -0.3699017E-06
 0.2028000E+00 -0.3343608E-06
 0.2034000E+00 -0.2906887E-06
 0.2040000E+00 -0.2387985E-06
 0.2046000E+00 -0.1786489E-06
 0.2052000E+00 -0.1103683E-06
 0.2058000E+00 -0.3429705E-07
 0.2064000E+00  0.4887014E-07
 0.2070000E+00  0.1380782E-06
 0.2076000E+00  0.2317899E-06
 0.2082000E+00  0.3280316E-06
 0.2088000E+00  0.4243627E-06
 0.2094000E+00  0.5179120E-06
 0.2100000E+00  0.6054821E-06
 0.2106000E+00  0.6836327E-06
 0.2112000E+00  0.7488322E-06
 0.2118000E+00  0.7976051E-06
 0.2124000E+00  0.8266995E-06
 0.2130000E+00  0.8332970E-06
 0.2136000E+00  0.8151288E-06
 0.2142000E+00  0.7706619E-06
 0.2148000E+00  0.6992292E-06
 0.2154000E+00  0.6011043E-06
 0.2160000E+00  0.4775587E-06
 0.2166000E+00  0.3308820E-06
 0.2172000E+00  0.1643243E-06
 0.2178000E+00 -0.1798230E-07
 0.2184000E+00 -0.2111412E-06
 0.2190000E+00 -0.4096658E-06
 0.2196000E+00 -0.6076614E-06
 0.2202000E+00 -0.7990542E-06
 0.2208000E+00 -0.9777941E-06
 0.2214000E+00 -0.1138103E-05
 0.2220000E+00 -0.1274685E-05
 0.2226000E+00 -0.1382929E-05
 0.2232000E+00 -0.1459091E-05
 0.2238000E+00 -0.1500440E-05
 0.2244000E+00 -0.1505362E-05
 0.2250000E+00 -0.1473420E-05
 0.2256000E+00 -0.1405372E-05
 0.2262000E+00 -0.1303143E-05
 0.2268000E+00 -0.1169736E-05
 0.2274000E+00 -0.1009121E-05
 0.2280000E+00 -0.8260763E-06
 0.2286000E+00 -0.6260135E-06
 0.2292000E+00 -0.4147569E-06
 0.2298000E+00 -0.1983417E-06
 0.2304000E+00  0.1720296E-07
 0.2310000E+00  0.2260660E-06
 0.2316000E+00  0.4228434E-06
 0.2322000E+00  0.6027097E-06
 0.2328000E+00  0.7615492E-06
 0.2334000E+00  0.8960741E-06
 0.2340000E+00  0.1003887E-05
 0.2346000E+00  0.1083519E-05
 0.2352000E+00  0.1134437E-05
 0.2358000E+00  0.1157004E-05
 0.2364000E+00  0.1152417E-05
 0.2370000E+00  0.1122619E-05
 0.2376000E+00  0.1070191E-05
 0.2382000E+00  0.9982131E-06
 0.2388000E+00  0.9101400E-06
 0.2394000E+00  0.8096380E-06
 0.2400000E+00  0.7004465E-06
 0.2406000E+00  0.5862391E-06
 0.2412000E+00  0.4704895E-06
 0.2418000E+00  0.3563691E-06
 0.2424000E+00  0.2466513E-06
 0.2430000E+00  0.1436490E-06
 0.2436000E+00  0.4918340E-07
 0.2442000E+00 -0.3542591E-07
 0.2448000E+00 -0.1093473E-06
 0.2454000E+00 -0.1721867E-06
 0.2460000E+00 -0.2239292E-06
 0.2466000E+00 -0.2648699E-06
 0.2472000E+00 -0.2955299E-06
 0.2478000E+00 -0.3165714E-06
 0.2484000E+00 -0.3287364E-06
 0.2490000E+00 -0.3327673E-06
 0.2496000E+00 -0.3293704E-06
 0.2502000E+00 -0.3191771E-06
 0.2508000E+00 -0.3027380E-06
 0.2514000E+00 -0.2805286E-06
 0.2520000E+00 -0.2529656E-06
 0.2526000E+00 -0.2204440E-06
 0.2532000E+00 -0.1833753E-06
 0.2538000E+00 -0.1422323E-06
 0.2544000E+00 -0.9758468E-07
 0.2550000E+00 -0.5013569E-07
 0.2556000E+00 -0.7442926E-09
 0.2562000E+00  0.4956864E-07
 0.2568000E+00  0.9961544E-07
 0.2574000E+00  0.1480703E-06
 0.2580000E+00  0.1934922E-06
 0.2586000E+00  0.2343751E-06
 0.2592000E+00  0.2691970E-06
 0.2598000E+00  0.2964828E-06
 0.2604000E+00  0.3148629E-06
 0.2610000E+00  0.3231402E-06
 0.2616000E+00  0.3203495E-06
 0.2622000E+00  0.3058112E-06
 0.2628000E+00  0.2791785E-06
 0.2634000E+00  0.2404765E-06
 0.2640000E+00  0.1901240E-06
 0.2646000E+00  0.1289436E-06
 0.2652000E+00  0.5815896E-07
 0.2658000E+00 -0.2062674E-07
 0.2664000E+00 -0.1054676E-06
 0.2670000E+00 -0.1941287E-06
 0.2676000E+00 -0.2841565E-06
 0.2682000E+00 -0.3729589E-06
 0.2688000E+00 -0.4578983E-06
 0.2694000E+00 -0.5363919E-06
 0.2700000E+00 -0.6060111E-06
 0.2706000E+00 -0.6645818E-06
 0.2712000E+00 -0.7102709E-06
 0.2718000E+00 -0.7416652E-06
 0.2724000E+00 -0.7578258E-06
 0.2730000E+00 -0.7583224E-06
 0.2736000E+00 -0.7432441E-06
 0.2742000E+00 -0.7131856E-06
 0.2748000E+00 -0.6692021E-06
 0.2754000E+00 -0.6127540E-06
 0.2760000E+00 -0.5456245E-06
 0.2766000E+00 -0.4698265E-06
 0.2772000E+00 -0.3875081E-06
 0.2778000E+00 -0.3008522E-06
 0.2784000E+00 -0.2119825E-06
 0.2790000E+00 -0.1228793E-06
 0.2796000E+00 -0.3531127E-07
 0.2802000E+00  0.4921707E-07
 0.2808000E+00  0.1294985E-06
 0.2814000E+00  0.2046341E-06
 0.2820000E+00  0.2740303E-06
 0.2826000E+00  0.3373697E-06
 0.2832000E+00  0.3945768E-06
 0.2838000E+00  0.4457615E-06
 0.2844000E+00  0.4911635E-06
 0.2850000E+00  0.5310831E-06
 0.2856000E+00  0.5658216E-06
 0.2862000E+00  0.5956211E-06
 0.2868000E+00  0.6206137E-06
 0.2874000E+00  0.6407905E-06
 0.2880000E+00  0.6559755E-06
 0.2886000E+00  0.6658295E-06
 0.2892000E+00  0.6698739E-06
 0.2898000E+00  0.6675210E-06
 0.2904000E+00  0.6581329E-06
 0.2910000E+00  0.6410932E-06
 0.2916000E+00  0.6158724E-06
 0.2922000E+00  0.5821113E-06
 0.2928000E+00  0.5396874E-06
 0.2934000E+00  0.4887714E-06
 0.2940000E+00  0.4298672E-06
 0.2946000E+00  0.3638277E-06
 0.2952000E+00  0.2918465E-06
 0.2958000E+00  0.2154274E-06
 0.2964000E+00  0.1363259E-06
 0.2970000E+00  0.5647394E-07
 0.2976000E+00 -0.2210711E-07
 0.2982000E+00 -0.9740487E-07
 0.2988000E+00 -0.1675089E-06
 0.2994000E+00 -0.2307014E-06
 0.3000000E+00 -0.2855336E-06
 0.3006000E+00 -0.3308863E-06
 0.3012000E+00 -0.3660084E-06
 0.3018000E+00 -0.3905348E-06
 0.3024000E+00 -0.4044841E-06
 0.3030000E+00 -0.4082390E-06
 0.3036000E+00 -0.4025080E-06
 0.3042000E+00 -0.3882785E-06
 0.3048000E+00 -0.3667586E-06
 0.3054000E+00 -0.3393174E-06
 0.3060000E+00 -0.3074244E-06
 0.3066000E+00 -0.2725895E-06
 0.3072000E+00 -0.2363078E-06
 0.3078000E+00 -0.2000087E-06
 0.3084000E+00 -0.1650123E-06
 0.3090000E+00 -0.1324906E-06
 0.3096000E+00 -0.1034364E-06
 0.3102000E+00 -0.7863988E-07
 0.3108000E+00 -0.5867023E-07
 0.3114000E+00 -0.4386857E-07
 0.3120000E+00 -0.3434685E-07
 0.3126000E+00 -0.2999932E-07
 0.3132000E+00 -0.3052003E-07
 0.3138000E+00 -0.3543365E-07
 0.3144000E+00 -0.4413170E-07
 0.3150000E+00 -0.5591791E-07
 0.3156000E+00 -0.7005568E-07
 0.3162000E+00 -0.8581904E-07
 0.3168000E+00 -0.1025378E-06
 0.3174000E+00 -0.1196375E-06
 0.3180000E+00 -0.1366685E-06
 0.3186000E+00 -0.1533214E-06
 0.3192000E+00 -0.1694254E-06
 0.3198000E+00 -0.1849333E-06
 0.3204000E+00 -0.1998892E-06
 0.3210000E+00 -0.2143852E-06
 0.3216000E+00 -0.2285102E-06
 0.3222000E+00 -0.2422944E-06
 0.3228000E+00 -0.2556590E-06
 0.3234000E+00 -0.2683715E-06
 0.3240000E+00 -0.2800162E-06
 0.3246000E+00 -0.2899827E-06
 0.3252000E+00 -0.2974710E-06
 0.3258000E+00 -0.3015206E-06
 0.3264000E+00 -0.3010544E-06
 0.3270000E+00 -0.2949425E-06
 0.3276000E+00 -0.2820726E-06
 0.3282000E+00 -0.2614294E-06
 0.3288000E+00 -0.2321724E-06
 0.3294000E+00 -0.1937101E-06
 0.3300000E+00 -0.1457580E-06
 0.3306000E+00 -0.8838867E-07
 0.3312000E+00 -0.2205752E-07
 0.3318000E+00  0.5238676E-07
 0.3324000E+00  0.1337131E-06
 0.3330000E+00  0.2203374E-06
 0.3336000E+00  0.3103674E-06
 0.3342000E+00  0.4016616E-06
 0.3348000E+00  0.4919028E-06
 0.3354000E+00  0.5786717E-06
 0.3360000E+00  0.6595310E-06
 0.3366000E+00  0.7321078E-06
 0.3372000E+00  0.7941704E-06
 0.3378000E+00  0.8437058E-06
 0.3384000E+00  0.8789876E-06
 0.3390000E+00  0.8986341E-06
 0.3396000E+00  0.9016565E-06
 0.3402000E+00  0.8874952E-06
 0.3408000E+00  0.8560438E-06
 0.3414000E+00  0.8076580E-06
 0.3420000E+00  0.7431539E-06
 0.3426000E+00  0.6637914E-06
 0.3432000E+00  0.5712440E-06
 0.3438000E+00  0.4675589E-06
 0.3444000E+00  0.3551019E-06
 0.3450000E+00  0.2364963E-06
 0.3456000E+00  0.1145462E-06
 0.3462000E+00 -0.7841115E-08
 0.3468000E+00 -0.1277432E-06
 0.3474000E+00 -0.2423134E-06
 0.3480000E+00 -0.3488713E-06
 0.3486000E+00 -0.4449910E-06
 0.3492000E+00 -0.5285841E-06
 0.3498000E+00 -0.5979732E-06
 0.3504000E+00 -0.6519491E-06
 0.3510000E+00 -0.6898127E-06
 0.3516000E+00 -0.7113957E-06
 0.3522000E+00 -0.7170578E-06
 0.3528000E+00 -0.7076615E-06
 0.3534000E+00 -0.6845220E-06
 0.3540000E+00 -0.6493381E-06
 0.3546000E+00 -0.6041043E-06
 0.3552000E+00 -0.5510103E-06
 0.3558000E+00 -0.4923353E-06
 0.3564000E+00 -0.4303429E-06
 0.3570000E+00 -0.3671813E-06
 0.3576000E+00 -0.3047972E-06
 0.3582000E+00 -0.2448688E-06
 0.3588000E+00 -0.1887582E-06
 0.3594000E+00 -0.1374897E-06
 0.3600000E+00 -0.9174977E-07
 0.3606000E+00 -0.5190793E-07
 0.3612000E+00 -0.1805668E-07
 0.3618000E+00  0.9935606E-08
 0.3624000E+00  0.3236484E-07
 0.3630000E+00  0.4962943E-07
 0.3636000E+00  0.6217252E-07
 0.3642000E+00  0.7043047E-07
 0.3648000E+00  0.7479512E-07
 0.3654000E+00  0.7558827E-07
 0.3660000E+00  0.7305258E-07
 0.3666000E+00  0.6735595E-07
 0.3672000E+00  0.5860765E-07
 0.3678000E+00  0.4688659E-07
 0.3684000E+00  0.3227431E-07
 0.3690000E+00  0.1489214E-07
 0.3696000E+00 -0.5061769E-08
 0.3702000E+00 -0.2727899E-07
 0.3708000E+00 -0.5131428E-07
 0.3714000E+00 -0.7656718E-07
 0.3720000E+00 -0.1022743E-06
 0.3726000E+00 -0.1275115E-06
 0.3732000E+00 -0.1512104E-06
 0.3738000E+00 -0.1721837E-06
 0.3744000E+00 -0.1891631E-06
 0.3750000E+00 -0.2008470E-06
 0.3756000E+00 -0.2059541E-06
 0.3762000E+00 -0.2032859E-06
 0.3768000E+00 -0.1917899E-06
 0.3774000E+00 -0.1706254E-06
 0.3780000E+00 -0.1392259E-06
 0.3786000E+00 -0.9735454E-07
 0.3792000E+00 -0.4515075E-07
 0.3798000E+00  0.1683637E-07
 0.3804000E+00  0.8763309E-07
 0.3810000E+00  0.1658401E-06
 0.3816000E+00  0.2496568E-06
 0.3822000E+00  0.3369245E-06
 0.3828000E+00  0.4251881E-06
 0.3834000E+00  0.5117778E-06
 0.3840000E+00  0.5939049E-06
 0.3846000E+00  0.6687681E-06
 0.3852000E+00  0.7336623E-06
 0.3858000E+00  0.7860929E-06
 0.3864000E+00  0.8238793E-06
 0.3870000E+00  0.8452481E-06
 0.3876000E+00  0.8489128E-06
 0.3882000E+00  0.8341304E-06
 0.3888000E+00  0.8007390E-06
 0.3894000E+00  0.7491672E-06
 0.3900000E+00  0.6804251E-06
 0.3906000E+00  0.5960671E-06
 0.3912000E+00  0.4981364E-06
 0.3918000E+00  0.3890908E-06
 0.3924000E+00  0.2717105E-06
 0.3930000E+00  0.1489991E-06
 0.3936000E+00  0.2407484E-07
 0.3942000E+00 -0.9994100E-07
 0.3948000E+00 -0.2200307E-06
 0.3954000E+00 -0.3333820E-06
 0.3960000E+00 -0.4374773E-06
 0.3966000E+00 -0.5301687E-06
 0.3972000E+00 -0.6097336E-06
 0.3978000E+00 -0.6749099E-06
 0.3984000E+00 -0.7249088E-06
 0.3990000E+00 -0.7594070E-06
 0.3996000E+00 -0.7785171E-06
 0.4002000E+00 -0.7827429E-06
 0.4008000E+00 -0.7729192E-06
 0.4014000E+00 -0.7501471E-06
 0.4020000E+00 -0.7157246E-06
 0.4026000E+00 -0.6710810E-06
 0.4032000E+00 -0.6177200E-06
 0.4038000E+00 -0.5571741E-06
 0.4044000E+00 -0.4909697E-06
 0.4050000E+00 -0.4206132E-06
 0.4056000E+00 -0.3475801E-06
 0.4062000E+00 -0.2733210E-06
 0.4068000E+00 -0.1992668E-06
 0.4074000E+00 -0.1268360E-06
 0.4080000E+00 -0.5743700E-07
 0.4086000E+00  0.7539606E-08
 0.4092000E+00  0.6674122E-07
 0.4098000E+00  0.1188854E-06
 0.4104000E+00  0.1628056E-06
 0.4110000E+00  0.1975049E-06
 0.4116000E+00  0.2222134E-06
 0.4122000E+00  0.2364477E-06
 0.4128000E+00  0.2400582E-06
 0.4134000E+00  0.2332672E-06
 0.4140000E+00  0.2166853E-06
 0.4146000E+00  0.1913075E-06
 0.4152000E+00  0.1584860E-06
 0.4158000E+00  0.1198794E-06
 0.4164000E+00  0.7738335E-07
 0.4170000E+00  0.3304608E-07
 0.4176000E+00 -0.1102562E-07
 0.4182000E+00 -0.5276126E-07
 0.4188000E+00 -0.9021866E-07
 0.4194000E+00 -0.1216651E-06
 0.4200000E+00 -0.1456441E-06
 0.4206000E+00 -0.1610238E-06
 0.4212000E+00 -0.1670272E-06
 0.4218000E+00 -0.1632429E-06
 0.4224000E+00 -0.1496208E-06
 0.4230000E+00 -0.1264526E-06
 0.4236000E+00 -0.9434079E-07
 0.4242000E+00 -0.5416517E-07
 0.4248000E+00 -0.7039433E-08
 0.4254000E+00  0.4572834E-07
 0.4260000E+00  0.1026792E-06
 0.4266000E+00  0.1622440E-06
 0.4272000E+00  0.2227856E-06
 0.4278000E+00  0.2826372E-06
 0.4284000E+00  0.3401478E-06
 0.4290000E+00  0.3937220E-06
 0.4296000E+00  0.4418675E-06
 0.4302000E+00  0.4832351E-06
 0.4308000E+00  0.5166646E-06
 0.4314000E+00  0.5412232E-06
 0.4320000E+00  0.5562362E-06
 0.4326000E+00  0.5613139E-06
 0.4332000E+00  0.5563589E-06
 0.4338000E+00  0.5415679E-06
 0.4344000E+00  0.5174141E-06
 0.4350000E+00  0.4846191E-06
 0.4356000E+00  0.4441093E-06
 0.4362000E+00  0.3969649E-06
 0.4368000E+00  0.3443645E-06
 0.4374000E+00  0.2875248E-06
 0.4380000E+00  0.2276466E-06
 0.4386000E+00  0.1658663E-06
 0.4392000E+00  0.1032182E-06
 0.4398000E+00  0.4061043E-07
 0.4404000E+00 -0.2118628E-07
 0.4410000E+00 -0.8153543E-07
 0.4416000E+00 -0.1399198E-06
 0.4422000E+00 -0.1959168E-06
 0.4428000E+00 -0.2491675E-06
 0.4434000E+00 -0.2993442E-06
 0.4440000E+00 -0.3461188E-06
 0.4446000E+00 -0.3891364E-06
 0.4452000E+00 -0.4279978E-06
 0.4458000E+00 -0.4622501E-06
 0.4464000E+00 -0.4913912E-06
 0.4470000E+00 -0.5148829E-06
 0.4476000E+00 -0.5321758E-06
 0.4482000E+00 -0.5427426E-06
 0.4488000E+00 -0.5461153E-06
 0.4494000E+00 -0.5419267E-06
 0.4500000E+00 -0.5299503E-06
 0.4506000E+00 -0.5101365E-06
 0.4512000E+00 -0.4826430E-06
 0.4518000E+00 -0.4478512E-06
 0.4524000E+00 -0.4063744E-06
 0.4530000E+00 -0.3590552E-06
 0.4536000E+00 -0.3069441E-06
 0.4542000E+00 -0.2512727E-06
 0.4548000E+00 -0.1934119E-06
 0.4554000E+00 -0.1348242E-06
 0.4560000E+00 -0.7701116E-07
 0.4566000E+00 -0.2145678E-07
 0.4572000E+00  0.3042474E-07
 0.4578000E+00  0.7734086E-07
 0.4584000E+00  0.1181644E-06
 0.4590000E+00  0.1519694E-06
 0.4596000E+00  0.1780603E-06
 0.4602000E+00  0.1959897E-06
 0.4608000E+00  0.2055708E-06
 0.4614000E+00  0.2068796E-06
 0.4620000E+00  0.2002526E-06
 0.4626000E+00  0.1862788E-06
 0.4632000E+00  0.1657863E-06
 0.4638000E+00  0.1398257E-06
 0.4644000E+00  0.1096481E-06
 0.4650000E+00  0.7667764E-07
 0.4656000E+00  0.4247811E-07
 0.4662000E+00  0.8712654E-08
 0.4668000E+00 -0.2290578E-07
 0.4674000E+00 -0.5067066E-07
 0.4680000E+00 -0.7294778E-07
 0.4686000E+00 -0.8824369E-07
 0.4692000E+00 -0.9528190E-07
 0.4698000E+00 -0.9307177E-07
 0.4704000E+00 -0.8097755E-07
 0.4710000E+00 -0.5877268E-07
 0.4716000E+00 -0.2667967E-07
 0.4722000E+00  0.1461141E-07
 0.4728000E+00  0.6394784E-07
 0.4734000E+00  0.1197459E-06
 0.4740000E+00  0.1800471E-06
 0.4746000E+00  0.2425988E-06
 0.4752000E+00  0.3049558E-06
 0.4758000E+00  0.3645931E-06
 0.4764000E+00  0.4190286E-06
 0.4770000E+00  0.4659442E-06
 0.4776000E+00  0.5032992E-06
 0.4782000E+00  0.5294276E-06
 0.4788000E+00  0.5431158E-06
 0.4794000E+00  0.5436527E-06