 -0.12000000000000000          0.0000000000000000     
 -0.11939999999999999         -2.4438162427031784E-007
 -0.11879999999999999         -7.5770310559164500E-007
 -0.11820000000000000         -1.5584130323986756E-006
 -0.11760000000000000         -2.6587881620798726E-006
 -0.11699999999999999         -4.0652334973856341E-006
 -0.11639999999999999         -5.7789366110228002E-006
 -0.11580000000000000         -7.7968425102881156E-006
 -0.11520000000000000         -1.0112918062077370E-005
 -0.11459999999999999         -1.2719638107228093E-005
 -0.11399999999999999         -1.5609639376634732E-005
 -0.11340000000000000         -1.8777465811581351E-005
 -0.11280000000000000         -2.2221345716388896E-005
 -0.11219999999999999         -2.5944909793906845E-005
 -0.11159999999999999         -2.9958820960018784E-005
 -0.11100000000000000         -3.4282234992133453E-005
 -0.11040000000000000         -3.8944079278735444E-005
 -0.10979999999999999         -4.3984095100313425E-005
 -0.10919999999999999         -4.9453650717623532E-005
 -0.10860000000000000         -5.5416341638192534E-005
 -0.10800000000000000         -6.1948361690156162E-005
 -0.10740000000000000         -6.9138703111093491E-005
 -0.10679999999999999         -7.7089222031645477E-005
 -0.10620000000000000         -8.5914565715938807E-005
 -0.10560000000000000         -9.5742099802009761E-005
 -0.10500000000000000         -1.0671179916244000E-004
 -0.10439999999999999         -1.1897620424861088E-004
 -0.10380000000000000         -1.3270042836666107E-004
 -0.10320000000000000         -1.4806237595621496E-004
 -0.10260000000000000         -1.6525307728443295E-004
 -0.10199999999999999         -1.8447716138325632E-004
 -0.10139999999999999         -2.0595366368070245E-004
 -0.10080000000000000         -2.2991695732343942E-004
 -0.10020000000000000         -2.5661804829724133E-004
  -9.9599999999999994E-002    -2.8632592875510454E-004
  -9.9000000000000005E-002    -3.1932941055856645E-004
  -9.8400000000000001E-002    -3.5593882785178721E-004
  -9.7799999999999998E-002    -3.9648837991990149E-004
  -9.7199999999999995E-002    -4.4133840128779411E-004
  -9.6599999999999991E-002    -4.9087766092270613E-004
  -9.6000000000000002E-002    -5.4552621440961957E-004
  -9.5399999999999999E-002    -6.0573802329599857E-004
  -9.4799999999999995E-002    -6.7200348712503910E-004
  -9.4200000000000006E-002    -7.4485258664935827E-004
  -9.3600000000000003E-002    -8.2485738676041365E-004
  -9.2999999999999999E-002    -9.1263512149453163E-004
  -9.2399999999999996E-002    -1.0088505223393440E-003
  -9.1799999999999993E-002    -1.1142184957861900E-003
  -9.1200000000000003E-002    -1.2295071501284838E-003
  -9.0600000000000000E-002    -1.3555394252762198E-003
  -8.9999999999999997E-002    -1.4931962359696627E-003
  -8.9399999999999993E-002    -1.6434181015938520E-003
  -8.8799999999999990E-002    -1.8072081729769707E-003
  -8.8200000000000001E-002    -1.9856332801282406E-003
  -8.7599999999999997E-002    -2.1798273082822561E-003
  -8.6999999999999994E-002    -2.3909925948828459E-003
  -8.6400000000000005E-002    -2.6204015593975782E-003
  -8.5800000000000001E-002    -2.8693999629467726E-003
  -8.5199999999999998E-002    -3.1394078396260738E-003
  -8.4600000000000009E-002    -3.4319220576435328E-003
  -8.3999999999999991E-002    -3.7485172506421804E-003
  -8.3400000000000002E-002    -4.0908483788371086E-003
  -8.2799999999999999E-002    -4.4606509618461132E-003
  -8.2199999999999995E-002    -4.8597431741654873E-003
  -8.1600000000000006E-002    -5.2900258451700211E-003
  -8.0999999999999989E-002    -5.7534836232662201E-003
  -8.0399999999999999E-002    -6.2521826475858688E-003
  -7.9799999999999996E-002    -6.7882724106311798E-003
  -7.9199999999999993E-002    -7.3639815673232079E-003
  -7.8600000000000003E-002    -7.9816179350018501E-003
  -7.8000000000000000E-002    -8.6435647681355476E-003
  -7.7399999999999997E-002    -9.3522779643535614E-003
  -7.6800000000000007E-002    -1.0110280476510525E-002
  -7.6199999999999990E-002    -1.0920157656073570E-002
  -7.5600000000000001E-002    -1.1784551665186882E-002
  -7.4999999999999997E-002    -1.2706154957413673E-002
  -7.4399999999999994E-002    -1.3687700033187866E-002
  -7.3800000000000004E-002    -1.4731955714523792E-002
  -7.3200000000000001E-002    -1.5841711312532425E-002
  -7.2599999999999998E-002    -1.7019771039485931E-002
  -7.2000000000000008E-002    -1.8268942832946777E-002
  -7.1399999999999991E-002    -1.9592016935348511E-002
  -7.0800000000000002E-002    -2.0991763100028038E-002
  -7.0199999999999999E-002    -2.2470910102128983E-002
  -6.9599999999999995E-002    -2.4032130837440491E-002
  -6.9000000000000006E-002    -2.5678023695945740E-002
  -6.8400000000000002E-002    -2.7411097660660744E-002
  -6.7799999999999999E-002    -2.9233746230602264E-002
  -6.7200000000000010E-002    -3.1148230656981468E-002
  -6.6599999999999993E-002    -3.3156663179397583E-002
  -6.6000000000000003E-002    -3.5260967910289764E-002
  -6.5400000000000000E-002    -3.7462878972291946E-002
  -6.4799999999999996E-002    -3.9763893932104111E-002
  -6.4200000000000007E-002    -4.2165264487266541E-002
  -6.3600000000000004E-002    -4.4667951762676239E-002
  -6.3000000000000000E-002    -4.7272618860006332E-002
  -6.2399999999999997E-002    -4.9979586154222488E-002
  -6.1800000000000001E-002    -5.2788808941841125E-002
  -6.1199999999999997E-002    -5.5699855089187622E-002
  -6.0600000000000001E-002    -5.8711849153041840E-002
  -5.9999999999999998E-002    -6.1823479831218719E-002
  -5.9400000000000001E-002    -6.5032929182052612E-002
  -5.8799999999999998E-002    -6.8337880074977875E-002
  -5.8200000000000002E-002    -7.1735456585884094E-002
  -5.7599999999999998E-002    -7.5222216546535492E-002
  -5.6999999999999995E-002    -7.8794129192829132E-002
  -5.6400000000000006E-002    -8.2446508109569550E-002
  -5.5800000000000002E-002    -8.6174026131629944E-002
  -5.5199999999999999E-002    -8.9970692992210388E-002
  -5.4599999999999996E-002    -9.3829788267612457E-002
  -5.4000000000000006E-002    -9.7743891179561615E-002
  -5.3400000000000003E-002   -0.10170485079288483     
  -5.2800000000000000E-002   -0.10570374876260757     
  -5.2199999999999996E-002   -0.10973092913627625     
  -5.1600000000000007E-002   -0.11377593874931335     
  -5.1000000000000004E-002   -0.11782759428024292     
  -5.0400000000000000E-002   -0.12187388539314270     
  -4.9799999999999997E-002   -0.12590208649635315     
  -4.9200000000000008E-002   -0.12989868223667145     
  -4.8600000000000004E-002   -0.13384941220283508     
  -4.8000000000000001E-002   -0.13773928582668304     
  -4.7399999999999998E-002   -0.14155261218547821     
  -4.6800000000000008E-002   -0.14527304470539093     
  -4.6200000000000005E-002   -0.14888356626033783     
  -4.5600000000000002E-002   -0.15236654877662659     
  -4.4999999999999998E-002   -0.15570379793643951     
  -4.4400000000000009E-002   -0.15887665748596191     
  -4.3800000000000006E-002   -0.16186594963073730     
  -4.3200000000000002E-002   -0.16465215384960175     
  -4.2599999999999999E-002   -0.16721539199352264     
  -4.1999999999999996E-002   -0.16953553259372711     
  -4.1400000000000006E-002   -0.17159229516983032     
  -4.0800000000000003E-002   -0.17336529493331909     
  -4.0200000000000000E-002   -0.17483410239219666     
  -3.9599999999999996E-002   -0.17597843706607819     
  -3.9000000000000007E-002   -0.17677815258502960     
  -3.8400000000000004E-002   -0.17721347510814667     
  -3.7800000000000000E-002   -0.17726492881774902     
  -3.7199999999999997E-002   -0.17691358923912048     
  -3.6600000000000008E-002   -0.17614115774631500     
  -3.6000000000000004E-002   -0.17493005096912384     
  -3.5400000000000001E-002   -0.17326353490352631     
  -3.4799999999999998E-002   -0.17112582921981812     
  -3.4200000000000008E-002   -0.16850225627422333     
  -3.3600000000000005E-002   -0.16537931561470032     
  -3.3000000000000002E-002   -0.16174481809139252     
  -3.2399999999999998E-002   -0.15758801996707916     
  -3.1800000000000009E-002   -0.15289966762065887     
  -3.1200000000000006E-002   -0.14767223596572876     
  -3.0600000000000002E-002   -0.14189985394477844     
  -2.9999999999999999E-002   -0.13557852804660797     
  -2.9400000000000009E-002   -0.12870620191097260     
  -2.8800000000000006E-002   -0.12128286063671112     
  -2.8200000000000003E-002   -0.11331055313348770     
  -2.7600000000000000E-002   -0.10479351878166199     
  -2.7000000000000010E-002    -9.5738209784030914E-002
  -2.6400000000000007E-002    -8.6153365671634674E-002
  -2.5800000000000003E-002    -7.6050043106079102E-002
  -2.5200000000000000E-002    -6.5441645681858063E-002
  -2.4600000000000011E-002    -5.4343942552804947E-002
  -2.4000000000000007E-002    -4.2775075882673264E-002
  -2.3400000000000004E-002    -3.0755560845136642E-002
  -2.2800000000000001E-002    -1.8308244645595551E-002
  -2.2199999999999998E-002    -5.4583000019192696E-003
  -2.1600000000000008E-002     7.7668409794569016E-003
  -2.1000000000000005E-002     2.1337531507015228E-002
  -2.0400000000000001E-002     3.5221997648477554E-002
  -1.9799999999999998E-002     4.9386408179998398E-002
  -1.9200000000000009E-002     6.3794985413551331E-002
  -1.8600000000000005E-002     7.8410118818283081E-002
  -1.8000000000000002E-002     9.3192487955093384E-002
  -1.7399999999999999E-002    0.10810118168592453     
  -1.6800000000000009E-002    0.12309388816356659     
  -1.6200000000000006E-002    0.13812701404094696     
  -1.5600000000000003E-002    0.15315589308738708     
  -1.4999999999999999E-002    0.16813489794731140     
  -1.4400000000000010E-002    0.18301777541637421     
  -1.3800000000000007E-002    0.19775763154029846     
  -1.3200000000000003E-002    0.21230733394622803     
  -1.2600000000000000E-002    0.22661961615085602     
  -1.2000000000000011E-002    0.24064728617668152     
  -1.1400000000000007E-002    0.25434350967407227     
  -1.0800000000000004E-002    0.26766192913055420     
  -1.0200000000000001E-002    0.28055700659751892     
  -9.6000000000000113E-003    0.29298415780067444     
  -9.0000000000000080E-003    0.30489999055862427     
  -8.4000000000000047E-003    0.31626248359680176     
  -7.8000000000000014E-003    0.32703128457069397     
  -7.2000000000000119E-003    0.33716782927513123     
  -6.6000000000000086E-003    0.34663549065589905     
  -6.0000000000000053E-003    0.35539993643760681     
  -5.4000000000000020E-003    0.36342915892601013     
  -4.7999999999999987E-003    0.37069368362426758     
  -4.2000000000000093E-003    0.37716674804687500     
  -3.6000000000000060E-003    0.38282433152198792     
  -3.0000000000000027E-003    0.38764545321464539     
  -2.3999999999999994E-003    0.39161211252212524     
  -1.8000000000000099E-003    0.39470955729484558     
  -1.2000000000000066E-003    0.39692619442939758     
  -6.0000000000000331E-004    0.39825373888015747     
   0.0000000000000000         0.39868721365928650     
   5.9999999999998943E-004    0.39822503924369812     
   1.1999999999999927E-003    0.39686903357505798     
   1.7999999999999960E-003    0.39462429285049438     
   2.3999999999999994E-003    0.39149934053421021     
   2.9999999999999888E-003    0.38750588893890381     
   3.5999999999999921E-003    0.38265892863273621     
   4.1999999999999954E-003    0.37697663903236389     
   4.7999999999999987E-003    0.37048014998435974     
   5.3999999999999881E-003    0.36319363117218018     
   6.0000000000000053E-003    0.35514402389526367     
   6.5999999999999948E-003    0.34636095166206360     
   7.1999999999999842E-003    0.33687648177146912     
   7.8000000000000014E-003    0.32672512531280518     
   8.3999999999999908E-003    0.31594359874725342     
   8.9999999999999802E-003    0.30457046627998352     
   9.5999999999999974E-003    0.29264625906944275     
   1.0199999999999987E-002    0.28021299839019775     
   1.0800000000000004E-002    0.26731407642364502     
   1.1399999999999993E-002    0.25399416685104370     
   1.1999999999999983E-002    0.24029877781867981     
   1.2600000000000000E-002    0.22627419233322144     
   1.3199999999999990E-002    0.21196727454662323     
   1.3799999999999979E-002    0.19742511212825775     
   1.4399999999999996E-002    0.18269492685794830     
   1.4999999999999986E-002    0.16782377660274506     
   1.5600000000000003E-002    0.15285840630531311     
   1.6199999999999992E-002    0.13784500956535339     
   1.6799999999999982E-002    0.12282903492450714     
   1.7399999999999999E-002    0.10785503685474396     
   1.7999999999999988E-002     9.2966452240943909E-002
   1.8600000000000005E-002     7.8205436468124390E-002
   1.9199999999999995E-002     6.3612699508666992E-002
   1.9799999999999984E-002     4.9227416515350342E-002
   2.0400000000000001E-002     3.5087000578641891E-002
   2.0999999999999991E-002     2.1227048709988594E-002
   2.1599999999999980E-002     7.6811993494629860E-003
   2.2199999999999998E-002    -5.5189626291394234E-003
   2.2799999999999987E-002    -1.8343983218073845E-002
   2.3400000000000004E-002    -3.0766611918807030E-002
   2.3999999999999994E-002    -4.2761866003274918E-002
   2.4599999999999983E-002    -5.4307065904140472E-002
   2.5200000000000000E-002    -6.5381877124309540E-002
   2.5799999999999990E-002    -7.5968325138092041E-002
   2.6399999999999979E-002    -8.6050778627395630E-002
   2.6999999999999996E-002    -9.5615983009338379E-002
   2.7599999999999986E-002   -0.10465300083160400     
   2.8200000000000003E-002   -0.11315321922302246     
   2.8799999999999992E-002   -0.12111027538776398     
   2.9399999999999982E-002   -0.12852001190185547     
   2.9999999999999999E-002   -0.13538046181201935     
   3.0599999999999988E-002   -0.14169169962406158     
   3.1199999999999978E-002   -0.14745579659938812     
   3.1799999999999995E-002   -0.15267677605152130     
   3.2399999999999984E-002   -0.15736047923564911     
   3.3000000000000002E-002   -0.16151446104049683     
   3.3599999999999991E-002   -0.16514791548252106     
   3.4199999999999980E-002   -0.16827154159545898     
   3.4799999999999998E-002   -0.17089748382568359     
   3.5399999999999987E-002   -0.17303913831710815     
   3.6000000000000004E-002   -0.17471112310886383     
   3.6599999999999994E-002   -0.17592909932136536     
   3.7199999999999983E-002   -0.17670968174934387     
   3.7800000000000000E-002   -0.17707031965255737     
   3.8399999999999990E-002   -0.17702923715114594     
   3.8999999999999979E-002   -0.17660519480705261     
   3.9599999999999996E-002   -0.17581750452518463     
   4.0199999999999986E-002   -0.17468586564064026     
   4.0800000000000003E-002   -0.17323024570941925     
   4.1399999999999992E-002   -0.17147080600261688     
   4.1999999999999982E-002   -0.16942782700061798     
   4.2599999999999999E-002   -0.16712155938148499     
   4.3199999999999988E-002   -0.16457217931747437     
   4.3799999999999978E-002   -0.16179969906806946     
   4.4399999999999995E-002   -0.15882387757301331     
   4.4999999999999984E-002   -0.15566414594650269     
   4.5600000000000002E-002   -0.15233956277370453     
   4.6199999999999991E-002   -0.14886873960494995     
   4.6799999999999981E-002   -0.14526978135108948     
   4.7399999999999998E-002   -0.14156024158000946     
   4.7999999999999987E-002   -0.13775706291198730     
   4.8599999999999977E-002   -0.13387660682201385     
   4.9199999999999994E-002   -0.12993450462818146     
   4.9799999999999983E-002   -0.12594573199748993     
   5.0400000000000000E-002   -0.12192451953887939     
   5.0999999999999990E-002   -0.11788436770439148     
   5.1599999999999979E-002   -0.11383803933858871     
   5.2199999999999996E-002   -0.10979751497507095     
   5.2799999999999986E-002   -0.10577403008937836     
   5.3400000000000003E-002   -0.10177805274724960     
   5.3999999999999992E-002    -9.7819283604621887E-002
   5.4599999999999982E-002    -9.3906655907630920E-002
   5.5199999999999999E-002    -9.0048387646675110E-002
   5.5799999999999988E-002    -8.6251936852931976E-002
   5.6399999999999978E-002    -8.2524068653583527E-002
   5.6999999999999995E-002    -7.8870832920074463E-002
   5.7599999999999985E-002    -7.5297608971595764E-002
   5.8200000000000002E-002    -7.1809127926826477E-002
   5.8799999999999991E-002    -6.8409480154514313E-002
   5.9399999999999981E-002    -6.5102182328701019E-002
   5.9999999999999998E-002    -6.1890136450529099E-002
   6.0599999999999987E-002    -5.8775719255208969E-002
   6.1199999999999977E-002    -5.5760778486728668E-002
   6.1799999999999994E-002    -5.2846670150756836E-002
   6.2399999999999983E-002    -5.0034306943416595E-002
   6.3000000000000000E-002    -4.7324158251285553E-002
   6.3599999999999990E-002    -4.4716294854879379E-002
   6.4199999999999979E-002    -4.2210418730974197E-002
   6.4799999999999996E-002    -3.9805885404348373E-002
   6.5399999999999986E-002    -3.7501744925975800E-002
   6.5999999999999975E-002    -3.5296764224767685E-002
   6.6599999999999993E-002    -3.3189449459314346E-002
   6.7199999999999982E-002    -3.1178077682852745E-002
   6.7799999999999999E-002    -2.9260717332363129E-002
   6.8399999999999989E-002    -2.7435263618826866E-002
   6.8999999999999978E-002    -2.5699455291032791E-002
   6.9599999999999995E-002    -2.4050895124673843E-002
   7.0199999999999985E-002    -2.2487072274088860E-002
   7.0799999999999974E-002    -2.1005386486649513E-002
   7.1399999999999991E-002    -1.9603166729211807E-002
   7.1999999999999981E-002    -1.8277682363986969E-002
   7.2599999999999998E-002    -1.7026167362928391E-002
   7.3199999999999987E-002    -1.5845827758312225E-002
   7.3799999999999977E-002    -1.4733861200511456E-002
   7.4399999999999994E-002    -1.3687469996511936E-002
   7.4999999999999983E-002    -1.2703868560492992E-002
   7.5600000000000001E-002    -1.1780300177633762E-002
   7.6199999999999990E-002    -1.0914036072790623E-002
   7.6799999999999979E-002    -1.0102395899593830E-002
   7.7399999999999997E-002    -9.3427477404475212E-003
   7.7999999999999986E-002    -8.6325146257877350E-003
   7.8599999999999975E-002    -7.9691838473081589E-003
   7.9199999999999993E-002    -7.3503097519278526E-003
   7.9799999999999982E-002    -6.7735160700976849E-003
   8.0399999999999999E-002    -6.2365010380744934E-003
   8.0999999999999989E-002    -5.7370401918888092E-003
   8.1599999999999978E-002    -5.2729882299900055E-003
   8.2199999999999995E-002    -4.8422776162624359E-003
   8.2799999999999985E-002    -4.4429241679608822E-003
   8.3399999999999974E-002    -4.0730242617428303E-003
   8.3999999999999991E-002    -3.7307546008378267E-003
   8.4599999999999981E-002    -3.4143736120313406E-003
   8.5199999999999998E-002    -3.1222193501889706E-003
   8.5799999999999987E-002    -2.8527085669338703E-003
   8.6399999999999977E-002    -2.6043364778161049E-003
   8.6999999999999994E-002    -2.3756725713610649E-003
   8.7599999999999983E-002    -2.1653622388839722E-003
   8.8199999999999973E-002    -1.9721216522157192E-003
   8.8799999999999990E-002    -1.7947375308722258E-003
   8.9399999999999979E-002    -1.6320655122399330E-003
   8.9999999999999997E-002    -1.4830256113782525E-003
   9.0599999999999986E-002    -1.3466017553582788E-003
   9.1199999999999976E-002    -1.2218391057103872E-003
   9.1799999999999993E-002    -1.1078410316258669E-003
   9.2399999999999982E-002    -1.0037680622190237E-003
   9.2999999999999999E-002    -9.0883404482156038E-004
   9.3599999999999989E-002    -8.2230474799871445E-004
   9.4199999999999978E-002    -7.4349564965814352E-004
   9.4799999999999995E-002    -6.7176896845921874E-004
   9.5399999999999985E-002    -6.0653232503682375E-004
   9.5999999999999974E-002    -5.4723606444895267E-004
   9.6599999999999991E-002    -4.9337092787027359E-004
   9.7199999999999981E-002    -4.4446674291975796E-004
   9.7799999999999998E-002    -4.0008965879678726E-004
   9.8399999999999987E-002    -3.5984022542834282E-004
   9.8999999999999977E-002    -3.2335170544683933E-004
   9.9599999999999994E-002    -2.9028815333731472E-004
  0.10019999999999998         -2.6034211623482406E-004
  0.10079999999999997         -2.3323307686951011E-004
  0.10139999999999999         -2.0870534353889525E-004
  0.10199999999999998         -1.8652660946827382E-004
  0.10260000000000000         -1.6648571181576699E-004
  0.10319999999999999         -1.4839085633866489E-004
  0.10379999999999998         -1.3206877338234335E-004
  0.10439999999999999         -1.1736187298083678E-004
  0.10499999999999998         -1.0412761184852570E-004
  0.10559999999999997         -9.2236565251369029E-005
  0.10619999999999999         -8.1571153714321554E-005
  0.10679999999999998         -7.2024231485556811E-005
  0.10740000000000000         -6.3498016970697790E-005
  0.10799999999999998         -5.5903019529068843E-005
  0.10859999999999997         -4.9156897148350254E-005
  0.10919999999999999         -4.3183772504562512E-005
  0.10979999999999998         -3.7913487176410854E-005
  0.11040000000000000         -3.3280823117820546E-005
  0.11099999999999999         -2.9225080652395263E-005
  0.11159999999999998         -2.5689661924843676E-005
  0.11219999999999999         -2.2621699827141128E-005
  0.11279999999999998         -1.9971805159002542E-005
  0.11339999999999997         -1.7693866539048031E-005
  0.11399999999999999         -1.5744906704640016E-005
  0.11459999999999998         -1.4084930626268033E-005
  0.11520000000000000         -1.2676824553636834E-005
  0.11579999999999999         -1.1486378753033932E-005
  0.11639999999999998         -1.0482019206392579E-005
  0.11699999999999999         -9.6348703664261848E-006
  0.11759999999999998         -8.9186796685680747E-006
  0.11819999999999997         -8.3097575043211691E-006
  0.11879999999999999         -7.7866761785116978E-006
  0.11939999999999998         -7.3303317549289204E-006
  0.12000000000000000         -6.9239299591572490E-006
  0.12059999999999998         -6.5525687205081340E-006
  0.12119999999999997         -6.2036442614044063E-006
  0.12179999999999999         -5.8662062656367198E-006
  0.12239999999999998         -5.5314771998382639E-006
  0.12299999999999997         -5.1921238082286436E-006
  0.12359999999999999         -4.8426627472508699E-006
  0.12419999999999998         -4.4790685933548957E-006
  0.12479999999999999         -4.0986660678754561E-006
  0.12539999999999998         -3.7007882838224759E-006
  0.12599999999999997         -3.2854077289812267E-006
  0.12659999999999999         -2.8541626306832768E-006
  0.12719999999999998         -2.4094590571621666E-006
  0.12779999999999997         -1.9551296190911671E-006
  0.12839999999999999         -1.4955838878449867E-006
  0.12899999999999998         -1.0360241731177666E-006
  0.12959999999999999         -5.8234928701494937E-007
  0.13019999999999998         -1.4077812693358283E-007
  0.13079999999999997          2.8180929234622454E-007
  0.13139999999999996          6.7884320742450655E-007
  0.13200000000000001          1.0439807738293894E-006
  0.13260000000000000          1.3706953723158222E-006
  0.13319999999999999          1.6531656683582696E-006
  0.13379999999999997          1.8864076309910160E-006
  0.13439999999999996          2.0659815618273569E-006
  0.13500000000000001          2.1889081835979596E-006
  0.13560000000000000          2.2531157810590230E-006
  0.13619999999999999          2.2577723939321004E-006
  0.13679999999999998          2.2033882487448864E-006
  0.13739999999999997          2.0920024326187558E-006
  0.13799999999999996          1.9271858491265448E-006
  0.13860000000000000          1.7135429288828163E-006
  0.13919999999999999          1.4570632629329339E-006
  0.13979999999999998          1.1651280829028110E-006
  0.14039999999999997          8.4579897929870640E-007
  0.14099999999999996          5.0798377060345956E-007
  0.14160000000000000          1.6107834710510360E-007
  0.14219999999999999         -1.8524109179907100E-007
  0.14279999999999998         -5.2145816198390094E-007
  0.14339999999999997         -8.3836062003683764E-007
  0.14399999999999996         -1.1273749578322168E-006
  0.14460000000000001         -1.3809332131131669E-006
  0.14520000000000000         -1.5927511185509502E-006
  0.14579999999999999         -1.7573480590726831E-006
  0.14639999999999997         -1.8711980374064296E-006
  0.14699999999999996         -1.9321767013025237E-006
  0.14759999999999995         -1.9395993149373680E-006
  0.14820000000000000         -1.8945781903312309E-006
  0.14879999999999999         -1.7993972960539395E-006
  0.14939999999999998         -1.6581404906901298E-006
  0.14999999999999997         -1.4757492863282096E-006
  0.15059999999999996         -1.2583204807015136E-006
  0.15120000000000000         -1.0128004532816703E-006
  0.15179999999999999         -7.4641764058469562E-007
  0.15239999999999998         -4.6696138156221423E-007
  0.15299999999999997         -1.8227977705009835E-007
  0.15359999999999996          9.9984220014448510E-008
  0.15420000000000000          3.7249313322718081E-007
  0.15479999999999999          6.2844173953635618E-007
  0.15539999999999998          8.6173002955547418E-007
  0.15599999999999997          1.0671728887245990E-006
  0.15659999999999996          1.2404333347149077E-006
  0.15720000000000001          1.3782325822830899E-006
  0.15780000000000000          1.4783182678002049E-006
  0.15839999999999999          1.5394959973491495E-006
  0.15899999999999997          1.5616006976415520E-006
  0.15959999999999996          1.5454197637154721E-006
  0.16019999999999995          1.4925999494153075E-006
  0.16080000000000000          1.4056138297746656E-006
  0.16139999999999999          1.2876322443844401E-006
  0.16199999999999998          1.1421927865740145E-006
  0.16259999999999997          9.7343911420466611E-007
  0.16319999999999996          7.8569513561888016E-007
  0.16380000000000000          5.8347717413198552E-007
  0.16439999999999999          3.7133315800019773E-007
  0.16499999999999998          1.5373566952803230E-007
  0.16559999999999997         -6.4847910152820987E-008
  0.16619999999999996         -2.8030919452248781E-007
  0.16680000000000000         -4.8873874902710668E-007
  0.16739999999999999         -6.8655128870886983E-007
  0.16799999999999998         -8.7061863496273872E-007
  0.16859999999999997         -1.0380585990787949E-006
  0.16919999999999996         -1.1864309499287629E-006
  0.16980000000000001         -1.3135903600414167E-006
  0.17040000000000000         -1.4178118590280064E-006
  0.17099999999999999         -1.4978298850110150E-006
  0.17159999999999997         -1.5526334209425841E-006
  0.17219999999999996         -1.5815768392712926E-006
  0.17279999999999995         -1.5842543916733121E-006
  0.17340000000000000         -1.5608541161782341E-006
  0.17399999999999999         -1.5117632301553385E-006
  0.17459999999999998         -1.4378026662598131E-006
  0.17519999999999997         -1.3401722753769718E-006
  0.17579999999999996         -1.2205241546325851E-006
  0.17640000000000000         -1.0808987553900806E-006
  0.17699999999999999         -9.2382060756790452E-007
  0.17759999999999998         -7.5217070616417914E-007
  0.17819999999999997         -5.6918764812508016E-007
  0.17879999999999996         -3.7859950907659368E-007
  0.17940000000000000         -1.8403220281015820E-007
  0.17999999999999999          1.0338499834006143E-008
  0.18059999999999998          2.0029494862683350E-007
  0.18119999999999997          3.8183816286618821E-007
  0.18179999999999996          5.5114094266173197E-007
  0.18239999999999995          7.0462266421600361E-007
  0.18300000000000000          8.3919837834400823E-007
  0.18359999999999999          9.5213488293666160E-007
  0.18419999999999997          1.0415136557639926E-006
  0.18479999999999996          1.1059344160457840E-006
  0.18539999999999995          1.1449958492448786E-006
  0.18600000000000000          1.1587436574700405E-006
  0.18659999999999999          1.1481779438327067E-006
  0.18719999999999998          1.1148766816404532E-006
  0.18779999999999997          1.0608731599859311E-006
  0.18839999999999996          9.8886926025443245E-007
  0.18900000000000000          9.0186091483701603E-007
  0.18959999999999999          8.0312679529015440E-007
  0.19019999999999998          6.9596865159837762E-007
  0.19079999999999997          5.8370960687170736E-007
  0.19139999999999996          4.6953937271609902E-007
  0.19200000000000000          3.5636560369312065E-007
  0.19259999999999999          2.4670293896633666E-007
  0.19319999999999998          1.4283152438565594E-007
  0.19379999999999997          4.6388144880893378E-008
  0.19439999999999996         -4.1309554887902777E-008
  0.19499999999999995         -1.1942633193484653E-007
  0.19560000000000000         -1.8750193930827663E-007
  0.19619999999999999         -2.4547301791244536E-007
  0.19679999999999997         -2.9346591645662556E-007
  0.19739999999999996         -3.3186341852342593E-007
  0.19799999999999995         -3.6112851375946775E-007
  0.19860000000000000         -3.8182699313438206E-007
  0.19919999999999999         -3.9446140931431728E-007
  0.19979999999999998         -3.9945240359884338E-007
  0.20039999999999997         -3.9712287502879917E-007
  0.20099999999999996         -3.8767279875173699E-007
  0.20160000000000000         -3.7110186212885310E-007
  0.20219999999999999         -3.4731181131064659E-007
  0.20279999999999998         -3.1611699569111806E-007
  0.20339999999999997         -2.7722313689082512E-007
  0.20399999999999996         -2.3041317831484776E-007
  0.20459999999999995         -1.7551228381762485E-007
  0.20519999999999999         -1.1255608001192741E-007
  0.20579999999999998         -4.1781884618785625E-008
  0.20639999999999997          3.6212959741988016E-008