 -0.12000000000000000          0.0000000000000000     
 -0.11939999999999999          0.0000000000000000     
 -0.11879999999999999          0.0000000000000000     
 -0.11820000000000000          0.0000000000000000     
 -0.11760000000000000          0.0000000000000000     
 -0.11699999999999999          0.0000000000000000     
 -0.11639999999999999          0.0000000000000000     
 -0.11580000000000000          0.0000000000000000     
 -0.11520000000000000          0.0000000000000000     
 -0.11459999999999999          0.0000000000000000     
 -0.11399999999999999          0.0000000000000000     
 -0.11340000000000000          0.0000000000000000     
 -0.11280000000000000          0.0000000000000000     
 -0.11219999999999999          0.0000000000000000     
 -0.11159999999999999          0.0000000000000000     
 -0.11100000000000000          0.0000000000000000     
 -0.11040000000000000          0.0000000000000000     
 -0.10979999999999999          0.0000000000000000     
 -0.10919999999999999          0.0000000000000000     
 -0.10860000000000000          0.0000000000000000     
 -0.10800000000000000          0.0000000000000000     
 -0.10740000000000000          0.0000000000000000     
 -0.10679999999999999          0.0000000000000000     
 -0.10620000000000000          0.0000000000000000     
 -0.10560000000000000          0.0000000000000000     
 -0.10500000000000000          0.0000000000000000     
 -0.10439999999999999          0.0000000000000000     
 -0.10380000000000000          0.0000000000000000     
 -0.10320000000000000          0.0000000000000000     
 -0.10260000000000000          0.0000000000000000     
 -0.10199999999999999          0.0000000000000000     
 -0.10139999999999999          0.0000000000000000     
 -0.10080000000000000          0.0000000000000000     
 -0.10020000000000000          0.0000000000000000     
  -9.9599999999999994E-002     0.0000000000000000     
  -9.9000000000000005E-002     0.0000000000000000     
  -9.8400000000000001E-002     0.0000000000000000     
  -9.7799999999999998E-002     0.0000000000000000     
  -9.7199999999999995E-002     0.0000000000000000     
  -9.6599999999999991E-002     0.0000000000000000     
  -9.6000000000000002E-002     0.0000000000000000     
  -9.5399999999999999E-002     0.0000000000000000     
  -9.4799999999999995E-002     0.0000000000000000     
  -9.4200000000000006E-002     0.0000000000000000     
  -9.3600000000000003E-002     0.0000000000000000     
  -9.2999999999999999E-002     0.0000000000000000     
  -9.2399999999999996E-002     0.0000000000000000     
  -9.1799999999999993E-002     0.0000000000000000     
  -9.1200000000000003E-002     0.0000000000000000     
  -9.0600000000000000E-002     0.0000000000000000     
  -8.9999999999999997E-002     0.0000000000000000     
  -8.9399999999999993E-002     0.0000000000000000     
  -8.8799999999999990E-002     0.0000000000000000     
  -8.8200000000000001E-002     0.0000000000000000     
  -8.7599999999999997E-002     0.0000000000000000     
  -8.6999999999999994E-002     0.0000000000000000     
  -8.6400000000000005E-002     0.0000000000000000     
  -8.5800000000000001E-002     0.0000000000000000     
  -8.5199999999999998E-002     0.0000000000000000     
  -8.4600000000000009E-002     0.0000000000000000     
  -8.3999999999999991E-002     0.0000000000000000     
  -8.3400000000000002E-002     0.0000000000000000     
  -8.2799999999999999E-002     0.0000000000000000     
  -8.2199999999999995E-002     0.0000000000000000     
  -8.1600000000000006E-002     0.0000000000000000     
  -8.0999999999999989E-002     0.0000000000000000     
  -8.0399999999999999E-002     0.0000000000000000     
  -7.9799999999999996E-002     0.0000000000000000     
  -7.9199999999999993E-002     0.0000000000000000     
  -7.8600000000000003E-002     0.0000000000000000     
  -7.8000000000000000E-002     0.0000000000000000     
  -7.7399999999999997E-002     0.0000000000000000     
  -7.6800000000000007E-002     0.0000000000000000     
  -7.6199999999999990E-002     0.0000000000000000     
  -7.5600000000000001E-002     0.0000000000000000     
  -7.4999999999999997E-002     0.0000000000000000     
  -7.4399999999999994E-002     0.0000000000000000     
  -7.3800000000000004E-002     0.0000000000000000     
  -7.3200000000000001E-002     0.0000000000000000     
  -7.2599999999999998E-002     0.0000000000000000     
  -7.2000000000000008E-002     0.0000000000000000     
  -7.1399999999999991E-002     0.0000000000000000     
  -7.0800000000000002E-002     0.0000000000000000     
  -7.0199999999999999E-002     0.0000000000000000     
  -6.9599999999999995E-002     0.0000000000000000     
  -6.9000000000000006E-002     0.0000000000000000     
  -6.8400000000000002E-002     0.0000000000000000     
  -6.7799999999999999E-002     0.0000000000000000     
  -6.7200000000000010E-002     0.0000000000000000     
  -6.6599999999999993E-002     0.0000000000000000     
  -6.6000000000000003E-002     0.0000000000000000     
  -6.5400000000000000E-002     0.0000000000000000     
  -6.4799999999999996E-002     0.0000000000000000     
  -6.4200000000000007E-002     0.0000000000000000     
  -6.3600000000000004E-002     0.0000000000000000     
  -6.3000000000000000E-002     0.0000000000000000     
  -6.2399999999999997E-002     0.0000000000000000     
  -6.1800000000000001E-002     0.0000000000000000     
  -6.1199999999999997E-002     0.0000000000000000     
  -6.0600000000000001E-002     0.0000000000000000     
  -5.9999999999999998E-002     0.0000000000000000     
  -5.9400000000000001E-002     0.0000000000000000     
  -5.8799999999999998E-002     0.0000000000000000     
  -5.8200000000000002E-002     0.0000000000000000     
  -5.7599999999999998E-002     0.0000000000000000     
  -5.6999999999999995E-002     0.0000000000000000     
  -5.6400000000000006E-002     0.0000000000000000     
  -5.5800000000000002E-002     0.0000000000000000     
  -5.5199999999999999E-002     0.0000000000000000     
  -5.4599999999999996E-002     0.0000000000000000     
  -5.4000000000000006E-002     0.0000000000000000     
  -5.3400000000000003E-002     0.0000000000000000     
  -5.2800000000000000E-002     0.0000000000000000     
  -5.2199999999999996E-002     0.0000000000000000     
  -5.1600000000000007E-002     0.0000000000000000     
  -5.1000000000000004E-002     0.0000000000000000     
  -5.0400000000000000E-002     0.0000000000000000     
  -4.9799999999999997E-002     0.0000000000000000     
  -4.9200000000000008E-002     0.0000000000000000     
  -4.8600000000000004E-002     0.0000000000000000     
  -4.8000000000000001E-002     0.0000000000000000     
  -4.7399999999999998E-002     0.0000000000000000     
  -4.6800000000000008E-002     0.0000000000000000     
  -4.6200000000000005E-002     0.0000000000000000     
  -4.5600000000000002E-002     0.0000000000000000     
  -4.4999999999999998E-002     0.0000000000000000     
  -4.4400000000000009E-002     0.0000000000000000     
  -4.3800000000000006E-002     0.0000000000000000     
  -4.3200000000000002E-002     0.0000000000000000     
  -4.2599999999999999E-002     0.0000000000000000     
  -4.1999999999999996E-002     0.0000000000000000     
  -4.1400000000000006E-002     0.0000000000000000     
  -4.0800000000000003E-002     0.0000000000000000     
  -4.0200000000000000E-002     0.0000000000000000     
  -3.9599999999999996E-002     0.0000000000000000     
  -3.9000000000000007E-002     0.0000000000000000     
  -3.8400000000000004E-002     0.0000000000000000     
  -3.7800000000000000E-002     0.0000000000000000     
  -3.7199999999999997E-002     0.0000000000000000     
  -3.6600000000000008E-002     0.0000000000000000     
  -3.6000000000000004E-002     0.0000000000000000     
  -3.5400000000000001E-002     0.0000000000000000     
  -3.4799999999999998E-002     0.0000000000000000     
  -3.4200000000000008E-002     0.0000000000000000     
  -3.3600000000000005E-002     0.0000000000000000     
  -3.3000000000000002E-002     0.0000000000000000     
  -3.2399999999999998E-002     0.0000000000000000     
  -3.1800000000000009E-002     0.0000000000000000     
  -3.1200000000000006E-002     0.0000000000000000     
  -3.0600000000000002E-002     0.0000000000000000     
  -2.9999999999999999E-002     0.0000000000000000     
  -2.9400000000000009E-002     0.0000000000000000     
  -2.8800000000000006E-002     0.0000000000000000     
  -2.8200000000000003E-002     0.0000000000000000     
  -2.7600000000000000E-002     0.0000000000000000     
  -2.7000000000000010E-002     0.0000000000000000     
  -2.6400000000000007E-002     0.0000000000000000     
  -2.5800000000000003E-002     0.0000000000000000     
  -2.5200000000000000E-002     0.0000000000000000     
  -2.4600000000000011E-002     0.0000000000000000     
  -2.4000000000000007E-002     0.0000000000000000     
  -2.3400000000000004E-002     0.0000000000000000     
  -2.2800000000000001E-002     0.0000000000000000     
  -2.2199999999999998E-002     0.0000000000000000     
  -2.1600000000000008E-002     0.0000000000000000     
  -2.1000000000000005E-002     0.0000000000000000     
  -2.0400000000000001E-002     0.0000000000000000     
  -1.9799999999999998E-002     0.0000000000000000     
  -1.9200000000000009E-002     0.0000000000000000     
  -1.8600000000000005E-002     0.0000000000000000     
  -1.8000000000000002E-002     0.0000000000000000     
  -1.7399999999999999E-002     0.0000000000000000     
  -1.6800000000000009E-002     0.0000000000000000     
  -1.6200000000000006E-002     0.0000000000000000     
  -1.5600000000000003E-002     0.0000000000000000     
  -1.4999999999999999E-002     0.0000000000000000     
  -1.4400000000000010E-002     0.0000000000000000     
  -1.3800000000000007E-002     0.0000000000000000     
  -1.3200000000000003E-002     0.0000000000000000     
  -1.2600000000000000E-002     0.0000000000000000     
  -1.2000000000000011E-002     0.0000000000000000     
  -1.1400000000000007E-002     0.0000000000000000     
  -1.0800000000000004E-002     0.0000000000000000     
  -1.0200000000000001E-002     0.0000000000000000     
  -9.6000000000000113E-003     0.0000000000000000     
  -9.0000000000000080E-003     0.0000000000000000     
  -8.4000000000000047E-003     0.0000000000000000     
  -7.8000000000000014E-003     0.0000000000000000     
  -7.2000000000000119E-003     0.0000000000000000     
  -6.6000000000000086E-003     0.0000000000000000     
  -6.0000000000000053E-003     0.0000000000000000     
  -5.4000000000000020E-003     0.0000000000000000     
  -4.7999999999999987E-003     0.0000000000000000     
  -4.2000000000000093E-003     0.0000000000000000     
  -3.6000000000000060E-003     0.0000000000000000     
  -3.0000000000000027E-003     0.0000000000000000     
  -2.3999999999999994E-003     0.0000000000000000     
  -1.8000000000000099E-003     0.0000000000000000     
  -1.2000000000000066E-003     0.0000000000000000     
  -6.0000000000000331E-004     0.0000000000000000     
   0.0000000000000000          0.0000000000000000     
   5.9999999999998943E-004     0.0000000000000000     
   1.1999999999999927E-003     0.0000000000000000     
   1.7999999999999960E-003     0.0000000000000000     
   2.3999999999999994E-003     0.0000000000000000     
   2.9999999999999888E-003     0.0000000000000000     
   3.5999999999999921E-003     0.0000000000000000     
   4.1999999999999954E-003     0.0000000000000000     
   4.7999999999999987E-003     0.0000000000000000     
   5.3999999999999881E-003     0.0000000000000000     
   6.0000000000000053E-003     0.0000000000000000     
   6.5999999999999948E-003     0.0000000000000000     
   7.1999999999999842E-003     0.0000000000000000     
   7.8000000000000014E-003     0.0000000000000000     
   8.3999999999999908E-003     0.0000000000000000     
   8.9999999999999802E-003     0.0000000000000000     
   9.5999999999999974E-003     0.0000000000000000     
   1.0199999999999987E-002     0.0000000000000000     
   1.0800000000000004E-002     0.0000000000000000     
   1.1399999999999993E-002     0.0000000000000000     
   1.1999999999999983E-002     0.0000000000000000     
   1.2600000000000000E-002     0.0000000000000000     
   1.3199999999999990E-002     0.0000000000000000     
   1.3799999999999979E-002     0.0000000000000000     
   1.4399999999999996E-002     0.0000000000000000     
   1.4999999999999986E-002     0.0000000000000000     
   1.5600000000000003E-002     0.0000000000000000     
   1.6199999999999992E-002     0.0000000000000000     
   1.6799999999999982E-002     0.0000000000000000     
   1.7399999999999999E-002     0.0000000000000000     
   1.7999999999999988E-002     0.0000000000000000     
   1.8600000000000005E-002     0.0000000000000000     
   1.9199999999999995E-002     0.0000000000000000     
   1.9799999999999984E-002     0.0000000000000000     
   2.0400000000000001E-002     0.0000000000000000     
   2.0999999999999991E-002     0.0000000000000000     
   2.1599999999999980E-002     0.0000000000000000     
   2.2199999999999998E-002     0.0000000000000000     
   2.2799999999999987E-002     0.0000000000000000     
   2.3400000000000004E-002     0.0000000000000000     
   2.3999999999999994E-002     0.0000000000000000     
   2.4599999999999983E-002     0.0000000000000000     
   2.5200000000000000E-002     0.0000000000000000     
   2.5799999999999990E-002     0.0000000000000000     
   2.6399999999999979E-002     0.0000000000000000     
   2.6999999999999996E-002     0.0000000000000000     
   2.7599999999999986E-002     0.0000000000000000     
   2.8200000000000003E-002     0.0000000000000000     
   2.8799999999999992E-002     0.0000000000000000     
   2.9399999999999982E-002     0.0000000000000000     
   2.9999999999999999E-002     0.0000000000000000     
   3.0599999999999988E-002     0.0000000000000000     
   3.1199999999999978E-002     0.0000000000000000     
   3.1799999999999995E-002     0.0000000000000000     
   3.2399999999999984E-002     0.0000000000000000     
   3.3000000000000002E-002     0.0000000000000000     
   3.3599999999999991E-002     0.0000000000000000     
   3.4199999999999980E-002     0.0000000000000000     
   3.4799999999999998E-002     0.0000000000000000     
   3.5399999999999987E-002     0.0000000000000000     
   3.6000000000000004E-002     0.0000000000000000     
   3.6599999999999994E-002     0.0000000000000000     
   3.7199999999999983E-002     0.0000000000000000     
   3.7800000000000000E-002     0.0000000000000000     
   3.8399999999999990E-002     0.0000000000000000     
   3.8999999999999979E-002     0.0000000000000000     
   3.9599999999999996E-002     0.0000000000000000     
   4.0199999999999986E-002     0.0000000000000000     
   4.0800000000000003E-002     0.0000000000000000     
   4.1399999999999992E-002     0.0000000000000000     
   4.1999999999999982E-002     0.0000000000000000     
   4.2599999999999999E-002     0.0000000000000000     
   4.3199999999999988E-002     0.0000000000000000     
   4.3799999999999978E-002     0.0000000000000000     
   4.4399999999999995E-002     0.0000000000000000     
   4.4999999999999984E-002     0.0000000000000000     
   4.5600000000000002E-002     0.0000000000000000     
   4.6199999999999991E-002     0.0000000000000000     
   4.6799999999999981E-002     0.0000000000000000     
   4.7399999999999998E-002     0.0000000000000000     
   4.7999999999999987E-002     0.0000000000000000     
   4.8599999999999977E-002     0.0000000000000000     
   4.9199999999999994E-002     0.0000000000000000     
   4.9799999999999983E-002     0.0000000000000000     
   5.0400000000000000E-002     0.0000000000000000     
   5.0999999999999990E-002     0.0000000000000000     
   5.1599999999999979E-002     0.0000000000000000     
   5.2199999999999996E-002     0.0000000000000000     
   5.2799999999999986E-002     0.0000000000000000     
   5.3400000000000003E-002     0.0000000000000000     
   5.3999999999999992E-002     0.0000000000000000     
   5.4599999999999982E-002     0.0000000000000000     
   5.5199999999999999E-002     0.0000000000000000     
   5.5799999999999988E-002     0.0000000000000000     
   5.6399999999999978E-002     0.0000000000000000     
   5.6999999999999995E-002     0.0000000000000000     
   5.7599999999999985E-002     0.0000000000000000     
   5.8200000000000002E-002     0.0000000000000000     
   5.8799999999999991E-002     0.0000000000000000     
   5.9399999999999981E-002     0.0000000000000000     
   5.9999999999999998E-002     0.0000000000000000     
   6.0599999999999987E-002     0.0000000000000000     
   6.1199999999999977E-002     0.0000000000000000     
   6.1799999999999994E-002     0.0000000000000000     
   6.2399999999999983E-002     0.0000000000000000     
   6.3000000000000000E-002     0.0000000000000000     
   6.3599999999999990E-002     0.0000000000000000     
   6.4199999999999979E-002     0.0000000000000000     
   6.4799999999999996E-002     0.0000000000000000     
   6.5399999999999986E-002     0.0000000000000000     
   6.5999999999999975E-002     0.0000000000000000     
   6.6599999999999993E-002     0.0000000000000000     
   6.7199999999999982E-002     0.0000000000000000     
   6.7799999999999999E-002     0.0000000000000000     
   6.8399999999999989E-002     0.0000000000000000     
   6.8999999999999978E-002     0.0000000000000000     
   6.9599999999999995E-002     0.0000000000000000     
   7.0199999999999985E-002     0.0000000000000000     
   7.0799999999999974E-002     0.0000000000000000     
   7.1399999999999991E-002     0.0000000000000000     
   7.1999999999999981E-002     0.0000000000000000     
   7.2599999999999998E-002     0.0000000000000000     
   7.3199999999999987E-002     0.0000000000000000     
   7.3799999999999977E-002     0.0000000000000000     
   7.4399999999999994E-002     0.0000000000000000     
   7.4999999999999983E-002     0.0000000000000000     
   7.5600000000000001E-002     0.0000000000000000     
   7.6199999999999990E-002     0.0000000000000000     
   7.6799999999999979E-002     0.0000000000000000     
   7.7399999999999997E-002     0.0000000000000000     
   7.7999999999999986E-002     0.0000000000000000     
   7.8599999999999975E-002     0.0000000000000000     
   7.9199999999999993E-002     0.0000000000000000     
   7.9799999999999982E-002     0.0000000000000000     
   8.0399999999999999E-002     0.0000000000000000     
   8.0999999999999989E-002     0.0000000000000000     
   8.1599999999999978E-002     0.0000000000000000     
   8.2199999999999995E-002     0.0000000000000000     
   8.2799999999999985E-002     0.0000000000000000     
   8.3399999999999974E-002     0.0000000000000000     
   8.3999999999999991E-002     0.0000000000000000     
   8.4599999999999981E-002     0.0000000000000000     
   8.5199999999999998E-002     0.0000000000000000     
   8.5799999999999987E-002     0.0000000000000000     
   8.6399999999999977E-002     0.0000000000000000     
   8.6999999999999994E-002     0.0000000000000000     
   8.7599999999999983E-002     0.0000000000000000     
   8.8199999999999973E-002     0.0000000000000000     
   8.8799999999999990E-002     0.0000000000000000     
   8.9399999999999979E-002     0.0000000000000000     
   8.9999999999999997E-002     0.0000000000000000     
   9.0599999999999986E-002     0.0000000000000000     
   9.1199999999999976E-002     0.0000000000000000     
   9.1799999999999993E-002     0.0000000000000000     
   9.2399999999999982E-002     0.0000000000000000     
   9.2999999999999999E-002     0.0000000000000000     
   9.3599999999999989E-002     0.0000000000000000     
   9.4199999999999978E-002     0.0000000000000000     
   9.4799999999999995E-002     0.0000000000000000     
   9.5399999999999985E-002     0.0000000000000000     
   9.5999999999999974E-002     0.0000000000000000     
   9.6599999999999991E-002     0.0000000000000000     
   9.7199999999999981E-002     0.0000000000000000     
   9.7799999999999998E-002     0.0000000000000000     
   9.8399999999999987E-002     0.0000000000000000     
   9.8999999999999977E-002     0.0000000000000000     
   9.9599999999999994E-002     0.0000000000000000     
  0.10019999999999998          0.0000000000000000     
  0.10079999999999997          0.0000000000000000     
  0.10139999999999999          0.0000000000000000     
  0.10199999999999998          0.0000000000000000     
  0.10260000000000000          0.0000000000000000     
  0.10319999999999999          0.0000000000000000     
  0.10379999999999998          0.0000000000000000     
  0.10439999999999999          0.0000000000000000     
  0.10499999999999998          0.0000000000000000     
  0.10559999999999997          0.0000000000000000     
  0.10619999999999999          0.0000000000000000     
  0.10679999999999998          0.0000000000000000     
  0.10740000000000000          0.0000000000000000     
  0.10799999999999998          0.0000000000000000     
  0.10859999999999997          0.0000000000000000     
  0.10919999999999999          0.0000000000000000     
  0.10979999999999998          0.0000000000000000     
  0.11040000000000000          0.0000000000000000     
  0.11099999999999999          0.0000000000000000     
  0.11159999999999998          0.0000000000000000     
  0.11219999999999999          0.0000000000000000     
  0.11279999999999998          0.0000000000000000     
  0.11339999999999997          0.0000000000000000     
  0.11399999999999999          0.0000000000000000     
  0.11459999999999998          0.0000000000000000     
  0.11520000000000000          0.0000000000000000     
  0.11579999999999999          0.0000000000000000     
  0.11639999999999998          0.0000000000000000     
  0.11699999999999999          0.0000000000000000     
  0.11759999999999998          0.0000000000000000     
  0.11819999999999997          0.0000000000000000     
  0.11879999999999999          0.0000000000000000     
  0.11939999999999998          0.0000000000000000     
  0.12000000000000000          0.0000000000000000     
  0.12059999999999998          0.0000000000000000     
  0.12119999999999997          0.0000000000000000     
  0.12179999999999999          0.0000000000000000     
  0.12239999999999998          0.0000000000000000     
  0.12299999999999997          0.0000000000000000     
  0.12359999999999999          0.0000000000000000     
  0.12419999999999998          0.0000000000000000     
  0.12479999999999999          0.0000000000000000     
  0.12539999999999998          0.0000000000000000     
  0.12599999999999997          0.0000000000000000     
  0.12659999999999999          0.0000000000000000     
  0.12719999999999998          0.0000000000000000     
  0.12779999999999997          0.0000000000000000     
  0.12839999999999999          0.0000000000000000     
  0.12899999999999998          0.0000000000000000     
  0.12959999999999999          0.0000000000000000     
  0.13019999999999998          0.0000000000000000     
  0.13079999999999997          0.0000000000000000     
  0.13139999999999996          0.0000000000000000     
  0.13200000000000001          0.0000000000000000     
  0.13260000000000000          0.0000000000000000     
  0.13319999999999999          0.0000000000000000     
  0.13379999999999997          0.0000000000000000     
  0.13439999999999996          0.0000000000000000     
  0.13500000000000001          0.0000000000000000     
  0.13560000000000000          0.0000000000000000     
  0.13619999999999999          0.0000000000000000     
  0.13679999999999998          0.0000000000000000     
  0.13739999999999997          0.0000000000000000     
  0.13799999999999996          0.0000000000000000     
  0.13860000000000000          0.0000000000000000     
  0.13919999999999999          0.0000000000000000     
  0.13979999999999998          0.0000000000000000     
  0.14039999999999997          0.0000000000000000     
  0.14099999999999996          0.0000000000000000     
  0.14160000000000000          0.0000000000000000     
  0.14219999999999999          0.0000000000000000     
  0.14279999999999998          0.0000000000000000     
  0.14339999999999997          0.0000000000000000     
  0.14399999999999996          0.0000000000000000     
  0.14460000000000001          0.0000000000000000     
  0.14520000000000000          0.0000000000000000     
  0.14579999999999999          0.0000000000000000     
  0.14639999999999997          0.0000000000000000     
  0.14699999999999996          0.0000000000000000     
  0.14759999999999995          0.0000000000000000     
  0.14820000000000000          0.0000000000000000     
  0.14879999999999999          0.0000000000000000     
  0.14939999999999998          0.0000000000000000     
  0.14999999999999997          0.0000000000000000     
  0.15059999999999996          0.0000000000000000     
  0.15120000000000000          0.0000000000000000     
  0.15179999999999999          0.0000000000000000     
  0.15239999999999998          0.0000000000000000     
  0.15299999999999997          0.0000000000000000     
  0.15359999999999996          0.0000000000000000     
  0.15420000000000000          0.0000000000000000     
  0.15479999999999999          0.0000000000000000     
  0.15539999999999998          0.0000000000000000     
  0.15599999999999997          0.0000000000000000     
  0.15659999999999996          0.0000000000000000     
  0.15720000000000001          0.0000000000000000     
  0.15780000000000000          0.0000000000000000     
  0.15839999999999999          0.0000000000000000     
  0.15899999999999997          0.0000000000000000     
  0.15959999999999996          0.0000000000000000     
  0.16019999999999995          0.0000000000000000     
  0.16080000000000000          0.0000000000000000     
  0.16139999999999999          0.0000000000000000     
  0.16199999999999998          0.0000000000000000     
  0.16259999999999997          0.0000000000000000     
  0.16319999999999996          0.0000000000000000     
  0.16380000000000000          0.0000000000000000     
  0.16439999999999999          0.0000000000000000     
  0.16499999999999998          0.0000000000000000     
  0.16559999999999997          0.0000000000000000     
  0.16619999999999996          0.0000000000000000     
  0.16680000000000000          0.0000000000000000     
  0.16739999999999999          0.0000000000000000     
  0.16799999999999998          0.0000000000000000     
  0.16859999999999997          0.0000000000000000     
  0.16919999999999996          0.0000000000000000     
  0.16980000000000001          0.0000000000000000     
  0.17040000000000000          0.0000000000000000     
  0.17099999999999999          0.0000000000000000     
  0.17159999999999997          0.0000000000000000     
  0.17219999999999996          0.0000000000000000     
  0.17279999999999995          0.0000000000000000     
  0.17340000000000000          0.0000000000000000     
  0.17399999999999999          0.0000000000000000     
  0.17459999999999998          0.0000000000000000     
  0.17519999999999997          0.0000000000000000     
  0.17579999999999996          0.0000000000000000     
  0.17640000000000000          0.0000000000000000     
  0.17699999999999999          0.0000000000000000     
  0.17759999999999998          0.0000000000000000     
  0.17819999999999997          0.0000000000000000     
  0.17879999999999996          0.0000000000000000     
  0.17940000000000000          0.0000000000000000     
  0.17999999999999999          0.0000000000000000     
  0.18059999999999998          0.0000000000000000     
  0.18119999999999997          0.0000000000000000     
  0.18179999999999996          0.0000000000000000     
  0.18239999999999995          0.0000000000000000     
  0.18300000000000000          0.0000000000000000     
  0.18359999999999999          0.0000000000000000     
  0.18419999999999997          0.0000000000000000     
  0.18479999999999996          0.0000000000000000     
  0.18539999999999995          0.0000000000000000     
  0.18600000000000000          0.0000000000000000     
  0.18659999999999999          0.0000000000000000     
  0.18719999999999998          0.0000000000000000     
  0.18779999999999997          0.0000000000000000     
  0.18839999999999996          0.0000000000000000     
  0.18900000000000000          0.0000000000000000     
  0.18959999999999999          0.0000000000000000     
  0.19019999999999998          0.0000000000000000     
  0.19079999999999997          0.0000000000000000     
  0.19139999999999996          0.0000000000000000     
  0.19200000000000000          0.0000000000000000     
  0.19259999999999999          0.0000000000000000     
  0.19319999999999998          0.0000000000000000     
  0.19379999999999997          0.0000000000000000     
  0.19439999999999996          0.0000000000000000     
  0.19499999999999995          0.0000000000000000     
  0.19560000000000000          0.0000000000000000     
  0.19619999999999999          0.0000000000000000     
  0.19679999999999997          0.0000000000000000     
  0.19739999999999996          0.0000000000000000     
  0.19799999999999995          0.0000000000000000     
  0.19860000000000000          0.0000000000000000     
  0.19919999999999999          0.0000000000000000     
  0.19979999999999998          0.0000000000000000     
  0.20039999999999997          0.0000000000000000     
  0.20099999999999996          0.0000000000000000     
  0.20160000000000000          0.0000000000000000     
  0.20219999999999999          0.0000000000000000     
  0.20279999999999998          0.0000000000000000     
  0.20339999999999997          0.0000000000000000     
  0.20399999999999996          0.0000000000000000     
  0.20459999999999995          0.0000000000000000     
  0.20519999999999999          0.0000000000000000     
  0.20579999999999998          0.0000000000000000     
  0.20639999999999997          0.0000000000000000     