-0.1200000E+00  0.0000000E+00
-0.1194000E+00  0.0000000E+00
-0.1188000E+00  0.0000000E+00
-0.1182000E+00  0.0000000E+00
-0.1176000E+00  0.0000000E+00
-0.1170000E+00  0.0000000E+00
-0.1164000E+00  0.0000000E+00
-0.1158000E+00  0.0000000E+00
-0.1152000E+00  0.0000000E+00
-0.1146000E+00  0.0000000E+00
-0.1140000E+00  0.0000000E+00
-0.1134000E+00  0.0000000E+00
-0.1128000E+00  0.0000000E+00
-0.1122000E+00  0.0000000E+00
-0.1116000E+00  0.0000000E+00
-0.1110000E+00  0.0000000E+00
-0.1104000E+00  0.0000000E+00
-0.1098000E+00  0.0000000E+00
-0.1092000E+00  0.0000000E+00
-0.1086000E+00  0.0000000E+00
-0.1080000E+00  0.0000000E+00
-0.1074000E+00  0.0000000E+00
-0.1068000E+00  0.0000000E+00
-0.1062000E+00  0.0000000E+00
-0.1056000E+00  0.0000000E+00
-0.1050000E+00  0.0000000E+00
-0.1044000E+00  0.0000000E+00
-0.1038000E+00  0.0000000E+00
-0.1032000E+00  0.0000000E+00
-0.1026000E+00  0.0000000E+00
-0.1020000E+00  0.0000000E+00
-0.1014000E+00  0.0000000E+00
-0.1008000E+00  0.0000000E+00
-0.1002000E+00  0.0000000E+00
-0.9960000E-01  0.0000000E+00
-0.9900000E-01  0.0000000E+00
-0.9840000E-01  0.0000000E+00
-0.9780000E-01  0.0000000E+00
-0.9720000E-01  0.0000000E+00
-0.9660000E-01  0.0000000E+00
-0.9600000E-01  0.0000000E+00
-0.9540000E-01  0.0000000E+00
-0.9480000E-01  0.0000000E+00
-0.9420000E-01  0.0000000E+00
-0.9360000E-01  0.0000000E+00
-0.9300000E-01  0.0000000E+00
-0.9240000E-01  0.0000000E+00
-0.9180000E-01  0.0000000E+00
-0.9120000E-01  0.0000000E+00
-0.9060000E-01  0.0000000E+00
-0.9000000E-01  0.0000000E+00
-0.8940000E-01  0.0000000E+00
-0.8880000E-01  0.0000000E+00
-0.8820000E-01  0.0000000E+00
-0.8760000E-01  0.0000000E+00
-0.8700000E-01  0.0000000E+00
-0.8640000E-01  0.0000000E+00
-0.8580000E-01  0.0000000E+00
-0.8520000E-01  0.0000000E+00
-0.8460000E-01  0.0000000E+00
-0.8400000E-01  0.0000000E+00
-0.8340000E-01  0.0000000E+00
-0.8280000E-01  0.0000000E+00
-0.8220000E-01  0.0000000E+00
-0.8160000E-01  0.0000000E+00
-0.8100000E-01  0.0000000E+00
-0.8040000E-01  0.0000000E+00
-0.7980000E-01  0.0000000E+00
-0.7920000E-01  0.0000000E+00
-0.7860000E-01  0.0000000E+00
-0.7800000E-01  0.0000000E+00
-0.7740000E-01  0.0000000E+00
-0.7680000E-01  0.0000000E+00
-0.7620000E-01  0.0000000E+00
-0.7560000E-01  0.0000000E+00
-0.7500000E-01  0.0000000E+00
-0.7440000E-01  0.0000000E+00
-0.7380000E-01  0.0000000E+00
-0.7320000E-01  0.0000000E+00
-0.7260000E-01  0.0000000E+00
-0.7200000E-01  0.0000000E+00
-0.7140000E-01  0.0000000E+00
-0.7080000E-01  0.0000000E+00
-0.7020000E-01  0.0000000E+00
-0.6960000E-01  0.0000000E+00
-0.6900000E-01  0.0000000E+00
-0.6840000E-01  0.0000000E+00
-0.6780000E-01  0.0000000E+00
-0.6720000E-01  0.0000000E+00
-0.6660000E-01  0.0000000E+00
-0.6600000E-01  0.0000000E+00
-0.6540000E-01  0.0000000E+00
-0.6480000E-01  0.0000000E+00
-0.6420000E-01  0.0000000E+00
-0.6360000E-01  0.0000000E+00
-0.6300000E-01  0.0000000E+00
-0.6240000E-01  0.0000000E+00
-0.6180000E-01  0.0000000E+00
-0.6120000E-01  0.0000000E+00
-0.6060000E-01  0.0000000E+00
-0.6000000E-01  0.0000000E+00
-0.5940000E-01  0.0000000E+00
-0.5880000E-01  0.0000000E+00
-0.5820000E-01  0.0000000E+00
-0.5760000E-01  0.0000000E+00
-0.5700000E-01  0.0000000E+00
-0.5640000E-01  0.0000000E+00
-0.5580000E-01  0.0000000E+00
-0.5520000E-01  0.0000000E+00
-0.5460000E-01  0.0000000E+00
-0.5400000E-01  0.0000000E+00
-0.5340000E-01  0.0000000E+00
-0.5280000E-01  0.0000000E+00
-0.5220000E-01  0.0000000E+00
-0.5160000E-01  0.0000000E+00
-0.5100000E-01  0.0000000E+00
-0.5040000E-01  0.0000000E+00
-0.4980000E-01  0.0000000E+00
-0.4920000E-01  0.0000000E+00
-0.4860000E-01  0.0000000E+00
-0.4800000E-01  0.0000000E+00
-0.4740000E-01  0.0000000E+00
-0.4680000E-01  0.0000000E+00
-0.4620000E-01  0.0000000E+00
-0.4560000E-01  0.0000000E+00
-0.4500000E-01  0.0000000E+00
-0.4440000E-01  0.0000000E+00
-0.4380000E-01  0.0000000E+00
-0.4320000E-01  0.0000000E+00
-0.4260000E-01  0.0000000E+00
-0.4200000E-01  0.0000000E+00
-0.4140000E-01  0.0000000E+00
-0.4080000E-01  0.0000000E+00
-0.4020000E-01  0.0000000E+00
-0.3960000E-01  0.0000000E+00
-0.3900000E-01  0.0000000E+00
-0.3840000E-01  0.0000000E+00
-0.3780000E-01  0.0000000E+00
-0.3720000E-01  0.0000000E+00
-0.3660000E-01  0.0000000E+00
-0.3600000E-01  0.0000000E+00
-0.3540000E-01  0.0000000E+00
-0.3480000E-01  0.0000000E+00
-0.3420000E-01  0.0000000E+00
-0.3360000E-01  0.0000000E+00
-0.3300000E-01  0.0000000E+00
-0.3240000E-01  0.0000000E+00
-0.3180000E-01  0.0000000E+00
-0.3120000E-01  0.0000000E+00
-0.3060000E-01  0.0000000E+00
-0.3000000E-01  0.0000000E+00
-0.2940000E-01  0.0000000E+00
-0.2880000E-01  0.0000000E+00
-0.2820000E-01  0.0000000E+00
-0.2760000E-01  0.0000000E+00
-0.2700000E-01  0.0000000E+00
-0.2640000E-01  0.0000000E+00
-0.2580000E-01  0.0000000E+00
-0.2520000E-01  0.0000000E+00
-0.2460000E-01  0.0000000E+00
-0.2400000E-01  0.0000000E+00
-0.2340000E-01  0.0000000E+00
-0.2280000E-01  0.0000000E+00
-0.2220000E-01  0.0000000E+00
-0.2160000E-01  0.0000000E+00
-0.2100000E-01  0.0000000E+00
-0.2040000E-01  0.0000000E+00
-0.1980000E-01  0.0000000E+00
-0.1920000E-01  0.0000000E+00
-0.1860000E-01  0.0000000E+00
-0.1800000E-01  0.0000000E+00
-0.1740000E-01  0.0000000E+00
-0.1680000E-01  0.0000000E+00
-0.1620000E-01  0.0000000E+00
-0.1560000E-01  0.0000000E+00
-0.1500000E-01  0.0000000E+00
-0.1440000E-01  0.0000000E+00
-0.1380000E-01  0.0000000E+00
-0.1320000E-01  0.0000000E+00
-0.1260000E-01  0.0000000E+00
-0.1200000E-01  0.0000000E+00
-0.1140000E-01  0.0000000E+00
-0.1080000E-01  0.0000000E+00
-0.1020000E-01  0.0000000E+00
-0.9600000E-02  0.0000000E+00
-0.9000000E-02  0.0000000E+00
-0.8400000E-02  0.0000000E+00
-0.7800000E-02  0.0000000E+00
-0.7200000E-02  0.0000000E+00
-0.6600000E-02  0.0000000E+00
-0.6000000E-02  0.0000000E+00
-0.5400000E-02  0.0000000E+00
-0.4800000E-02  0.0000000E+00
-0.4200000E-02  0.0000000E+00
-0.3600000E-02  0.0000000E+00
-0.3000000E-02  0.0000000E+00
-0.2400000E-02  0.0000000E+00
-0.1800000E-02  0.0000000E+00
-0.1200000E-02  0.0000000E+00
-0.6000000E-03  0.0000000E+00
 0.0000000E+00  0.0000000E+00
 0.6000000E-03  0.0000000E+00
 0.1200000E-02  0.0000000E+00
 0.1800000E-02  0.0000000E+00
 0.2400000E-02  0.0000000E+00
 0.3000000E-02  0.0000000E+00
 0.3600000E-02  0.0000000E+00
 0.4200000E-02  0.0000000E+00
 0.4800000E-02  0.0000000E+00
 0.5400000E-02  0.0000000E+00
 0.6000000E-02  0.0000000E+00
 0.6600000E-02  0.0000000E+00
 0.7200000E-02  0.0000000E+00
 0.7800000E-02  0.0000000E+00
 0.8400000E-02  0.0000000E+00
 0.9000000E-02  0.0000000E+00
 0.9600000E-02  0.0000000E+00
 0.1020000E-01  0.0000000E+00
 0.1080000E-01  0.0000000E+00
 0.1140000E-01  0.0000000E+00
 0.1200000E-01  0.0000000E+00
 0.1260000E-01  0.0000000E+00
 0.1320000E-01  0.0000000E+00
 0.1380000E-01  0.0000000E+00
 0.1440000E-01  0.0000000E+00
 0.1500000E-01  0.0000000E+00
 0.1560000E-01  0.0000000E+00
 0.1620000E-01  0.0000000E+00
 0.1680000E-01  0.0000000E+00
 0.1740000E-01  0.0000000E+00
 0.1800000E-01  0.0000000E+00
 0.1860000E-01  0.0000000E+00
 0.1920000E-01  0.0000000E+00
 0.1980000E-01  0.0000000E+00
 0.2040000E-01  0.0000000E+00
 0.2100000E-01  0.0000000E+00
 0.2160000E-01  0.0000000E+00
 0.2220000E-01  0.0000000E+00
 0.2280000E-01  0.0000000E+00
 0.2340000E-01  0.0000000E+00
 0.2400000E-01  0.0000000E+00
 0.2460000E-01  0.0000000E+00
 0.2520000E-01  0.0000000E+00
 0.2580000E-01  0.0000000E+00
 0.2640000E-01  0.0000000E+00
 0.2700000E-01  0.0000000E+00
 0.2760000E-01  0.0000000E+00
 0.2820000E-01  0.0000000E+00
 0.2880000E-01  0.0000000E+00
 0.2940000E-01  0.0000000E+00
 0.3000000E-01  0.0000000E+00
 0.3060000E-01  0.0000000E+00
 0.3120000E-01  0.0000000E+00
 0.3180000E-01  0.0000000E+00
 0.3240000E-01  0.0000000E+00
 0.3300000E-01  0.0000000E+00
 0.3360000E-01  0.0000000E+00
 0.3420000E-01  0.0000000E+00
 0.3480000E-01  0.0000000E+00
 0.3540000E-01  0.0000000E+00
 0.3600000E-01  0.0000000E+00
 0.3660000E-01  0.0000000E+00
 0.3720000E-01  0.0000000E+00
 0.3780000E-01  0.0000000E+00
 0.3840000E-01  0.0000000E+00
 0.3900000E-01  0.0000000E+00
 0.3960000E-01  0.0000000E+00
 0.4020000E-01  0.0000000E+00
 0.4080000E-01  0.0000000E+00
 0.4140000E-01  0.0000000E+00
 0.4200000E-01  0.0000000E+00
 0.4260000E-01  0.0000000E+00
 0.4320000E-01  0.0000000E+00
 0.4380000E-01  0.0000000E+00
 0.4440000E-01  0.0000000E+00
 0.4500000E-01  0.0000000E+00
 0.4560000E-01  0.0000000E+00
 0.4620000E-01  0.0000000E+00
 0.4680000E-01  0.0000000E+00
 0.4740000E-01  0.0000000E+00
 0.4800000E-01  0.0000000E+00
 0.4860000E-01  0.0000000E+00
 0.4920000E-01  0.0000000E+00
 0.4980000E-01  0.0000000E+00
 0.5040000E-01  0.0000000E+00
 0.5100000E-01  0.0000000E+00
 0.5160000E-01  0.0000000E+00
 0.5220000E-01  0.0000000E+00
 0.5280000E-01  0.0000000E+00
 0.5340000E-01  0.0000000E+00
 0.5400000E-01  0.0000000E+00
 0.5460000E-01  0.0000000E+00
 0.5520000E-01  0.0000000E+00
 0.5580000E-01  0.0000000E+00
 0.5640000E-01  0.0000000E+00
 0.5700000E-01  0.0000000E+00
 0.5760000E-01  0.0000000E+00
 0.5820000E-01  0.0000000E+00
 0.5880000E-01  0.0000000E+00
 0.5940000E-01  0.0000000E+00
 0.6000000E-01  0.0000000E+00
 0.6060000E-01  0.0000000E+00
 0.6120000E-01  0.0000000E+00
 0.6180000E-01  0.0000000E+00
 0.6240000E-01  0.0000000E+00
 0.6300000E-01  0.0000000E+00
 0.6360000E-01  0.0000000E+00
 0.6420000E-01  0.0000000E+00
 0.6480000E-01  0.0000000E+00
 0.6540000E-01  0.0000000E+00
 0.6600000E-01  0.0000000E+00
 0.6660000E-01  0.0000000E+00
 0.6720000E-01  0.0000000E+00
 0.6780000E-01  0.0000000E+00
 0.6840000E-01  0.0000000E+00
 0.6900000E-01  0.0000000E+00
 0.6960000E-01  0.0000000E+00
 0.7020000E-01  0.0000000E+00
 0.7080000E-01  0.0000000E+00
 0.7140000E-01  0.0000000E+00
 0.7200000E-01  0.0000000E+00
 0.7260000E-01  0.0000000E+00
 0.7320000E-01  0.0000000E+00
 0.7380000E-01  0.0000000E+00
 0.7440000E-01  0.0000000E+00
 0.7500000E-01  0.0000000E+00
 0.7560000E-01  0.0000000E+00
 0.7620000E-01  0.0000000E+00
 0.7680000E-01  0.0000000E+00
 0.7740000E-01  0.0000000E+00
 0.7800000E-01  0.0000000E+00
 0.7860000E-01  0.0000000E+00
 0.7920000E-01  0.0000000E+00
 0.7980000E-01  0.0000000E+00
 0.8040000E-01  0.0000000E+00
 0.8100000E-01  0.0000000E+00
 0.8160000E-01  0.0000000E+00
 0.8220000E-01  0.0000000E+00
 0.8280000E-01  0.0000000E+00
 0.8340000E-01  0.0000000E+00
 0.8400000E-01  0.0000000E+00
 0.8460000E-01  0.0000000E+00
 0.8520000E-01  0.0000000E+00
 0.8580000E-01  0.0000000E+00
 0.8640000E-01  0.0000000E+00
 0.8700000E-01  0.0000000E+00
 0.8760000E-01  0.0000000E+00
 0.8820000E-01  0.0000000E+00
 0.8880000E-01  0.0000000E+00
 0.8940000E-01  0.0000000E+00
 0.9000000E-01  0.0000000E+00
 0.9060000E-01  0.0000000E+00
 0.9120000E-01  0.0000000E+00
 0.9180000E-01  0.0000000E+00
 0.9240000E-01  0.0000000E+00
 0.9300000E-01  0.0000000E+00
 0.9360000E-01  0.0000000E+00
 0.9420000E-01  0.0000000E+00
 0.9480000E-01  0.0000000E+00
 0.9540000E-01  0.0000000E+00
 0.9600000E-01  0.0000000E+00
 0.9660000E-01  0.0000000E+00
 0.9720000E-01  0.0000000E+00
 0.9780000E-01  0.0000000E+00
 0.9840000E-01  0.0000000E+00
 0.9900000E-01  0.0000000E+00
 0.9960000E-01  0.0000000E+00
 0.1002000E+00  0.0000000E+00
 0.1008000E+00  0.0000000E+00
 0.1014000E+00  0.0000000E+00
 0.1020000E+00  0.0000000E+00
 0.1026000E+00  0.0000000E+00
 0.1032000E+00  0.0000000E+00
 0.1038000E+00  0.0000000E+00
 0.1044000E+00  0.0000000E+00
 0.1050000E+00  0.0000000E+00
 0.1056000E+00  0.0000000E+00
 0.1062000E+00  0.0000000E+00
 0.1068000E+00  0.0000000E+00
 0.1074000E+00  0.0000000E+00
 0.1080000E+00  0.0000000E+00
 0.1086000E+00  0.0000000E+00
 0.1092000E+00  0.0000000E+00
 0.1098000E+00  0.0000000E+00
 0.1104000E+00  0.0000000E+00
 0.1110000E+00  0.0000000E+00
 0.1116000E+00  0.0000000E+00
 0.1122000E+00  0.0000000E+00
 0.1128000E+00  0.0000000E+00
 0.1134000E+00  0.0000000E+00
 0.1140000E+00  0.0000000E+00
 0.1146000E+00  0.0000000E+00
 0.1152000E+00  0.0000000E+00
 0.1158000E+00  0.0000000E+00
 0.1164000E+00  0.0000000E+00
 0.1170000E+00  0.0000000E+00
 0.1176000E+00  0.0000000E+00
 0.1182000E+00  0.0000000E+00
 0.1188000E+00  0.0000000E+00
 0.1194000E+00  0.0000000E+00
 0.1200000E+00  0.0000000E+00
 0.1206000E+00  0.0000000E+00
 0.1212000E+00  0.0000000E+00
 0.1218000E+00  0.0000000E+00
 0.1224000E+00  0.0000000E+00
 0.1230000E+00  0.0000000E+00
 0.1236000E+00  0.0000000E+00
 0.1242000E+00  0.0000000E+00
 0.1248000E+00  0.0000000E+00
 0.1254000E+00  0.0000000E+00
 0.1260000E+00  0.0000000E+00
 0.1266000E+00  0.0000000E+00
 0.1272000E+00  0.0000000E+00
 0.1278000E+00  0.0000000E+00
 0.1284000E+00  0.0000000E+00
 0.1290000E+00  0.0000000E+00
 0.1296000E+00  0.0000000E+00
 0.1302000E+00  0.0000000E+00
 0.1308000E+00  0.0000000E+00
 0.1314000E+00  0.0000000E+00
 0.1320000E+00  0.0000000E+00
 0.1326000E+00  0.0000000E+00
 0.1332000E+00  0.0000000E+00
 0.1338000E+00  0.0000000E+00
 0.1344000E+00  0.0000000E+00
 0.1350000E+00  0.0000000E+00
 0.1356000E+00  0.0000000E+00
 0.1362000E+00  0.0000000E+00
 0.1368000E+00  0.0000000E+00
 0.1374000E+00  0.0000000E+00
 0.1380000E+00  0.0000000E+00
 0.1386000E+00  0.0000000E+00
 0.1392000E+00  0.0000000E+00
 0.1398000E+00  0.0000000E+00
 0.1404000E+00  0.0000000E+00
 0.1410000E+00  0.0000000E+00
 0.1416000E+00  0.0000000E+00
 0.1422000E+00  0.0000000E+00
 0.1428000E+00  0.0000000E+00
 0.1434000E+00  0.0000000E+00
 0.1440000E+00  0.0000000E+00
 0.1446000E+00  0.0000000E+00
 0.1452000E+00  0.0000000E+00
 0.1458000E+00  0.0000000E+00
 0.1464000E+00  0.0000000E+00
 0.1470000E+00  0.0000000E+00
 0.1476000E+00  0.0000000E+00
 0.1482000E+00  0.0000000E+00
 0.1488000E+00  0.0000000E+00
 0.1494000E+00  0.0000000E+00
 0.1500000E+00  0.0000000E+00
 0.1506000E+00  0.0000000E+00
 0.1512000E+00  0.0000000E+00
 0.1518000E+00  0.0000000E+00
 0.1524000E+00  0.0000000E+00
 0.1530000E+00  0.0000000E+00
 0.1536000E+00  0.0000000E+00
 0.1542000E+00  0.0000000E+00
 0.1548000E+00  0.0000000E+00
 0.1554000E+00  0.0000000E+00
 0.1560000E+00  0.0000000E+00
 0.1566000E+00  0.0000000E+00
 0.1572000E+00  0.0000000E+00
 0.1578000E+00  0.0000000E+00
 0.1584000E+00  0.0000000E+00
 0.1590000E+00  0.0000000E+00
 0.1596000E+00  0.0000000E+00
 0.1602000E+00  0.0000000E+00
 0.1608000E+00  0.0000000E+00
 0.1614000E+00  0.0000000E+00
 0.1620000E+00  0.0000000E+00
 0.1626000E+00  0.0000000E+00
 0.1632000E+00  0.0000000E+00
 0.1638000E+00  0.0000000E+00
 0.1644000E+00  0.0000000E+00
 0.1650000E+00  0.0000000E+00
 0.1656000E+00  0.0000000E+00
 0.1662000E+00  0.0000000E+00
 0.1668000E+00  0.0000000E+00
 0.1674000E+00  0.0000000E+00
 0.1680000E+00  0.0000000E+00
 0.1686000E+00  0.0000000E+00
 0.1692000E+00  0.0000000E+00
 0.1698000E+00  0.0000000E+00
 0.1704000E+00  0.0000000E+00
 0.1710000E+00  0.0000000E+00
 0.1716000E+00  0.0000000E+00
 0.1722000E+00  0.0000000E+00
 0.1728000E+00  0.0000000E+00
 0.1734000E+00  0.0000000E+00
 0.1740000E+00  0.0000000E+00
 0.1746000E+00  0.0000000E+00
 0.1752000E+00  0.0000000E+00
 0.1758000E+00  0.0000000E+00
 0.1764000E+00  0.0000000E+00
 0.1770000E+00  0.0000000E+00
 0.1776000E+00  0.0000000E+00
 0.1782000E+00  0.0000000E+00
 0.1788000E+00  0.0000000E+00
 0.1794000E+00  0.0000000E+00
 0.1800000E+00  0.0000000E+00
 0.1806000E+00  0.0000000E+00
 0.1812000E+00  0.0000000E+00
 0.1818000E+00  0.0000000E+00
 0.1824000E+00  0.0000000E+00
 0.1830000E+00  0.0000000E+00
 0.1836000E+00  0.0000000E+00
 0.1842000E+00  0.0000000E+00
 0.1848000E+00  0.0000000E+00
 0.1854000E+00  0.0000000E+00
 0.1860000E+00  0.0000000E+00
 0.1866000E+00  0.0000000E+00
 0.1872000E+00  0.0000000E+00
 0.1878000E+00  0.0000000E+00
 0.1884000E+00  0.0000000E+00
 0.1890000E+00  0.0000000E+00
 0.1896000E+00  0.0000000E+00
 0.1902000E+00  0.0000000E+00
 0.1908000E+00  0.0000000E+00
 0.1914000E+00  0.0000000E+00
 0.1920000E+00  0.0000000E+00
 0.1926000E+00  0.0000000E+00
 0.1932000E+00  0.0000000E+00
 0.1938000E+00  0.0000000E+00
 0.1944000E+00  0.0000000E+00
 0.1950000E+00  0.0000000E+00
 0.1956000E+00  0.0000000E+00
 0.1962000E+00  0.0000000E+00
 0.1968000E+00  0.0000000E+00
 0.1974000E+00  0.0000000E+00
 0.1980000E+00  0.0000000E+00
 0.1986000E+00  0.0000000E+00
 0.1992000E+00  0.0000000E+00
 0.1998000E+00  0.0000000E+00
 0.2004000E+00  0.0000000E+00
 0.2010000E+00  0.0000000E+00
 0.2016000E+00  0.0000000E+00
 0.2022000E+00  0.0000000E+00
 0.2028000E+00  0.0000000E+00
 0.2034000E+00  0.0000000E+00
 0.2040000E+00  0.0000000E+00
 0.2046000E+00  0.0000000E+00
 0.2052000E+00  0.0000000E+00
 0.2058000E+00  0.0000000E+00
 0.2064000E+00  0.0000000E+00
 0.2070000E+00  0.0000000E+00
 0.2076000E+00  0.0000000E+00
 0.2082000E+00  0.0000000E+00
 0.2088000E+00  0.0000000E+00
 0.2094000E+00  0.0000000E+00
 0.2100000E+00  0.0000000E+00
 0.2106000E+00  0.0000000E+00
 0.2112000E+00  0.0000000E+00
 0.2118000E+00  0.0000000E+00
 0.2124000E+00  0.0000000E+00
 0.2130000E+00  0.0000000E+00
 0.2136000E+00  0.0000000E+00
 0.2142000E+00  0.0000000E+00
 0.2148000E+00  0.0000000E+00
 0.2154000E+00  0.0000000E+00
 0.2160000E+00  0.0000000E+00
 0.2166000E+00  0.0000000E+00
 0.2172000E+00  0.0000000E+00
 0.2178000E+00  0.0000000E+00
 0.2184000E+00  0.0000000E+00
 0.2190000E+00  0.0000000E+00
 0.2196000E+00  0.0000000E+00
 0.2202000E+00  0.0000000E+00
 0.2208000E+00  0.0000000E+00
 0.2214000E+00  0.0000000E+00
 0.2220000E+00  0.0000000E+00
 0.2226000E+00  0.0000000E+00
 0.2232000E+00  0.0000000E+00
 0.2238000E+00  0.0000000E+00
 0.2244000E+00  0.0000000E+00
 0.2250000E+00  0.0000000E+00
 0.2256000E+00  0.0000000E+00
 0.2262000E+00  0.0000000E+00
 0.2268000E+00  0.0000000E+00
 0.2274000E+00  0.0000000E+00
 0.2280000E+00  0.0000000E+00
 0.2286000E+00  0.0000000E+00
 0.2292000E+00  0.0000000E+00
 0.2298000E+00  0.0000000E+00
 0.2304000E+00  0.0000000E+00
 0.2310000E+00  0.0000000E+00
 0.2316000E+00  0.0000000E+00
 0.2322000E+00  0.0000000E+00
 0.2328000E+00  0.0000000E+00
 0.2334000E+00  0.0000000E+00
 0.2340000E+00  0.0000000E+00
 0.2346000E+00  0.0000000E+00
 0.2352000E+00  0.0000000E+00
 0.2358000E+00  0.0000000E+00
 0.2364000E+00  0.0000000E+00
 0.2370000E+00  0.0000000E+00
 0.2376000E+00  0.0000000E+00
 0.2382000E+00  0.0000000E+00
 0.2388000E+00  0.0000000E+00
 0.2394000E+00  0.0000000E+00
 0.2400000E+00  0.0000000E+00
 0.2406000E+00  0.0000000E+00
 0.2412000E+00  0.0000000E+00
 0.2418000E+00  0.0000000E+00
 0.2424000E+00  0.0000000E+00
 0.2430000E+00  0.0000000E+00
 0.2436000E+00  0.0000000E+00
 0.2442000E+00  0.0000000E+00
 0.2448000E+00  0.0000000E+00
 0.2454000E+00  0.0000000E+00
 0.2460000E+00  0.0000000E+00
 0.2466000E+00  0.0000000E+00
 0.2472000E+00  0.0000000E+00
 0.2478000E+00  0.0000000E+00
 0.2484000E+00  0.0000000E+00
 0.2490000E+00  0.0000000E+00
 0.2496000E+00  0.0000000E+00
 0.2502000E+00  0.0000000E+00
 0.2508000E+00  0.0000000E+00
 0.2514000E+00  0.0000000E+00
 0.2520000E+00  0.0000000E+00
 0.2526000E+00  0.0000000E+00
 0.2532000E+00  0.0000000E+00
 0.2538000E+00  0.0000000E+00
 0.2544000E+00  0.0000000E+00
 0.2550000E+00  0.0000000E+00
 0.2556000E+00  0.0000000E+00
 0.2562000E+00  0.0000000E+00
 0.2568000E+00  0.0000000E+00
 0.2574000E+00  0.0000000E+00
 0.2580000E+00  0.0000000E+00
 0.2586000E+00  0.0000000E+00
 0.2592000E+00  0.0000000E+00
 0.2598000E+00  0.0000000E+00
 0.2604000E+00  0.0000000E+00
 0.2610000E+00  0.0000000E+00
 0.2616000E+00  0.0000000E+00
 0.2622000E+00  0.0000000E+00
 0.2628000E+00  0.0000000E+00
 0.2634000E+00  0.0000000E+00
 0.2640000E+00  0.0000000E+00
 0.2646000E+00  0.0000000E+00
 0.2652000E+00  0.0000000E+00
 0.2658000E+00  0.0000000E+00
 0.2664000E+00  0.0000000E+00
 0.2670000E+00  0.0000000E+00
 0.2676000E+00  0.0000000E+00
 0.2682000E+00  0.0000000E+00
 0.2688000E+00  0.0000000E+00
 0.2694000E+00  0.0000000E+00
 0.2700000E+00  0.0000000E+00
 0.2706000E+00  0.0000000E+00
 0.2712000E+00  0.0000000E+00
 0.2718000E+00  0.0000000E+00
 0.2724000E+00  0.0000000E+00
 0.2730000E+00  0.0000000E+00
 0.2736000E+00  0.0000000E+00
 0.2742000E+00  0.0000000E+00
 0.2748000E+00  0.0000000E+00
 0.2754000E+00  0.0000000E+00
 0.2760000E+00  0.0000000E+00
 0.2766000E+00  0.0000000E+00
 0.2772000E+00  0.0000000E+00
 0.2778000E+00  0.0000000E+00
 0.2784000E+00  0.0000000E+00
 0.2790000E+00  0.0000000E+00
 0.2796000E+00  0.0000000E+00
 0.2802000E+00  0.0000000E+00
 0.2808000E+00  0.0000000E+00
 0.2814000E+00  0.0000000E+00
 0.2820000E+00  0.0000000E+00
 0.2826000E+00  0.0000000E+00
 0.2832000E+00  0.0000000E+00
 0.2838000E+00  0.0000000E+00
 0.2844000E+00  0.0000000E+00
 0.2850000E+00  0.0000000E+00
 0.2856000E+00  0.0000000E+00
 0.2862000E+00  0.0000000E+00
 0.2868000E+00  0.0000000E+00
 0.2874000E+00  0.0000000E+00
 0.2880000E+00  0.0000000E+00
 0.2886000E+00  0.0000000E+00
 0.2892000E+00  0.0000000E+00
 0.2898000E+00  0.0000000E+00
 0.2904000E+00  0.0000000E+00
 0.2910000E+00  0.0000000E+00
 0.2916000E+00  0.0000000E+00
 0.2922000E+00  0.0000000E+00
 0.2928000E+00  0.0000000E+00
 0.2934000E+00  0.0000000E+00
 0.2940000E+00  0.0000000E+00
 0.2946000E+00  0.0000000E+00
 0.2952000E+00  0.0000000E+00
 0.2958000E+00  0.0000000E+00
 0.2964000E+00  0.0000000E+00
 0.2970000E+00  0.0000000E+00
 0.2976000E+00  0.0000000E+00
 0.2982000E+00  0.0000000E+00
 0.2988000E+00  0.0000000E+00
 0.2994000E+00  0.0000000E+00
 0.3000000E+00  0.0000000E+00
 0.3006000E+00  0.0000000E+00
 0.3012000E+00  0.0000000E+00
 0.3018000E+00  0.0000000E+00
 0.3024000E+00  0.0000000E+00
 0.3030000E+00  0.0000000E+00
 0.3036000E+00  0.0000000E+00
 0.3042000E+00  0.0000000E+00
 0.3048000E+00  0.0000000E+00
 0.3054000E+00  0.0000000E+00
 0.3060000E+00  0.0000000E+00
 0.3066000E+00  0.0000000E+00
 0.3072000E+00  0.0000000E+00
 0.3078000E+00  0.0000000E+00
 0.3084000E+00  0.0000000E+00
 0.3090000E+00  0.0000000E+00
 0.3096000E+00  0.0000000E+00
 0.3102000E+00  0.0000000E+00
 0.3108000E+00  0.0000000E+00
 0.3114000E+00  0.0000000E+00
 0.3120000E+00  0.0000000E+00
 0.3126000E+00  0.0000000E+00
 0.3132000E+00  0.0000000E+00
 0.3138000E+00  0.0000000E+00
 0.3144000E+00  0.0000000E+00
 0.3150000E+00  0.0000000E+00
 0.3156000E+00  0.0000000E+00
 0.3162000E+00  0.0000000E+00
 0.3168000E+00  0.0000000E+00
 0.3174000E+00  0.0000000E+00
 0.3180000E+00  0.0000000E+00
 0.3186000E+00  0.0000000E+00
 0.3192000E+00  0.0000000E+00
 0.3198000E+00  0.0000000E+00
 0.3204000E+00  0.0000000E+00
 0.3210000E+00  0.0000000E+00
 0.3216000E+00  0.0000000E+00
 0.3222000E+00  0.0000000E+00
 0.3228000E+00  0.0000000E+00
 0.3234000E+00  0.0000000E+00
 0.3240000E+00  0.0000000E+00
 0.3246000E+00  0.0000000E+00
 0.3252000E+00  0.0000000E+00
 0.3258000E+00  0.0000000E+00
 0.3264000E+00  0.0000000E+00
 0.3270000E+00  0.0000000E+00
 0.3276000E+00  0.0000000E+00
 0.3282000E+00  0.0000000E+00
 0.3288000E+00  0.0000000E+00
 0.3294000E+00  0.0000000E+00
 0.3300000E+00  0.0000000E+00
 0.3306000E+00  0.0000000E+00
 0.3312000E+00  0.0000000E+00
 0.3318000E+00  0.0000000E+00
 0.3324000E+00  0.0000000E+00
 0.3330000E+00  0.0000000E+00
 0.3336000E+00  0.0000000E+00
 0.3342000E+00  0.0000000E+00
 0.3348000E+00  0.0000000E+00
 0.3354000E+00  0.0000000E+00
 0.3360000E+00  0.0000000E+00
 0.3366000E+00  0.0000000E+00
 0.3372000E+00  0.0000000E+00
 0.3378000E+00  0.0000000E+00
 0.3384000E+00  0.0000000E+00
 0.3390000E+00  0.0000000E+00
 0.3396000E+00  0.0000000E+00
 0.3402000E+00  0.0000000E+00
 0.3408000E+00  0.0000000E+00
 0.3414000E+00  0.0000000E+00
 0.3420000E+00  0.0000000E+00
 0.3426000E+00  0.0000000E+00
 0.3432000E+00  0.0000000E+00
 0.3438000E+00  0.0000000E+00
 0.3444000E+00  0.0000000E+00
 0.3450000E+00  0.0000000E+00
 0.3456000E+00  0.0000000E+00
 0.3462000E+00  0.0000000E+00
 0.3468000E+00  0.0000000E+00
 0.3474000E+00  0.0000000E+00
 0.3480000E+00  0.0000000E+00
 0.3486000E+00  0.0000000E+00
 0.3492000E+00  0.0000000E+00
 0.3498000E+00  0.0000000E+00
 0.3504000E+00  0.0000000E+00
 0.3510000E+00  0.0000000E+00
 0.3516000E+00  0.0000000E+00
 0.3522000E+00  0.0000000E+00
 0.3528000E+00  0.0000000E+00
 0.3534000E+00  0.0000000E+00
 0.3540000E+00  0.0000000E+00
 0.3546000E+00  0.0000000E+00
 0.3552000E+00  0.0000000E+00
 0.3558000E+00  0.0000000E+00
 0.3564000E+00  0.0000000E+00
 0.3570000E+00  0.0000000E+00
 0.3576000E+00  0.0000000E+00
 0.3582000E+00  0.0000000E+00
 0.3588000E+00  0.0000000E+00
 0.3594000E+00  0.0000000E+00
 0.3600000E+00  0.0000000E+00
 0.3606000E+00  0.0000000E+00
 0.3612000E+00  0.0000000E+00
 0.3618000E+00  0.0000000E+00
 0.3624000E+00  0.0000000E+00
 0.3630000E+00  0.0000000E+00
 0.3636000E+00  0.0000000E+00
 0.3642000E+00  0.0000000E+00
 0.3648000E+00  0.0000000E+00
 0.3654000E+00  0.0000000E+00
 0.3660000E+00  0.0000000E+00
 0.3666000E+00  0.0000000E+00
 0.3672000E+00  0.0000000E+00
 0.3678000E+00  0.0000000E+00
 0.3684000E+00  0.0000000E+00
 0.3690000E+00  0.0000000E+00
 0.3696000E+00 -0.0000000E+00
 0.3702000E+00 -0.2530677E-37
 0.3708000E+00 -0.4277049E-37
 0.3714000E+00 -0.4571901E-37
 0.3720000E+00 -0.2917440E-37
 0.3726000E+00 -0.0000000E+00
 0.3732000E+00  0.3974902E-37
 0.3738000E+00  0.7598110E-37
 0.3744000E+00  0.9476219E-37
 0.3750000E+00  0.7827317E-37
 0.3756000E+00  0.2874157E-37
 0.3762000E+00 -0.4874764E-37
 0.3768000E+00 -0.1402015E-36
 0.3774000E+00 -0.2210249E-36
 0.3780000E+00 -0.2715243E-36
 0.3786000E+00 -0.2604201E-36
 0.3792000E+00 -0.1781001E-36
 0.3798000E+00 -0.0000000E+00
 0.3804000E+00  0.2165845E-36
 0.3810000E+00  0.4572748E-36
 0.3816000E+00  0.6385842E-36
 0.3822000E+00  0.6817825E-36
 0.3828000E+00  0.5274272E-36
 0.3834000E+00  0.1587263E-36
 0.3840000E+00 -0.3762248E-36
 0.3846000E+00 -0.9619604E-36
 0.3852000E+00 -0.1431493E-35
 0.3858000E+00 -0.1607723E-35
 0.3864000E+00 -0.1347675E-35
 0.3870000E+00 -0.5976731E-36
 0.3876000E+00  0.5625181E-36
 0.3882000E+00  0.1904333E-35
 0.3888000E+00  0.3073215E-35
 0.3894000E+00  0.3658860E-35
 0.3900000E+00  0.3300042E-35
 0.3906000E+00  0.1816962E-35
 0.3912000E+00 -0.6757640E-36
 0.3918000E+00 -0.3713657E-35
 0.3924000E+00 -0.6521033E-35
 0.3930000E+00 -0.8160495E-35
 0.3936000E+00 -0.7777316E-35
 0.3942000E+00 -0.4889826E-35
 0.3948000E+00  0.3564816E-36
 0.3954000E+00  0.7053021E-35
 0.3960000E+00  0.1358647E-34
 0.3966000E+00  0.1792788E-34
 0.3972000E+00  0.1812461E-34
 0.3978000E+00  0.1290840E-34
 0.3984000E+00  0.2271957E-35
 0.3990000E+00 -0.1216158E-34
 0.3996000E+00 -0.2714905E-34
 0.4002000E+00 -0.3832918E-34
 0.4008000E+00 -0.4120928E-34
 0.4014000E+00 -0.3248670E-34
 0.4020000E+00 -0.1139714E-34
 0.4026000E+00  0.1930910E-34
 0.4032000E+00  0.5317305E-34
 0.4038000E+00  0.8089849E-34
 0.4044000E+00  0.9234036E-34
 0.4050000E+00  0.7932884E-34
 0.4056000E+00  0.3871153E-34
 0.4062000E+00 -0.2525419E-34
 0.4068000E+00 -0.1000599E-33
 0.4074000E+00 -0.1663559E-33
 0.4080000E+00 -0.2018273E-33
 0.4086000E+00 -0.1870656E-33
 0.4092000E+00 -0.1122202E-33
 0.4098000E+00  0.1735488E-34
 0.4104000E+00  0.1784228E-33
 0.4110000E+00  0.3318039E-33
 0.4116000E+00  0.4296286E-33
 0.4122000E+00  0.4272067E-33
 0.4128000E+00  0.2972342E-33
 0.4134000E+00  0.4273713E-34
 0.4140000E+00 -0.2954449E-33
 0.4146000E+00 -0.6403606E-33
 0.4152000E+00 -0.8918305E-33
 0.4158000E+00 -0.9497384E-33
 0.4164000E+00 -0.7436515E-33
 0.4170000E+00 -0.2617461E-33
 0.4176000E+00  0.4297150E-33
 0.4182000E+00  0.1184646E-32
 0.4188000E+00  0.1798459E-32
 0.4194000E+00  0.2052392E-32
 0.4200000E+00  0.1774014E-32
 0.4206000E+00  0.9004233E-33
 0.4212000E+00 -0.4736992E-33
 0.4218000E+00 -0.2081419E-32
 0.4224000E+00 -0.3515529E-32
 0.4230000E+00 -0.4310269E-32
 0.4236000E+00 -0.4062052E-32
 0.4242000E+00 -0.2564154E-32
 0.4248000E+00  0.8046586E-34
 0.4254000E+00  0.3407084E-32
 0.4260000E+00  0.6629145E-32
 0.4266000E+00  0.8782710E-32
 0.4272000E+00  0.8960577E-32
 0.4278000E+00  0.6591103E-32
 0.4284000E+00  0.1692041E-32
 0.4290000E+00 -0.4981072E-32
 0.4296000E+00 -0.1196236E-31
 0.4302000E+00 -0.1731626E-31
 0.4308000E+00 -0.1907616E-31
 0.4314000E+00 -0.1580474E-31
 0.4320000E+00 -0.7144728E-32
 0.4326000E+00  0.5801514E-32
 0.4332000E+00  0.2041663E-31
 0.4338000E+00  0.3293523E-31
 0.4344000E+00  0.3923422E-31
 0.4350000E+00  0.3592575E-31
 0.4356000E+00  0.2151469E-31
 0.4362000E+00 -0.2695587E-32
 0.4368000E+00 -0.3227206E-31
 0.4374000E+00 -0.6013421E-31
 0.4380000E+00 -0.7791400E-31
 0.4386000E+00 -0.7802288E-31
 0.4392000E+00 -0.5600992E-31
 0.4398000E+00 -0.1260937E-31
 0.4404000E+00  0.4518379E-31
 0.4410000E+00  0.1045566E-30
 0.4416000E+00  0.1490853E-30
 0.4422000E+00  0.1625102E-30
 0.4428000E+00  0.1333873E-30
 0.4434000E+00  0.5950550E-31
 0.4440000E+00 -0.4923949E-31
 0.4446000E+00 -0.1707051E-30
 0.4452000E+00 -0.2737924E-30
 0.4458000E+00 -0.3250609E-30
 0.4464000E+00 -0.2975896E-30
 0.4470000E+00 -0.1801202E-30
 0.4476000E+00  0.1603466E-31
 0.4482000E+00  0.2547915E-30
 0.4488000E+00  0.4795396E-30
 0.4494000E+00  0.6241498E-30
 0.4500000E+00  0.6292458E-30
 0.4506000E+00  0.4604024E-30
 0.4512000E+00  0.1236194E-30
 0.4518000E+00 -0.3268960E-30
 0.4524000E+00 -0.7926007E-30
 0.4530000E+00 -0.1147754E-29
 0.4536000E+00 -0.1268101E-29
 0.4542000E+00 -0.1065755E-29
 0.4548000E+00 -0.5219779E-30
 0.4554000E+00  0.2917275E-30
 0.4560000E+00  0.1212772E-29
 0.4566000E+00  0.2011690E-29
 0.4572000E+00  0.2440376E-29
 0.4578000E+00  0.2296405E-29
 0.4584000E+00  0.1489219E-29
 0.4590000E+00  0.9031893E-31
 0.4596000E+00 -0.1650020E-29
 0.4602000E+00 -0.3331573E-29
 0.4608000E+00 -0.4480696E-29
 0.4614000E+00 -0.4664029E-29
 0.4620000E+00 -0.3616275E-29
 0.4626000E+00 -0.1350009E-29
 0.4632000E+00  0.1786594E-29
 0.4638000E+00  0.5131309E-29
 0.4644000E+00  0.7820023E-29
 0.4650000E+00  0.8978445E-29
 0.4656000E+00  0.7958094E-29
 0.4662000E+00  0.4561622E-29
 0.4668000E+00 -0.8062926E-30
 0.4674000E+00 -0.7119514E-29
 0.4680000E+00 -0.1287575E-28
 0.4686000E+00 -0.1640202E-28
 0.4692000E+00 -0.1627108E-28
 0.4698000E+00 -0.1173928E-28
 0.4704000E+00 -0.3091539E-29
 0.4710000E+00  0.8219249E-29
 0.4716000E+00  0.1971903E-28
 0.4722000E+00  0.2836522E-28
 0.4728000E+00  0.3124631E-28
 0.4734000E+00  0.2639063E-28
 0.4740000E+00  0.1348910E-28
 0.4746000E+00 -0.5680351E-29
 0.4752000E+00 -0.2730105E-28
 0.4758000E+00 -0.4612179E-28
 0.4764000E+00 -0.5656705E-28
 0.4770000E+00 -0.5415794E-28
 0.4776000E+00 -0.3692598E-28
 0.4782000E+00 -0.6440593E-29
 0.4788000E+00  0.3190051E-28
 0.4794000E+00  0.6954142E-28