 -0.12000000000000000          0.0000000000000000     
 -0.11939999999999999          0.0000000000000000     
 -0.11879999999999999          0.0000000000000000     
 -0.11820000000000000          3.3437307189688250E-017
 -0.11760000000000000         -1.0871739875809461E-015
 -0.11699999999999999         -2.4418464856189575E-015
 -0.11639999999999999         -8.1623948797334388E-015
 -0.11580000000000000         -8.6973919006475692E-015
 -0.11520000000000000         -1.7394783801295138E-014
 -0.11459999999999999         -3.0509591435277233E-014
 -0.11399999999999999         -2.8369605045686606E-014
 -0.11340000000000000         -2.6229618656095979E-014
 -0.11280000000000000          4.2799753202800959E-015
 -0.11219999999999999         -6.5299159037867510E-014
 -0.11159999999999999         -1.3059831807573502E-013
 -0.11100000000000000         -1.3059831807573502E-013
 -0.11040000000000000         -2.5263669736937111E-013
 -0.10979999999999999         -3.7253509196748247E-013
 -0.10919999999999999         -2.4675172929228273E-013
 -0.10860000000000000         -2.4728672885429570E-013
 -0.10800000000000000         -2.4407673148221787E-013
 -0.10740000000000000          8.5599506405601919E-015
 -0.10679999999999999          3.4239802562240768E-014
 -0.10620000000000000          5.3951320407724657E-013
 -0.10560000000000000          5.2239327230294008E-013
 -0.10500000000000000          5.0527339473874222E-013
 -0.10439999999999999          5.0527339473874222E-013
 -0.10380000000000000          9.7630692592887147E-013
 -0.10320000000000000          9.7630692592887147E-013
 -0.10260000000000000          9.4206717080047575E-013
 -0.10199999999999999          9.0782736146197140E-013
 -0.10139999999999999          8.7358755212346706E-013
 -0.10080000000000000          8.3934779699507134E-013
 -0.10020000000000000         -1.3695921024896307E-013
  -9.9599999999999994E-002    -1.3695921024896307E-013
  -9.9000000000000005E-002    -1.0271940091045872E-013
  -9.8400000000000001E-002    -6.8479605124481535E-014
  -9.7799999999999998E-002     0.0000000000000000     
  -9.7199999999999995E-002     6.8479605124481535E-014
  -9.6599999999999991E-002    -1.8841343416009515E-012
  -9.6000000000000002E-002    -1.8156547229239428E-012
  -9.5399999999999999E-002    -1.7471751042469341E-012
  -9.4799999999999995E-002     3.4239801206988052E-013
  -9.4200000000000006E-002     4.1087760364183490E-013
  -9.3600000000000003E-002     5.4783684099585228E-013
  -9.2999999999999999E-002     5.4783684099585228E-013
  -9.2399999999999996E-002     5.4783684099585228E-013
  -9.1799999999999993E-002     2.7391842049792614E-013
  -9.1200000000000003E-002    -2.7391842049792614E-013
  -9.0600000000000000E-002    -5.4783684099585228E-013
  -8.9999999999999997E-002    -8.2175520728366980E-013
  -8.9399999999999993E-002    -8.2175520728366980E-013
  -8.8799999999999990E-002    -8.2175520728366980E-013
  -8.8200000000000001E-002    -5.4783684099585228E-013
  -8.7599999999999997E-002    -5.4783684099585228E-013
  -8.6999999999999994E-002     0.0000000000000000     
  -8.6400000000000005E-002     5.4783684099585228E-013
  -8.5800000000000001E-002     5.4783684099585228E-013
  -8.5199999999999998E-002     5.4783684099585228E-013
  -8.4600000000000009E-002     5.4783684099585228E-013
  -8.3999999999999991E-002     5.4783684099585228E-013
  -8.3400000000000002E-002     0.0000000000000000     
  -8.2799999999999999E-002     0.0000000000000000     
  -8.2199999999999995E-002     0.0000000000000000     
  -8.1600000000000006E-002     0.0000000000000000     
  -8.0999999999999989E-002     0.0000000000000000     
  -8.0399999999999999E-002     0.0000000000000000     
  -7.9799999999999996E-002     0.0000000000000000     
  -7.9199999999999993E-002     0.0000000000000000     
  -7.8600000000000003E-002     0.0000000000000000     
  -7.8000000000000000E-002     2.1913473639834091E-012
  -7.7399999999999997E-002     2.1913473639834091E-012
  -7.6800000000000007E-002     4.3826947279668182E-012
  -7.6199999999999990E-002     6.5740416582693584E-012
  -7.5600000000000001E-002     7.1249034450104887E-011
  -7.4999999999999997E-002     7.3440385717216117E-011
  -7.4399999999999994E-002     7.5631730045433443E-011
  -7.3800000000000004E-002     1.3148083316538717E-011
  -7.3200000000000001E-002    -4.9335563412356009E-011
  -7.2599999999999998E-002    -1.1620190226713234E-010
  -7.2000000000000008E-002    -1.2496728651889555E-010
  -7.1399999999999991E-002    -1.3373267770955266E-010
  -7.0800000000000002E-002    -1.3811538024377512E-010
  -7.0199999999999999E-002    -1.4688077143443223E-010
  -6.9599999999999995E-002    -1.4249806890020977E-010
  -6.9000000000000006E-002    -1.4249806890020977E-010
  -6.8400000000000002E-002    -1.4249806890020977E-010
  -6.7799999999999999E-002    -1.3373267770955266E-010
  -6.7200000000000010E-002    -1.2496728651889555E-010
  -6.6599999999999993E-002    -1.1620190226713234E-010
  -6.6000000000000003E-002     1.7530778911867273E-011
  -6.5400000000000000E-002     2.6296166633077434E-011
  -6.4799999999999996E-002     3.5061557823734546E-011
  -6.4200000000000007E-002     3.5061557823734546E-011
  -6.3600000000000004E-002     3.5061557823734546E-011
  -6.3000000000000000E-002     1.7530778911867273E-011
  -6.2399999999999997E-002     0.0000000000000000     
  -6.1800000000000001E-002     0.0000000000000000     
  -6.1199999999999997E-002     0.0000000000000000     
  -6.0600000000000001E-002    -1.7530778911867273E-011
  -5.9999999999999998E-002    -1.7530778911867273E-011
  -5.9400000000000001E-002     0.0000000000000000     
  -5.8799999999999998E-002     1.7530778911867273E-011
  -5.8200000000000002E-002     3.5061557823734546E-011
  -5.7599999999999998E-002     7.0123115647469092E-011
  -5.6999999999999995E-002     1.0518466653230973E-010
  -5.6400000000000006E-002     1.0518466653230973E-010
  -5.5800000000000002E-002     1.0518466653230973E-010
  -5.5199999999999999E-002     1.0518466653230973E-010
  -5.4599999999999996E-002     1.0518466653230973E-010
  -5.4000000000000006E-002     1.0518466653230973E-010
  -5.3400000000000003E-002     7.0123115647469092E-011
  -5.2800000000000000E-002     3.5061557823734546E-011
  -5.2199999999999996E-002     0.0000000000000000     
  -5.1600000000000007E-002     0.0000000000000000     
  -5.1000000000000004E-002    -4.9986914607558219E-010
  -5.0400000000000000E-002    -1.0698614216764213E-009
  -4.9799999999999997E-002    -1.0698614216764213E-009
  -4.9200000000000008E-002    -9.9973829215116439E-010
  -4.8600000000000004E-002    -9.2961521813705872E-010
  -4.8000000000000001E-002    -9.2961521813705872E-010
  -4.7399999999999998E-002    -9.2961521813705872E-010
  -4.6800000000000008E-002    -9.2961521813705872E-010
  -4.6200000000000005E-002    -9.2961521813705872E-010
  -4.5600000000000002E-002    -8.5949214412295305E-010
  -4.4999999999999998E-002    -7.8936901459769615E-010
  -4.4400000000000009E-002    -7.8936901459769615E-010
  -4.3800000000000006E-002    -7.8936901459769615E-010
  -4.3200000000000002E-002     2.1036933306461947E-010
  -4.2599999999999999E-002     2.1036933306461947E-010
  -4.1999999999999996E-002     2.8049246258987637E-010
  -4.1400000000000006E-002     2.8049246258987637E-010
  -4.0800000000000003E-002     2.1036933306461947E-010
  -4.0200000000000000E-002     1.2101076807269351E-009
  -3.9599999999999996E-002     2.1397228433528426E-009
  -3.9000000000000007E-002     2.0695998248498881E-009
  -3.8400000000000004E-002     1.9994765843023288E-009
  -3.7800000000000000E-002     1.8592304362741174E-009
  -3.7199999999999997E-002     7.1924588507243925E-010
  -3.6600000000000008E-002     5.7899968153307668E-010
  -3.6000000000000004E-002    -5.6098492517975274E-010
  -3.5400000000000001E-002    -1.5607232173309171E-009
  -3.4799999999999998E-002    -2.5604616205043840E-009
  -3.4200000000000008E-002    -2.5604616205043840E-009
  -3.3600000000000005E-002    -2.4202153614538702E-009
  -3.3000000000000002E-002    -2.1397228433528426E-009
  -3.2399999999999998E-002    -1.8592304362741174E-009
  -3.1800000000000009E-002    -1.5787380291953923E-009
  -3.1200000000000006E-002    -1.4384917701448785E-009
  -3.0600000000000002E-002    -2.9850721894320031E-010
  -2.9999999999999999E-002     7.0123112871911530E-010
  -2.9400000000000009E-002     5.6098492517975274E-010
  -2.8800000000000006E-002     4.2073866612923894E-010
  -2.8200000000000003E-002     2.8049246258987637E-010
  -2.7600000000000000E-002     9.9973829215116439E-010
  -2.7000000000000010E-002     1.7189842882459061E-009
  -2.6400000000000007E-002     1.5787380291953923E-009
  -2.5800000000000003E-002     1.2982456221166672E-009
  -2.5200000000000000E-002     1.1579993630661534E-009
  -2.4600000000000011E-002     1.0878762335408965E-009
  -2.4000000000000007E-002     1.1579993630661534E-009
  -2.3400000000000004E-002     7.2825329100467684E-010
  -2.2800000000000001E-002     8.6849949454403941E-010
  -2.2199999999999998E-002     1.0087457535945532E-009
  -2.1600000000000008E-002     7.8936901459769615E-010
  -2.1000000000000005E-002     4.9986914607558219E-010
  -2.0400000000000001E-002     8.5402046545723920E-011
  -1.9799999999999998E-002    -3.2906508073970997E-010
  -1.9200000000000009E-002    -6.8868805103150521E-010
  -1.8600000000000005E-002    -9.9346675330735934E-010
  -1.8000000000000002E-002    -1.3683686406196216E-009
  -1.7399999999999999E-002    -1.6884263986938208E-009
  -1.6800000000000009E-002    -2.0786072862932770E-009
  -1.6200000000000006E-002    -2.2363841889472269E-009
  -1.5600000000000003E-002    -1.9293535657993743E-009
  -1.4999999999999999E-002    -1.0961576091261804E-009
  -1.4400000000000010E-002    -2.4981358648368257E-010
  -1.3800000000000007E-002     6.1406124629570513E-010
  -1.3200000000000003E-002     5.2640736214470962E-010
  -1.2600000000000000E-002     4.7381498724519133E-010
  -1.2000000000000011E-002     5.0887655200781978E-010
  -1.1400000000000007E-002     5.7899968153307668E-010
  -1.0800000000000004E-002     1.5787380291953923E-009
  -1.0200000000000001E-002     1.6488611587206492E-009
  -9.6000000000000113E-003     1.7189842882459061E-009
  -9.0000000000000080E-003     1.7891073067488605E-009
  -8.4000000000000047E-003    -2.1036933306461947E-010
  -7.8000000000000014E-003    -1.4024623129493818E-010
  -7.2000000000000119E-003     0.0000000000000000     
  -6.6000000000000086E-003     0.0000000000000000     
  -6.0000000000000053E-003     0.0000000000000000     
  -5.4000000000000020E-003     1.4024623129493818E-010
  -4.7999999999999987E-003     1.4024623129493818E-010
  -4.2000000000000093E-003     2.2799691024033564E-009
  -3.6000000000000060E-003     2.4202153614538702E-009
  -3.0000000000000027E-003     2.5604616205043840E-009
  -2.3999999999999994E-003     7.0123112871911530E-010
  -1.8000000000000099E-003     8.4147733225847787E-010
  -1.2000000000000066E-003     9.8172359130899167E-010
  -6.0000000000000331E-004     1.2622159983877168E-009
   0.0000000000000000          1.6829546645169557E-009
   5.9999999999998943E-004     1.9634471826179833E-009
   1.1999999999999927E-003     2.5244319967754336E-009
   1.7999999999999960E-003     3.0854170329774888E-009
   2.3999999999999994E-003     3.6464018471349391E-009
   2.9999999999999888E-003     4.4878794014380219E-009
   3.5999999999999921E-003     5.3293565116518948E-009
   4.1999999999999954E-003     4.1713570375634390E-009
   4.7999999999999987E-003     3.0133577855195881E-009
   5.3999999999999881E-003     1.8553585334757372E-009
   6.0000000000000053E-003    -7.4113259973529466E-010
   6.5999999999999948E-003    -3.3376237329463265E-009
   7.1999999999999842E-003    -5.6536224590786333E-009
   7.8000000000000014E-003    -7.6891284450653075E-009
   8.3999999999999908E-003    -9.1636502830283462E-009
   8.9999999999999802E-003    -1.0357679158801147E-008
   9.5999999999999974E-003    -1.1271215072383711E-008
   1.0199999999999987E-002    -1.2184751874144695E-008
   1.0800000000000004E-002    -1.4817272742106979E-008
   1.1399999999999993E-002    -1.4889331545475670E-008
   1.1999999999999983E-002    -1.4961390348844361E-008
   1.2600000000000000E-002    -1.6471942032580955E-008
   1.3199999999999990E-002    -1.7701999865948892E-008
   1.3799999999999979E-002    -2.0651041765518130E-008
   1.4399999999999996E-002    -2.3319593367432390E-008
   1.4999999999999986E-002    -2.7426635185179293E-008
   1.5600000000000003E-002    -3.0972692854902562E-008
   1.6199999999999992E-002    -3.5396254816077999E-008
   1.6799999999999982E-002    -3.9837836141032312E-008
   1.7399999999999999E-002    -4.4016935873969487E-008
   1.7999999999999988E-002    -4.9792788558988832E-008
   1.8600000000000005E-002    -5.5165919832234067E-008
   1.9199999999999995E-002    -6.1136063322919654E-008
   1.9799999999999984E-002    -6.7422732286104292E-008
   2.0400000000000001E-002    -7.5165900170759414E-008
   2.0999999999999991E-002    -8.4225334262555407E-008
   2.1599999999999980E-002    -9.4460787636307941E-008
   2.2199999999999998E-002    -1.0651235982095386E-007
   2.2799999999999987E-002    -1.2006901783934154E-007
   2.3400000000000004E-002    -1.3577087543126254E-007
   2.3999999999999994E-002    -1.5369704442491638E-007
   2.4599999999999983E-002    -1.7402736318672396E-007
   2.5200000000000000E-002    -1.9691123043230618E-007
   2.5799999999999990E-002    -2.2228704210647265E-007
   2.6399999999999979E-002    -2.5026497496583033E-007
   2.6999999999999996E-002    -2.8103369231757824E-007
   2.7599999999999986E-002    -3.1474246497964486E-007
   2.8200000000000003E-002    -3.5132563880324597E-007
   2.8799999999999992E-002    -3.9136222085289774E-007
   2.9399999999999982E-002    -4.3521635006982251E-007
   2.9999999999999999E-002    -4.8303729727194877E-007
   3.0599999999999988E-002    -5.3599148941430030E-007
   3.1199999999999978E-002    -5.9418891851237277E-007
   3.1799999999999995E-002    -6.5928480807997403E-007
   3.2399999999999984E-002    -7.3084760288111283E-007
   3.3000000000000002E-002    -8.1037057952926261E-007
   3.3599999999999991E-002    -8.9835157268680632E-007
   3.4199999999999980E-002    -9.9621161098184530E-007
   3.4799999999999998E-002    -1.1022497119483887E-006
   3.5399999999999987E-002    -1.2187988431833219E-006
   3.6000000000000004E-002    -1.3469821169564966E-006
   3.6599999999999994E-002    -1.4869576716591837E-006
   3.7199999999999983E-002    -1.6388486301366356E-006
   3.7800000000000000E-002    -1.8037781046587043E-006
   3.8399999999999990E-002    -1.9808344404736999E-006
   3.8999999999999979E-002    -2.1731750621256651E-006
   3.9599999999999996E-002    -2.3818877252779203E-006
   4.0199999999999986E-002    -2.6080606403411366E-006
   4.0800000000000003E-002    -2.8528515940706711E-006
   4.1399999999999992E-002    -3.1173485695035197E-006
   4.1999999999999982E-002    -3.4036388569802511E-006
   4.2599999999999999E-002    -3.7128106669115368E-006
   4.3199999999999988E-002    -4.0470217754773330E-006
   4.3799999999999978E-002    -4.4093594624428079E-006
   4.4399999999999995E-002    -4.7997009460232221E-006
   4.4999999999999984E-002    -5.2199943638697732E-006
   4.5600000000000002E-002    -5.6724675232544541E-006
   4.6199999999999991E-002    -6.1588571043103002E-006
   4.6799999999999981E-002    -6.6813208832172677E-006
   4.7399999999999998E-002    -7.2414554779243190E-006
   4.7999999999999987E-002    -7.8392795330728404E-006
   4.8599999999999977E-002    -8.4779494500253350E-006
   4.9199999999999994E-002    -9.1592037279042415E-006
   4.9799999999999983E-002    -9.8833397714770399E-006
   5.0400000000000000E-002    -1.0654373909346759E-005
   5.0999999999999990E-002    -1.1473746781121008E-005
   5.1599999999999979E-002    -1.2341614819888491E-005
   5.2199999999999996E-002    -1.3261555977805983E-005
   5.2799999999999986E-002    -1.4235010894481093E-005
   5.3400000000000003E-002    -1.5264695321093313E-005
   5.3999999999999992E-002    -1.6351332305930555E-005
   5.4599999999999982E-002    -1.7496777218184434E-005
   5.5199999999999999E-002    -1.8703962268773466E-005
   5.5799999999999988E-002    -1.9972954760305583E-005
   5.6399999999999978E-002    -2.1305826521711424E-005
   5.6999999999999995E-002    -2.2703356080455706E-005
   5.7599999999999985E-002    -2.4166536604752764E-005
   5.8200000000000002E-002    -2.5695286240079440E-005
   5.8799999999999991E-002    -2.7291449441690929E-005
   5.9399999999999981E-002    -2.8954644221812487E-005
   5.9999999999999998E-002    -3.0685067031299695E-005
   6.0599999999999987E-002    -3.2482686947332695E-005
   6.1199999999999977E-002    -3.4346834581810981E-005
   6.1799999999999994E-002    -3.6277175240684301E-005
   6.2399999999999983E-002    -3.8272599340416491E-005
   6.3000000000000000E-002    -4.0332273783860728E-005
   6.3599999999999990E-002    -4.2454354115761817E-005
   6.4199999999999979E-002    -4.4637134124059230E-005
   6.4799999999999996E-002    -4.6877696149749681E-005
   6.5399999999999986E-002    -4.9171896534971893E-005
   6.5999999999999975E-002    -5.1516944949980825E-005
   6.6599999999999993E-002    -5.3907690016785637E-005
   6.7199999999999982E-002    -5.6339158618357033E-005
   6.7799999999999999E-002    -5.8805435401154682E-005
   6.8399999999999989E-002    -6.1299891967792064E-005
   6.8999999999999978E-002    -6.3815605244599283E-005
   6.9599999999999995E-002    -6.6344749939162284E-005
   7.0199999999999985E-002    -6.8879293394275010E-005
   7.0799999999999974E-002    -7.1410286182072014E-005
   7.1399999999999991E-002    -7.3928080382756889E-005
   7.1999999999999981E-002    -7.6423079008236527E-005
   7.2599999999999998E-002    -7.8884688264224678E-005
   7.3199999999999987E-002    -8.1301543104927987E-005
   7.3799999999999977E-002    -8.3662213000934571E-005
   7.4399999999999994E-002    -8.5954350652173162E-005
   7.4999999999999983E-002    -8.8165164925158024E-005
   7.5600000000000001E-002    -9.0281384473200887E-005
   7.6199999999999990E-002    -9.2289214080665261E-005
   7.6799999999999979E-002    -9.4174320111051202E-005
   7.7399999999999997E-002    -9.5921888714656234E-005
   7.7999999999999986E-002    -9.7516815003473312E-005
   7.8599999999999975E-002    -9.8943557532038540E-005
   7.9199999999999993E-002    -1.0018658213084564E-004
   7.9799999999999982E-002    -1.0122981620952487E-004
   8.0399999999999999E-002    -1.0205712169408798E-004
   8.0999999999999989E-002    -1.0265225864714012E-004
   8.1599999999999978E-002    -1.0299900895915926E-004
   8.2199999999999995E-002    -1.0308112541679293E-004
   8.2799999999999985E-002    -1.0288244084222242E-004
   8.3399999999999974E-002    -1.0238703544018790E-004
   8.3999999999999991E-002    -1.0157919314224273E-004
   8.4599999999999981E-002    -1.0044365626526996E-004
   8.5199999999999998E-002    -9.8965443612542003E-005
   8.5799999999999987E-002    -9.7130141512025148E-005
   8.6399999999999977E-002    -9.4924012955743819E-005
   8.6999999999999994E-002    -9.2334084911271930E-005
   8.7599999999999983E-002    -8.9348184701520950E-005
   8.8199999999999973E-002    -8.5955209215171635E-005
   8.8799999999999990E-002    -8.2145190390292555E-005
   8.9399999999999979E-002    -7.7909477113280445E-005
   8.9999999999999997E-002    -7.3240895289927721E-005
   9.0599999999999986E-002    -6.8133820604998618E-005
   9.1199999999999976E-002    -6.2584353145211935E-005
   9.1799999999999993E-002    -5.6590404710732400E-005
   9.2399999999999982E-002    -5.0151946197729558E-005
   9.2999999999999999E-002    -4.3270887545077130E-005
   9.3599999999999989E-002    -3.5951321478933096E-005
   9.4199999999999978E-002    -2.8199481675983407E-005
   9.4799999999999995E-002    -2.0023791876155883E-005
   9.5399999999999985E-002    -1.1434933185228147E-005
   9.5999999999999974E-002    -2.4458040570607409E-006
   9.6599999999999991E-002     6.9285533754737116E-006
   9.7199999999999981E-002     1.6670859622536227E-005
   9.7799999999999998E-002     2.6761646950035356E-005
   9.8399999999999987E-002     3.7179346691118553E-005
   9.8999999999999977E-002     4.7900262870825827E-005
   9.9599999999999994E-002     5.8898669522022828E-005
  0.10019999999999998          7.0146714278962463E-005
  0.10079999999999997          8.1614620285108685E-005
  0.10139999999999999          9.3270675279200077E-005
  0.10199999999999998          1.0508129344088957E-004
  0.10260000000000000          1.1701109178829938E-004
  0.10319999999999999          1.2902299931738526E-004
  0.10379999999999998          1.4107832976151258E-004
  0.10439999999999999          1.5313690528273582E-004
  0.10499999999999998          1.6515710740350187E-004
  0.10559999999999997          1.7709610983729362E-004
  0.10619999999999999          1.8890996580012143E-004
  0.10679999999999998          2.0055376808159053E-004
  0.10740000000000000          2.1198182366788387E-004
  0.10799999999999998          2.2314790112432092E-004
  0.10859999999999997          2.3400533245876431E-004
  0.10919999999999999          2.4450730415992439E-004
  0.10979999999999998          2.5460711913183331E-004
  0.11040000000000000          2.6425841497257352E-004
  0.11099999999999999          2.7341538225300610E-004
  0.11159999999999998          2.8203314286656678E-004
  0.11219999999999999          2.9006792465224862E-004
  0.11279999999999998          2.9747746884822845E-004
  0.11339999999999997          3.0422103009186685E-004
  0.11399999999999999          3.1025998760014772E-004
  0.11459999999999998          3.1555790337733924E-004
  0.11520000000000000          3.2008081325329840E-004
  0.11579999999999999          3.2379743061028421E-004
  0.11639999999999998          3.2667946652509272E-004
  0.11699999999999999          3.2870165887288749E-004
  0.11759999999999998          3.2984217978082597E-004
  0.11819999999999997          3.3008263562805951E-004
  0.11879999999999999          3.2940824166871607E-004
  0.11939999999999998          3.2780796755105257E-004
  0.12000000000000000          3.2527465373277664E-004
  0.12059999999999998          3.2180486596189439E-004
  0.12119999999999997          3.1739918631501496E-004
  0.12179999999999999          3.1206212588585913E-004
  0.12239999999999998          3.0580203747376800E-004
  0.12299999999999997          2.9863108647987247E-004
  0.12359999999999999          2.9056539642624557E-004
  0.12419999999999998          2.8162464150227606E-004
  0.12479999999999999          2.7183227939531207E-004
  0.12539999999999998          2.6121520204469562E-004
  0.12599999999999997          2.4980388116091490E-004
  0.12659999999999999          2.3763210629113019E-004
  0.12719999999999998          2.2473689750768244E-004
  0.12779999999999997          2.1115838899277151E-004
  0.12839999999999999          1.9693971262313426E-004
  0.12899999999999998          1.8212688155472279E-004
  0.12959999999999999          1.6676851373631507E-004
  0.13019999999999998          1.5091581735759974E-004
  0.13079999999999997          1.3462225615512580E-004
  0.13139999999999996          1.1794338206527755E-004
  0.13200000000000001          1.0093663149746135E-004
  0.13260000000000000          8.3661114331334829E-005
  0.13319999999999999          6.6177235567010939E-005
  0.13379999999999997          4.8546502512181178E-005
  0.13439999999999996          3.0831219191895798E-005
  0.13500000000000001          1.3094141650071833E-005
  0.13560000000000000         -4.6018390094104689E-006
  0.13619999999999999         -2.2193986296770163E-005
  0.13679999999999998         -3.9620179450139403E-005
  0.13739999999999997         -5.6819259043550119E-005
  0.13799999999999996         -7.3731207521632314E-005
  0.13860000000000000         -9.0297777205705643E-005
  0.13919999999999999         -1.0646262671798468E-004
  0.13979999999999998         -1.2217169569339603E-004
  0.14039999999999997         -1.3737345580011606E-004
  0.14099999999999996         -1.5201930364128202E-004
  0.14160000000000000         -1.6606360441073775E-004
  0.14219999999999999         -1.7946407024282962E-004
  0.14279999999999998         -1.9218181842006743E-004
  0.14339999999999997         -2.0418148778844625E-004
  0.14399999999999996         -2.1543145703617483E-004
  0.14460000000000001         -2.2590375738218427E-004
  0.14520000000000000         -2.3557426175102592E-004
  0.14579999999999999         -2.4442267022095621E-004
  0.14639999999999997         -2.5243236450478435E-004
  0.14699999999999996         -2.5959059712477028E-004
  0.14759999999999995         -2.6588837499730289E-004
  0.14820000000000000         -2.7132031391374767E-004
  0.14879999999999999         -2.7588466764427722E-004
  0.14939999999999998         -2.7958315331488848E-004
  0.14999999999999997         -2.8242095140740275E-004
  0.15059999999999996         -2.8440644382499158E-004
  0.15120000000000000         -2.8555124299600720E-004
  0.15179999999999999         -2.8586990083567798E-004
  0.15239999999999998         -2.8537999605759978E-004
  0.15299999999999997         -2.8410172672010958E-004
  0.15359999999999996         -2.8205799753777683E-004
  0.15420000000000000         -2.7927415794692934E-004
  0.15479999999999999         -2.7577788569033146E-004
  0.15539999999999998         -2.7159912860952318E-004
  0.15599999999999997         -2.6676975539885461E-004
  0.15659999999999996         -2.6132355560548604E-004
  0.15720000000000001         -2.5529600679874420E-004
  0.15780000000000000         -2.4872415815480053E-004
  0.15839999999999999         -2.4164635397028178E-004
  0.15899999999999997         -2.3410217545460910E-004
  0.15959999999999996         -2.2613210603594780E-004
  0.16019999999999995         -2.1777745860163122E-004
  0.16080000000000000         -2.0908011356368661E-004
  0.16139999999999999         -2.0008227147627622E-004
  0.16199999999999998         -1.9082624930888414E-004
  0.16259999999999997         -1.8135432037524879E-004
  0.16319999999999996         -1.7170839419122785E-004
  0.16380000000000000         -1.6192979819606990E-004
  0.16439999999999999         -1.5205907402560115E-004
  0.16499999999999998         -1.4213571557775140E-004
  0.16559999999999997         -1.3219799438957125E-004
  0.16619999999999996         -1.2228271225467324E-004
  0.16680000000000000         -1.1242507753195241E-004
  0.16739999999999999         -1.0265847959090024E-004
  0.16799999999999998         -9.3014423327986151E-005
  0.16859999999999997         -8.3522398199420422E-005
  0.16919999999999996         -7.4209841841366142E-005
  0.16980000000000001         -6.5102052758447826E-005
  0.17040000000000000         -5.6222179409814999E-005
  0.17099999999999999         -4.7591242037015036E-005
  0.17159999999999997         -3.9228154491866007E-005
  0.17219999999999996         -3.1149669666774571E-005
  0.17279999999999995         -2.3370526832877658E-005
  0.17340000000000000         -1.5903387975413352E-005
  0.17399999999999999         -8.7589796748943627E-006
  0.17459999999999998         -1.9460990188235883E-006
  0.17519999999999997          4.5283213694347069E-006
  0.17579999999999996          1.0659084182407241E-005
  0.17640000000000000          1.6442703781649470E-005
  0.17699999999999999          2.1877285689697601E-005
  0.17759999999999998          2.6962447009282187E-005
  0.17819999999999997          3.1699179089628160E-005
  0.17879999999999996          3.6089782952331007E-005
  0.17940000000000000          4.0137747419066727E-005
  0.17999999999999999          4.3847667257068679E-005
  0.18059999999999998          4.7225130401784554E-005
  0.18119999999999997          5.0276648835279047E-005
  0.18179999999999996          5.3009600378572941E-005
  0.18239999999999995          5.5432094086427242E-005
  0.18300000000000000          5.7553002989152446E-005
  0.18359999999999999          5.9381814935477450E-005
  0.18419999999999997          6.0928654420422390E-005
  0.18479999999999996          6.2204140704125166E-005
  0.18539999999999995          6.3219406001735479E-005
  0.18600000000000000          6.3986022723838687E-005
  0.18659999999999999          6.4515916164964437E-005
  0.18719999999999998          6.4821339037735015E-005
  0.18779999999999997          6.4914776885416359E-005
  0.18839999999999996          6.4808918978087604E-005
  0.18900000000000000          6.4516556449234486E-005
  0.18959999999999999          6.4050560467876494E-005
  0.19019999999999998          6.3423773099202663E-005
  0.19079999999999997          6.2649000028613955E-005
  0.19139999999999996          6.1738901422359049E-005
  0.19200000000000000          6.0705970099661499E-005
  0.19259999999999999          5.9562473325058818E-005
  0.19319999999999998          5.8320376410847530E-005
  0.19379999999999997          5.6991320889210328E-005
  0.19439999999999996          5.5586584494449198E-005
  0.19499999999999995          5.4117070249048993E-005
  0.19560000000000000          5.2593219152186066E-005
  0.19619999999999999          5.1025024731643498E-005
  0.19679999999999997          4.9421993026044220E-005
  0.19739999999999996          4.7793128032935783E-005
  0.19799999999999995          4.6146888053044677E-005
  0.19860000000000000          4.4491189328255132E-005
  0.19919999999999999          4.2833351471927017E-005
  0.19979999999999998          4.1180097468895838E-005
  0.20039999999999997          3.9537531847599894E-005
  0.20099999999999996          3.7911115214228630E-005
  0.20160000000000000          3.6305689718574286E-005
  0.20219999999999999          3.4725457226159051E-005
  0.20279999999999998          3.3174019336001948E-005
  0.20339999999999997          3.1654384656576440E-005
  0.20399999999999996          3.0169036108418368E-005
  0.20459999999999995          2.8719970941892825E-005
  0.20519999999999999          2.7308740754961036E-005
  0.20579999999999998          2.5936549718608148E-005
  0.20639999999999997          2.4604289137641899E-005