-0.1200000E+00  0.0000000E+00
-0.1194000E+00 -0.2443816E-06
-0.1188000E+00 -0.7577030E-06
-0.1182000E+00 -0.1558413E-05
-0.1176000E+00 -0.2658788E-05
-0.1170000E+00 -0.4065233E-05
-0.1164000E+00 -0.5778935E-05
-0.1158000E+00 -0.7796841E-05
-0.1152000E+00 -0.1011292E-04
-0.1146000E+00 -0.1271964E-04
-0.1140000E+00 -0.1560964E-04
-0.1134000E+00 -0.1877746E-04
-0.1128000E+00 -0.2222134E-04
-0.1122000E+00 -0.2594491E-04
-0.1116000E+00 -0.2995882E-04
-0.1110000E+00 -0.3428223E-04
-0.1104000E+00 -0.3894408E-04
-0.1098000E+00 -0.4398409E-04
-0.1092000E+00 -0.4945365E-04
-0.1086000E+00 -0.5541634E-04
-0.1080000E+00 -0.6194836E-04
-0.1074000E+00 -0.6913870E-04
-0.1068000E+00 -0.7708922E-04
-0.1062000E+00 -0.8591457E-04
-0.1056000E+00 -0.9574210E-04
-0.1050000E+00 -0.1067118E-03
-0.1044000E+00 -0.1189762E-03
-0.1038000E+00 -0.1327004E-03
-0.1032000E+00 -0.1480624E-03
-0.1026000E+00 -0.1652531E-03
-0.1020000E+00 -0.1844772E-03
-0.1014000E+00 -0.2059537E-03
-0.1008000E+00 -0.2299170E-03
-0.1002000E+00 -0.2566180E-03
-0.9960000E-01 -0.2863259E-03
-0.9900000E-01 -0.3193294E-03
-0.9840000E-01 -0.3559388E-03
-0.9780000E-01 -0.3964884E-03
-0.9720000E-01 -0.4413384E-03
-0.9660000E-01 -0.4908777E-03
-0.9600000E-01 -0.5455263E-03
-0.9540000E-01 -0.6057381E-03
-0.9480000E-01 -0.6720035E-03
-0.9420000E-01 -0.7448525E-03
-0.9360000E-01 -0.8248573E-03
-0.9300000E-01 -0.9126350E-03
-0.9240000E-01 -0.1008850E-02
-0.9180000E-01 -0.1114218E-02
-0.9120000E-01 -0.1229507E-02
-0.9060000E-01 -0.1355539E-02
-0.9000000E-01 -0.1493196E-02
-0.8940000E-01 -0.1643418E-02
-0.8880000E-01 -0.1807208E-02
-0.8820000E-01 -0.1985633E-02
-0.8760000E-01 -0.2179827E-02
-0.8700000E-01 -0.2390992E-02
-0.8640000E-01 -0.2620402E-02
-0.8580000E-01 -0.2869400E-02
-0.8520000E-01 -0.3139408E-02
-0.8460000E-01 -0.3431922E-02
-0.8400000E-01 -0.3748517E-02
-0.8340000E-01 -0.4090848E-02
-0.8280000E-01 -0.4460651E-02
-0.8220000E-01 -0.4859743E-02
-0.8160000E-01 -0.5290026E-02
-0.8100000E-01 -0.5753484E-02
-0.8040000E-01 -0.6252183E-02
-0.7980000E-01 -0.6788272E-02
-0.7920000E-01 -0.7363982E-02
-0.7860000E-01 -0.7981618E-02
-0.7800000E-01 -0.8643565E-02
-0.7740000E-01 -0.9352278E-02
-0.7680000E-01 -0.1011028E-01
-0.7620000E-01 -0.1092016E-01
-0.7560000E-01 -0.1178455E-01
-0.7500000E-01 -0.1270615E-01
-0.7440000E-01 -0.1368770E-01
-0.7380000E-01 -0.1473196E-01
-0.7320000E-01 -0.1584171E-01
-0.7260000E-01 -0.1701977E-01
-0.7200000E-01 -0.1826894E-01
-0.7140000E-01 -0.1959202E-01
-0.7080000E-01 -0.2099176E-01
-0.7020000E-01 -0.2247091E-01
-0.6960000E-01 -0.2403213E-01
-0.6900000E-01 -0.2567802E-01
-0.6840000E-01 -0.2741110E-01
-0.6780000E-01 -0.2923375E-01
-0.6720000E-01 -0.3114823E-01
-0.6660000E-01 -0.3315666E-01
-0.6600000E-01 -0.3526097E-01
-0.6540000E-01 -0.3746288E-01
-0.6480000E-01 -0.3976389E-01
-0.6420000E-01 -0.4216526E-01
-0.6360000E-01 -0.4466795E-01
-0.6300000E-01 -0.4727262E-01
-0.6240000E-01 -0.4997959E-01
-0.6180000E-01 -0.5278881E-01
-0.6120000E-01 -0.5569986E-01
-0.6060000E-01 -0.5871185E-01
-0.6000000E-01 -0.6182348E-01
-0.5940000E-01 -0.6503293E-01
-0.5880000E-01 -0.6833788E-01
-0.5820000E-01 -0.7173546E-01
-0.5760000E-01 -0.7522222E-01
-0.5700000E-01 -0.7879413E-01
-0.5640000E-01 -0.8244651E-01
-0.5580000E-01 -0.8617403E-01
-0.5520000E-01 -0.8997069E-01
-0.5460000E-01 -0.9382978E-01
-0.5400000E-01 -0.9774388E-01
-0.5340000E-01 -0.1017048E+00
-0.5280000E-01 -0.1057037E+00
-0.5220000E-01 -0.1097309E+00
-0.5160000E-01 -0.1137759E+00
-0.5100000E-01 -0.1178276E+00
-0.5040000E-01 -0.1218739E+00
-0.4980000E-01 -0.1259021E+00
-0.4920000E-01 -0.1298987E+00
-0.4860000E-01 -0.1338494E+00
-0.4800000E-01 -0.1377393E+00
-0.4740000E-01 -0.1415526E+00
-0.4680000E-01 -0.1452730E+00
-0.4620000E-01 -0.1488836E+00
-0.4560000E-01 -0.1523665E+00
-0.4500000E-01 -0.1557038E+00
-0.4440000E-01 -0.1588767E+00
-0.4380000E-01 -0.1618659E+00
-0.4320000E-01 -0.1646522E+00
-0.4260000E-01 -0.1672154E+00
-0.4200000E-01 -0.1695355E+00
-0.4140000E-01 -0.1715923E+00
-0.4080000E-01 -0.1733653E+00
-0.4020000E-01 -0.1748341E+00
-0.3960000E-01 -0.1759784E+00
-0.3900000E-01 -0.1767782E+00
-0.3840000E-01 -0.1772135E+00
-0.3780000E-01 -0.1772649E+00
-0.3720000E-01 -0.1769136E+00
-0.3660000E-01 -0.1761412E+00
-0.3600000E-01 -0.1749301E+00
-0.3540000E-01 -0.1732635E+00
-0.3480000E-01 -0.1711258E+00
-0.3420000E-01 -0.1685023E+00
-0.3360000E-01 -0.1653793E+00
-0.3300000E-01 -0.1617448E+00
-0.3240000E-01 -0.1575880E+00
-0.3180000E-01 -0.1528997E+00
-0.3120000E-01 -0.1476723E+00
-0.3060000E-01 -0.1418999E+00
-0.3000000E-01 -0.1355785E+00
-0.2940000E-01 -0.1287062E+00
-0.2880000E-01 -0.1212829E+00
-0.2820000E-01 -0.1133106E+00
-0.2760000E-01 -0.1047935E+00
-0.2700000E-01 -0.9573822E-01
-0.2640000E-01 -0.8615337E-01
-0.2580000E-01 -0.7605004E-01
-0.2520000E-01 -0.6544164E-01
-0.2460000E-01 -0.5434393E-01
-0.2400000E-01 -0.4277506E-01
-0.2340000E-01 -0.3075554E-01
-0.2280000E-01 -0.1830823E-01
-0.2220000E-01 -0.5458285E-02
-0.2160000E-01  0.7766853E-02
-0.2100000E-01  0.2133754E-01
-0.2040000E-01  0.3522201E-01
-0.1980000E-01  0.4938642E-01
-0.1920000E-01  0.6379499E-01
-0.1860000E-01  0.7841012E-01
-0.1800000E-01  0.9319248E-01
-0.1740000E-01  0.1081012E+00
-0.1680000E-01  0.1230939E+00
-0.1620000E-01  0.1381270E+00
-0.1560000E-01  0.1531559E+00
-0.1500000E-01  0.1681349E+00
-0.1440000E-01  0.1830178E+00
-0.1380000E-01  0.1977576E+00
-0.1320000E-01  0.2123073E+00
-0.1260000E-01  0.2266196E+00
-0.1200000E-01  0.2406473E+00
-0.1140000E-01  0.2543435E+00
-0.1080000E-01  0.2676619E+00
-0.1020000E-01  0.2805570E+00
-0.9600000E-02  0.2929842E+00
-0.9000000E-02  0.3049000E+00
-0.8400000E-02  0.3162625E+00
-0.7800000E-02  0.3270313E+00
-0.7200000E-02  0.3371678E+00
-0.6600000E-02  0.3466355E+00
-0.6000000E-02  0.3554000E+00
-0.5400000E-02  0.3634292E+00
-0.4800000E-02  0.3706937E+00
-0.4200000E-02  0.3771668E+00
-0.3600000E-02  0.3828244E+00
-0.3000000E-02  0.3876455E+00
-0.2400000E-02  0.3916121E+00
-0.1800000E-02  0.3947096E+00
-0.1200000E-02  0.3969262E+00
-0.6000000E-03  0.3982537E+00
 0.0000000E+00  0.3986872E+00
 0.6000000E-03  0.3982251E+00
 0.1200000E-02  0.3968691E+00
 0.1800000E-02  0.3946243E+00
 0.2400000E-02  0.3914993E+00
 0.3000000E-02  0.3875059E+00
 0.3600000E-02  0.3826589E+00
 0.4200000E-02  0.3769766E+00
 0.4800000E-02  0.3704801E+00
 0.5400000E-02  0.3631936E+00
 0.6000000E-02  0.3551440E+00
 0.6600000E-02  0.3463609E+00
 0.7200000E-02  0.3368764E+00
 0.7800000E-02  0.3267251E+00
 0.8400000E-02  0.3159435E+00
 0.9000000E-02  0.3045704E+00
 0.9600000E-02  0.2926462E+00
 0.1020000E-01  0.2802129E+00
 0.1080000E-01  0.2673140E+00
 0.1140000E-01  0.2539941E+00
 0.1200000E-01  0.2402987E+00
 0.1260000E-01  0.2262741E+00
 0.1320000E-01  0.2119672E+00
 0.1380000E-01  0.1974251E+00
 0.1440000E-01  0.1826949E+00
 0.1500000E-01  0.1678238E+00
 0.1560000E-01  0.1528584E+00
 0.1620000E-01  0.1378450E+00
 0.1680000E-01  0.1228291E+00
 0.1740000E-01  0.1078551E+00
 0.1800000E-01  0.9296651E-01
 0.1860000E-01  0.7820550E-01
 0.1920000E-01  0.6361278E-01
 0.1980000E-01  0.4922751E-01
 0.2040000E-01  0.3508709E-01
 0.2100000E-01  0.2122714E-01
 0.2160000E-01  0.7681283E-02
 0.2220000E-01 -0.5518887E-02
 0.2280000E-01 -0.1834392E-01
 0.2340000E-01 -0.3076656E-01
 0.2400000E-01 -0.4276183E-01
 0.2460000E-01 -0.5430704E-01
 0.2520000E-01 -0.6538187E-01
 0.2580000E-01 -0.7596833E-01
 0.2640000E-01 -0.8605080E-01
 0.2700000E-01 -0.9561601E-01
 0.2760000E-01 -0.1046530E+00
 0.2820000E-01 -0.1131533E+00
 0.2880000E-01 -0.1211103E+00
 0.2940000E-01 -0.1285201E+00
 0.3000000E-01 -0.1353805E+00
 0.3060000E-01 -0.1416918E+00
 0.3120000E-01 -0.1474559E+00
 0.3180000E-01 -0.1526769E+00
 0.3240000E-01 -0.1573606E+00
 0.3300000E-01 -0.1615146E+00
 0.3360000E-01 -0.1651480E+00
 0.3420000E-01 -0.1682716E+00
 0.3480000E-01 -0.1708976E+00
 0.3540000E-01 -0.1730392E+00
 0.3600000E-01 -0.1747112E+00
 0.3660000E-01 -0.1759291E+00
 0.3720000E-01 -0.1767097E+00
 0.3780000E-01 -0.1770703E+00
 0.3840000E-01 -0.1770292E+00
 0.3900000E-01 -0.1766052E+00
 0.3960000E-01 -0.1758175E+00
 0.4020000E-01 -0.1746858E+00
 0.4080000E-01 -0.1732302E+00
 0.4140000E-01 -0.1714707E+00
 0.4200000E-01 -0.1694278E+00
 0.4260000E-01 -0.1671215E+00
 0.4320000E-01 -0.1645721E+00
 0.4380000E-01 -0.1617996E+00
 0.4440000E-01 -0.1588238E+00
 0.4500000E-01 -0.1556641E+00
 0.4560000E-01 -0.1523395E+00
 0.4620000E-01 -0.1488687E+00
 0.4680000E-01 -0.1452698E+00
 0.4740000E-01 -0.1415602E+00
 0.4800000E-01 -0.1377571E+00
 0.4860000E-01 -0.1338766E+00
 0.4920000E-01 -0.1299345E+00
 0.4980000E-01 -0.1259457E+00
 0.5040000E-01 -0.1219245E+00
 0.5100000E-01 -0.1178844E+00
 0.5160000E-01 -0.1138381E+00
 0.5220000E-01 -0.1097975E+00
 0.5280000E-01 -0.1057741E+00
 0.5340000E-01 -0.1017781E+00
 0.5400000E-01 -0.9781931E-01
 0.5460000E-01 -0.9390668E-01
 0.5520000E-01 -0.9004841E-01
 0.5580000E-01 -0.8625196E-01
 0.5640000E-01 -0.8252408E-01
 0.5700000E-01 -0.7887085E-01
 0.5760000E-01 -0.7529762E-01
 0.5820000E-01 -0.7180914E-01
 0.5880000E-01 -0.6840951E-01
 0.5940000E-01 -0.6510220E-01
 0.6000000E-01 -0.6189016E-01
 0.6060000E-01 -0.5877574E-01
 0.6120000E-01 -0.5576080E-01
 0.6180000E-01 -0.5284670E-01
 0.6240000E-01 -0.5003433E-01
 0.6300000E-01 -0.4732418E-01
 0.6360000E-01 -0.4471632E-01
 0.6420000E-01 -0.4221044E-01
 0.6480000E-01 -0.3980590E-01
 0.6540000E-01 -0.3750176E-01
 0.6600000E-01 -0.3529677E-01
 0.6660000E-01 -0.3318945E-01
 0.6720000E-01 -0.3117807E-01
 0.6780000E-01 -0.2926070E-01
 0.6840000E-01 -0.2743524E-01
 0.6900000E-01 -0.2569942E-01
 0.6960000E-01 -0.2405086E-01
 0.7020000E-01 -0.2248703E-01
 0.7080000E-01 -0.2100534E-01
 0.7140000E-01 -0.1960312E-01
 0.7200000E-01 -0.1827764E-01
 0.7260000E-01 -0.1702613E-01
 0.7320000E-01 -0.1584579E-01
 0.7380000E-01 -0.1473383E-01
 0.7440000E-01 -0.1368745E-01
 0.7500000E-01 -0.1270385E-01
 0.7560000E-01 -0.1178029E-01
 0.7620000E-01 -0.1091403E-01
 0.7680000E-01 -0.1010240E-01
 0.7740000E-01 -0.9342757E-02
 0.7800000E-01 -0.8632528E-02
 0.7860000E-01 -0.7969201E-02
 0.7920000E-01 -0.7350329E-02
 0.7980000E-01 -0.6773537E-02
 0.8040000E-01 -0.6236522E-02
 0.8100000E-01 -0.5737061E-02
 0.8160000E-01 -0.5273008E-02
 0.8220000E-01 -0.4842296E-02
 0.8280000E-01 -0.4442942E-02
 0.8340000E-01 -0.4073040E-02
 0.8400000E-01 -0.3730769E-02
 0.8460000E-01 -0.3414386E-02
 0.8520000E-01 -0.3122231E-02
 0.8580000E-01 -0.2852720E-02
 0.8640000E-01 -0.2604347E-02
 0.8700000E-01 -0.2375682E-02
 0.8760000E-01 -0.2165371E-02
 0.8820000E-01 -0.1972130E-02
 0.8880000E-01 -0.1794745E-02
 0.8940000E-01 -0.1632072E-02
 0.9000000E-01 -0.1483031E-02
 0.9060000E-01 -0.1346606E-02
 0.9120000E-01 -0.1221841E-02
 0.9180000E-01 -0.1107842E-02
 0.9240000E-01 -0.1003767E-02
 0.9300000E-01 -0.9088308E-03
 0.9360000E-01 -0.8222999E-03
 0.9420000E-01 -0.7434889E-03
 0.9480000E-01 -0.6717608E-03
 0.9540000E-01 -0.6065230E-03
 0.9600000E-01 -0.5472257E-03
 0.9660000E-01 -0.4933598E-03
 0.9720000E-01 -0.4444549E-03
 0.9780000E-01 -0.4000773E-03
 0.9840000E-01 -0.3598273E-03
 0.9900000E-01 -0.3233385E-03
 0.9960000E-01 -0.2902746E-03
 0.1002000E+00 -0.2603286E-03
 0.1008000E+00 -0.2332197E-03
 0.1014000E+00 -0.2086923E-03
 0.1020000E+00 -0.1865143E-03
 0.1026000E+00 -0.1664742E-03
 0.1032000E+00 -0.1483806E-03
 0.1038000E+00 -0.1320601E-03
 0.1044000E+00 -0.1173551E-03
 0.1050000E+00 -0.1041232E-03
 0.1056000E+00 -0.9223463E-04
 0.1062000E+00 -0.8157179E-04
 0.1068000E+00 -0.7202748E-04
 0.1074000E+00 -0.6350370E-04
 0.1080000E+00 -0.5591087E-04
 0.1086000E+00 -0.4916657E-04
 0.1092000E+00 -0.4319487E-04
 0.1098000E+00 -0.3792547E-04
 0.1104000E+00 -0.3329317E-04
 0.1110000E+00 -0.2923734E-04
 0.1116000E+00 -0.2570146E-04
 0.1122000E+00 -0.2263280E-04
 0.1128000E+00 -0.1998207E-04
 0.1134000E+00 -0.1770331E-04
 0.1140000E+00 -0.1575362E-04
 0.1146000E+00 -0.1409314E-04
 0.1152000E+00 -0.1268477E-04
 0.1158000E+00 -0.1149429E-04
 0.1164000E+00 -0.1049009E-04
 0.1170000E+00 -0.9643282E-05
 0.1176000E+00 -0.8927403E-05
 0.1182000E+00 -0.8318550E-05
 0.1188000E+00 -0.7795238E-05
 0.1194000E+00 -0.7338417E-05
 0.1200000E+00 -0.6930983E-05
 0.1206000E+00 -0.6558219E-05
 0.1212000E+00 -0.6207541E-05
 0.1218000E+00 -0.5868016E-05
 0.1224000E+00 -0.5530853E-05
 0.1230000E+00 -0.5188724E-05
 0.1236000E+00 -0.4836381E-05
 0.1242000E+00 -0.4469844E-05
 0.1248000E+00 -0.4086864E-05
 0.1254000E+00 -0.3686389E-05
 0.1260000E+00 -0.3268938E-05
 0.1266000E+00 -0.2835904E-05
 0.1272000E+00 -0.2389875E-05
 0.1278000E+00 -0.1934862E-05
 0.1284000E+00 -0.1474937E-05
 0.1290000E+00 -0.1015584E-05
 0.1296000E+00 -0.5627873E-06
 0.1302000E+00 -0.1224534E-06
 0.1308000E+00  0.2985140E-06
 0.1314000E+00  0.6937373E-06
 0.1320000E+00  0.1056527E-05
 0.1326000E+00  0.1380725E-05
 0.1332000E+00  0.1660490E-05
 0.1338000E+00  0.1890688E-05
 0.1344000E+00  0.2067122E-05
 0.1350000E+00  0.2186669E-05
 0.1356000E+00  0.2247208E-05
 0.1362000E+00  0.2248053E-05
 0.1368000E+00  0.2189983E-05
 0.1374000E+00  0.2074861E-05
 0.1380000E+00  0.1906597E-05
 0.1386000E+00  0.1689921E-05
 0.1392000E+00  0.1431222E-05
 0.1398000E+00  0.1137516E-05
 0.1404000E+00  0.8172657E-06
 0.1410000E+00  0.4795581E-06
 0.1416000E+00  0.1338458E-06
 0.1422000E+00 -0.2106152E-06
 0.1428000E+00 -0.5438999E-06
 0.1434000E+00 -0.8570723E-06
 0.1440000E+00 -0.1141720E-05
 0.1446000E+00 -0.1390606E-05
 0.1452000E+00 -0.1597329E-05
 0.1458000E+00 -0.1756753E-05
 0.1464000E+00 -0.1865779E-05
 0.1470000E+00 -0.1922075E-05
 0.1476000E+00 -0.1925468E-05
 0.1482000E+00 -0.1876899E-05
 0.1488000E+00 -0.1779127E-05
 0.1494000E+00 -0.1635919E-05
 0.1500000E+00 -0.1452410E-05
 0.1506000E+00 -0.1234570E-05
 0.1512000E+00 -0.9892116E-06
 0.1518000E+00 -0.7236618E-06
 0.1524000E+00 -0.4455217E-06
 0.1530000E+00 -0.1625823E-06
 0.1536000E+00  0.1177445E-06
 0.1542000E+00  0.3881032E-06
 0.1548000E+00  0.6418332E-06
 0.1554000E+00  0.8729136E-06
 0.1560000E+00  0.1076108E-05
 0.1566000E+00  0.1247189E-05
 0.1572000E+00  0.1382855E-05
 0.1578000E+00  0.1480832E-05
 0.1584000E+00  0.1539898E-05
 0.1590000E+00  0.1559858E-05
 0.1596000E+00  0.1541483E-05
 0.1602000E+00  0.1486425E-05
 0.1608000E+00  0.1397172E-05
 0.1614000E+00  0.1276856E-05
 0.1620000E+00  0.1129215E-05
 0.1626000E+00  0.9583329E-06
 0.1632000E+00  0.7687180E-06
 0.1638000E+00  0.5649992E-06
 0.1644000E+00  0.3518522E-06
 0.1650000E+00  0.1337500E-06
 0.1656000E+00 -0.8475886E-07
 0.1662000E+00 -0.2995649E-06
 0.1668000E+00 -0.5067913E-06
 0.1674000E+00 -0.7029769E-06
 0.1680000E+00 -0.8848915E-06
 0.1686000E+00 -0.1049861E-05
 0.1692000E+00 -0.1195521E-05
 0.1698000E+00 -0.1319885E-05
 0.1704000E+00 -0.1421302E-05
 0.1710000E+00 -0.1498628E-05
 0.1716000E+00 -0.1550786E-05
 0.1722000E+00 -0.1577367E-05
 0.1728000E+00 -0.1577884E-05
 0.1734000E+00 -0.1552526E-05
 0.1740000E+00 -0.1501680E-05
 0.1746000E+00 -0.1426107E-05
 0.1752000E+00 -0.1327033E-05
 0.1758000E+00 -0.1206071E-05
 0.1764000E+00 -0.1065142E-05
 0.1770000E+00 -0.9069564E-06
 0.1776000E+00 -0.7343440E-06
 0.1782000E+00 -0.5506725E-06
 0.1788000E+00 -0.3596157E-06
 0.1794000E+00 -0.1651122E-06
 0.1800000E+00  0.2880127E-07
 0.1806000E+00  0.2178213E-06
 0.1812000E+00  0.3979351E-06
 0.1818000E+00  0.5651711E-06
 0.1824000E+00  0.7160638E-06
 0.1830000E+00  0.8474554E-06
 0.1836000E+00  0.9568060E-06
 0.1842000E+00  0.1042262E-05
 0.1848000E+00  0.1102708E-05
 0.1854000E+00  0.1137768E-05
 0.1860000E+00  0.1147701E-05
 0.1866000E+00  0.1133652E-05
 0.1872000E+00  0.1097213E-05
 0.1878000E+00  0.1040710E-05
 0.1884000E+00  0.9668149E-06
 0.1890000E+00  0.8786475E-06
 0.1896000E+00  0.7794058E-06
 0.1902000E+00  0.6723844E-06
 0.1908000E+00  0.5608539E-06
 0.1914000E+00  0.4478998E-06
 0.1920000E+00  0.3363803E-06
 0.1926000E+00  0.2288107E-06
 0.1932000E+00  0.1272947E-06
 0.1938000E+00  0.3354344E-07
 0.1944000E+00 -0.5118763E-07
 0.1950000E+00 -0.1260397E-06
 0.1956000E+00 -0.1905879E-06
 0.1962000E+00 -0.2447304E-06
 0.1968000E+00 -0.2887188E-06
 0.1974000E+00 -0.3229750E-06
 0.1980000E+00 -0.3481474E-06
 0.1986000E+00 -0.3648591E-06
 0.1992000E+00 -0.3738159E-06
 0.1998000E+00 -0.3756477E-06
 0.2004000E+00 -0.3708766E-06
 0.2010000E+00 -0.3598307E-06
 0.2016000E+00 -0.3426731E-06
 0.2022000E+00 -0.3193595E-06
 0.2028000E+00 -0.2897004E-06
 0.2034000E+00 -0.2534285E-06
 0.2040000E+00 -0.2101602E-06
 0.2046000E+00 -0.1595913E-06
 0.2052000E+00 -0.1014914E-06
 0.2058000E+00 -0.3587767E-07
 0.2064000E+00  0.3691261E-07
 0.2070000E+00  0.1161713E-06
 0.2076000E+00  0.2007092E-06
 0.2082000E+00  0.2888733E-06
 0.2088000E+00  0.3784873E-06
 0.2094000E+00  0.4669303E-06
 0.2100000E+00  0.5511790E-06
 0.2106000E+00  0.6279064E-06
 0.2112000E+00  0.6936154E-06
 0.2118000E+00  0.7448158E-06
 0.2124000E+00  0.7781467E-06
 0.2130000E+00  0.7906137E-06
 0.2136000E+00  0.7797261E-06
 0.2142000E+00  0.7436669E-06
 0.2148000E+00  0.6814357E-06
 0.2154000E+00  0.5929538E-06
 0.2160000E+00  0.4791286E-06
 0.2166000E+00  0.3418878E-06
 0.2172000E+00  0.1841528E-06
 0.2178000E+00  0.9766286E-08
 0.2184000E+00 -0.1766240E-06
 0.2190000E+00 -0.3697045E-06
 0.2196000E+00 -0.5637002E-06
 0.2202000E+00 -0.7525931E-06
 0.2208000E+00 -0.9303351E-06
 0.2214000E+00 -0.1091101E-05
 0.2220000E+00 -0.1229511E-05
 0.2226000E+00 -0.1340847E-05
 0.2232000E+00 -0.1421233E-05
 0.2238000E+00 -0.1467799E-05
 0.2244000E+00 -0.1478779E-05
 0.2250000E+00 -0.1453574E-05
 0.2256000E+00 -0.1392776E-05
 0.2262000E+00 -0.1298117E-05
 0.2268000E+00 -0.1172413E-05
 0.2274000E+00 -0.1019414E-05
 0.2280000E+00 -0.8436767E-06
 0.2286000E+00 -0.6503689E-06
 0.2292000E+00 -0.4450828E-06
 0.2298000E+00 -0.2336320E-06
 0.2304000E+00 -0.2184148E-07
 0.2310000E+00  0.1846418E-06
 0.2316000E+00  0.3805311E-06
 0.2322000E+00  0.5610473E-06
 0.2328000E+00  0.7220582E-06
 0.2334000E+00  0.8601850E-06
 0.2340000E+00  0.9728733E-06
 0.2346000E+00  0.1058434E-05
 0.2352000E+00  0.1116060E-05
 0.2358000E+00  0.1145803E-05
 0.2364000E+00  0.1148543E-05
 0.2370000E+00  0.1125901E-05
 0.2376000E+00  0.1080156E-05
 0.2382000E+00  0.1014140E-05
 0.2388000E+00  0.9310921E-06
 0.2394000E+00  0.8345414E-06
 0.2400000E+00  0.7281526E-06
 0.2406000E+00  0.6155867E-06
 0.2412000E+00  0.5003662E-06
 0.2418000E+00  0.3857569E-06
 0.2424000E+00  0.2746648E-06
 0.2430000E+00  0.1695549E-06
 0.2436000E+00  0.7240715E-07
 0.2442000E+00 -0.1530951E-07
 0.2448000E+00 -0.9263082E-07
 0.2454000E+00 -0.1590578E-06
 0.2460000E+00 -0.2145007E-06
 0.2466000E+00 -0.2591951E-06
 0.2472000E+00 -0.2936279E-06
 0.2478000E+00 -0.3184362E-06
 0.2484000E+00 -0.3343297E-06
 0.2490000E+00 -0.3420179E-06
 0.2496000E+00 -0.3421470E-06
 0.2502000E+00 -0.3352726E-06
 0.2508000E+00 -0.3218470E-06
 0.2514000E+00 -0.3022276E-06
 0.2520000E+00 -0.2767079E-06
 0.2526000E+00 -0.2455567E-06
 0.2532000E+00 -0.2090783E-06
 0.2538000E+00 -0.1676622E-06
 0.2544000E+00 -0.1218323E-06
 0.2550000E+00 -0.7229335E-07
 0.2556000E+00 -0.1995328E-07
 0.2562000E+00  0.3406351E-07
 0.2568000E+00  0.8842970E-07
 0.2574000E+00  0.1416327E-06
 0.2580000E+00  0.1920317E-06
 0.2586000E+00  0.2378988E-06
 0.2592000E+00  0.2774978E-06
 0.2598000E+00  0.3091505E-06
 0.2604000E+00  0.3313128E-06
 0.2610000E+00  0.3426451E-06
 0.2616000E+00  0.3420827E-06
 0.2622000E+00  0.3288898E-06
 0.2628000E+00  0.3027082E-06
 0.2634000E+00  0.2635923E-06
 0.2640000E+00  0.2120296E-06
 0.2646000E+00  0.1489435E-06
 0.2652000E+00  0.7568023E-07
 0.2658000E+00 -0.6018773E-08
 0.2664000E+00 -0.9406131E-07
 0.2670000E+00 -0.1860675E-06
 0.2676000E+00 -0.2794448E-06
 0.2682000E+00 -0.3714757E-06
 0.2688000E+00 -0.4594135E-06
 0.2694000E+00 -0.5405851E-06
 0.2700000E+00 -0.6124909E-06
 0.2706000E+00 -0.6729037E-06
 0.2712000E+00 -0.7199552E-06
 0.2718000E+00 -0.7522115E-06
 0.2724000E+00 -0.7687274E-06
 0.2730000E+00 -0.7690797E-06
 0.2736000E+00 -0.7533803E-06
 0.2742000E+00 -0.7222583E-06
 0.2748000E+00 -0.6768245E-06
 0.2754000E+00 -0.6186090E-06
 0.2760000E+00 -0.5494884E-06
 0.2766000E+00 -0.4715874E-06
 0.2772000E+00 -0.3871822E-06
 0.2778000E+00 -0.2985935E-06
 0.2784000E+00 -0.2080863E-06
 0.2790000E+00 -0.1177757E-06
 0.2796000E+00 -0.2954512E-07
 0.2802000E+00  0.5501434E-07
 0.2808000E+00  0.1346505E-06
 0.2814000E+00  0.2084688E-06
 0.2820000E+00  0.2759323E-06
 0.2826000E+00  0.3368326E-06
 0.2832000E+00  0.3912480E-06
 0.2838000E+00  0.4394844E-06
 0.2844000E+00  0.4819958E-06
 0.2850000E+00  0.5193100E-06
 0.2856000E+00  0.5519414E-06
 0.2862000E+00  0.5803196E-06
 0.2868000E+00  0.6047216E-06
 0.2874000E+00  0.6252258E-06
 0.2880000E+00  0.6416835E-06
 0.2886000E+00  0.6537158E-06
 0.2892000E+00  0.6607365E-06
 0.2898000E+00  0.6619950E-06
 0.2904000E+00  0.6566407E-06
 0.2910000E+00  0.6438104E-06
 0.2916000E+00  0.6227140E-06
 0.2922000E+00  0.5927314E-06
 0.2928000E+00  0.5534949E-06
 0.2934000E+00  0.5049698E-06
 0.2940000E+00  0.4475042E-06
 0.2946000E+00  0.3818544E-06
 0.2952000E+00  0.3091856E-06
 0.2958000E+00  0.2310428E-06
 0.2964000E+00  0.1492897E-06
 0.2970000E+00  0.6602442E-07
 0.2976000E+00 -0.1651833E-07
 0.2982000E+00 -0.9608293E-07
 0.2988000E+00 -0.1705013E-06
 0.2994000E+00 -0.2378009E-06
 0.3000000E+00 -0.2962985E-06
 0.3006000E+00 -0.3446724E-06
 0.3012000E+00 -0.3820151E-06
 0.3018000E+00 -0.4078549E-06
 0.3024000E+00 -0.4221579E-06
 0.3030000E+00 -0.4253037E-06
 0.3036000E+00 -0.4180445E-06
 0.3042000E+00 -0.4014500E-06
 0.3048000E+00 -0.3768415E-06
 0.3054000E+00 -0.3457253E-06
 0.3060000E+00 -0.3097231E-06
 0.3066000E+00 -0.2705064E-06
 0.3072000E+00 -0.2297373E-06
 0.3078000E+00 -0.1890152E-06
 0.3084000E+00 -0.1498291E-06
 0.3090000E+00 -0.1135171E-06
 0.3096000E+00 -0.8123238E-07
 0.3102000E+00 -0.5391319E-07
 0.3108000E+00 -0.3226192E-07
 0.3114000E+00 -0.1672853E-07
 0.3120000E+00 -0.7502975E-08
 0.3126000E+00 -0.4516760E-08
 0.3132000E+00 -0.7456240E-08
 0.3138000E+00 -0.1578609E-07
 0.3144000E+00 -0.2878466E-07
 0.3150000E+00 -0.4559033E-07
 0.3156000E+00 -0.6525505E-07
 0.3162000E+00 -0.8680376E-07
 0.3168000E+00 -0.1092928E-06
 0.3174000E+00 -0.1318661E-06
 0.3180000E+00 -0.1538002E-06
 0.3186000E+00 -0.1745375E-06
 0.3192000E+00 -0.1937014E-06
 0.3198000E+00 -0.2110952E-06
 0.3204000E+00 -0.2266793E-06
 0.3210000E+00 -0.2405357E-06
 0.3216000E+00 -0.2528164E-06
 0.3222000E+00 -0.2636853E-06
 0.3228000E+00 -0.2732571E-06
 0.3234000E+00 -0.2815412E-06
 0.3240000E+00 -0.2883951E-06
 0.3246000E+00 -0.2934942E-06
 0.3252000E+00 -0.2963189E-06
 0.3258000E+00 -0.2961649E-06
 0.3264000E+00 -0.2921730E-06
 0.3270000E+00 -0.2833797E-06
 0.3276000E+00 -0.2687813E-06
 0.3282000E+00 -0.2474084E-06
 0.3288000E+00 -0.2184087E-06
 0.3294000E+00 -0.1811224E-06
 0.3300000E+00 -0.1351548E-06
 0.3306000E+00 -0.8043145E-07
 0.3312000E+00 -0.1723948E-07
 0.3318000E+00  0.5375074E-07
 0.3324000E+00  0.1314899E-06
 0.3330000E+00  0.2145659E-06
 0.3336000E+00  0.3012483E-06
 0.3342000E+00  0.3895399E-06
 0.3348000E+00  0.4772466E-06
 0.3354000E+00  0.5620535E-06
 0.3360000E+00  0.6416010E-06
 0.3366000E+00  0.7135721E-06
 0.3372000E+00  0.7757631E-06
 0.3378000E+00  0.8261609E-06
 0.3384000E+00  0.8630121E-06
 0.3390000E+00  0.8848740E-06
 0.3396000E+00  0.8906686E-06
 0.3402000E+00  0.8797188E-06
 0.3408000E+00  0.8517780E-06
 0.3414000E+00  0.8070471E-06
 0.3420000E+00  0.7461817E-06
 0.3426000E+00  0.6702834E-06
 0.3432000E+00  0.5808839E-06
 0.3438000E+00  0.4799113E-06
 0.3444000E+00  0.3696424E-06
 0.3450000E+00  0.2526479E-06
 0.3456000E+00  0.1317158E-06
 0.3462000E+00  0.9772168E-08
 0.3468000E+00 -0.1102102E-06
 0.3474000E+00 -0.2253102E-06
 0.3480000E+00 -0.3327574E-06
 0.3486000E+00 -0.4300265E-06
 0.3492000E+00 -0.5149298E-06
 0.3498000E+00 -0.5856940E-06
 0.3504000E+00 -0.6410245E-06
 0.3510000E+00 -0.6801494E-06
 0.3516000E+00 -0.7028416E-06
 0.3522000E+00 -0.7094175E-06
 0.3528000E+00 -0.7007113E-06
 0.3534000E+00 -0.6780266E-06
 0.3540000E+00 -0.6430668E-06
 0.3546000E+00 -0.5978485E-06
 0.3552000E+00 -0.5446018E-06
 0.3558000E+00 -0.4856649E-06
 0.3564000E+00 -0.4233769E-06
 0.3570000E+00 -0.3599758E-06
 0.3576000E+00 -0.2975086E-06
 0.3582000E+00 -0.2377558E-06
 0.3588000E+00 -0.1821786E-06
 0.3594000E+00 -0.1318858E-06
 0.3600000E+00 -0.8762373E-07
 0.3606000E+00 -0.4979067E-07
 0.3612000E+00 -0.1846833E-07
 0.3618000E+00  0.6529985E-08
 0.3624000E+00  0.2559912E-07
 0.3630000E+00  0.3927697E-07
 0.3636000E+00  0.4817832E-07
 0.3642000E+00  0.5293521E-07
 0.3648000E+00  0.5414338E-07
 0.3654000E+00  0.5232262E-07
 0.3660000E+00  0.4789210E-07
 0.3666000E+00  0.4116012E-07
 0.3672000E+00  0.3232988E-07
 0.3678000E+00  0.2151732E-07
 0.3684000E+00  0.8781672E-08
 0.3690000E+00 -0.5836713E-08
 0.3696000E+00 -0.2227437E-07
 0.3702000E+00 -0.4040204E-07
 0.3708000E+00 -0.5998442E-07
 0.3714000E+00 -0.8064795E-07
 0.3720000E+00 -0.1018566E-06
 0.3726000E+00 -0.1229007E-06
 0.3732000E+00 -0.1428998E-06
 0.3738000E+00 -0.1608195E-06
 0.3744000E+00 -0.1755022E-06
 0.3750000E+00 -0.1857121E-06
 0.3756000E+00 -0.1901939E-06
 0.3762000E+00 -0.1877338E-06
 0.3768000E+00 -0.1772333E-06
 0.3774000E+00 -0.1577820E-06
 0.3780000E+00 -0.1287217E-06
 0.3786000E+00 -0.8971172E-07
 0.3792000E+00 -0.4077723E-07
 0.3798000E+00  0.1765661E-07
 0.3804000E+00  0.8474529E-07
 0.3810000E+00  0.1592315E-06
 0.3816000E+00  0.2394632E-06
 0.3822000E+00  0.3234376E-06
 0.3828000E+00  0.4088621E-06
 0.3834000E+00  0.4932285E-06
 0.3840000E+00  0.5738998E-06
 0.3846000E+00  0.6482067E-06
 0.3852000E+00  0.7135457E-06
 0.3858000E+00  0.7674786E-06
 0.3864000E+00  0.8078302E-06
 0.3870000E+00  0.8327729E-06
 0.3876000E+00  0.8409024E-06
 0.3882000E+00  0.8312980E-06
 0.3888000E+00  0.8035687E-06
 0.3894000E+00  0.7578768E-06
 0.3900000E+00  0.6949425E-06
 0.3906000E+00  0.6160291E-06
 0.3912000E+00  0.5229064E-06
 0.3918000E+00  0.4177947E-06
 0.3924000E+00  0.3032897E-06
 0.3930000E+00  0.1822732E-06
 0.3936000E+00  0.5781144E-07
 0.3942000E+00 -0.6695418E-07
 0.3948000E+00 -0.1889201E-06
 0.3954000E+00 -0.3051301E-06
 0.3960000E+00 -0.4128776E-06
 0.3966000E+00 -0.5097948E-06
 0.3972000E+00 -0.5939247E-06
 0.3978000E+00 -0.6637713E-06
 0.3984000E+00 -0.7183274E-06
 0.3990000E+00 -0.7570781E-06
 0.3996000E+00 -0.7799808E-06
 0.4002000E+00 -0.7874263E-06
 0.4008000E+00 -0.7801818E-06
 0.4014000E+00 -0.7593262E-06
 0.4020000E+00 -0.7261756E-06
 0.4026000E+00 -0.6822135E-06
 0.4032000E+00 -0.6290264E-06
 0.4038000E+00 -0.5682467E-06
 0.4044000E+00 -0.5015136E-06
 0.4050000E+00 -0.4304440E-06
 0.4056000E+00 -0.3566189E-06
 0.4062000E+00 -0.2815788E-06
 0.4068000E+00 -0.2068276E-06
 0.4074000E+00 -0.1338371E-06
 0.4080000E+00 -0.6404865E-07
 0.4086000E+00  0.1133725E-08
 0.4092000E+00  0.6035868E-07
 0.4098000E+00  0.1123579E-06
 0.4104000E+00  0.1559858E-06
 0.4110000E+00  0.1902721E-06
 0.4116000E+00  0.2144764E-06
 0.4122000E+00  0.2281446E-06
 0.4128000E+00  0.2311581E-06
 0.4134000E+00  0.2237693E-06
 0.4140000E+00  0.2066208E-06
 0.4146000E+00  0.1807405E-06
 0.4152000E+00  0.1475145E-06
 0.4158000E+00  0.1086358E-06
 0.4164000E+00  0.6603256E-07
 0.4170000E+00  0.2178071E-07
 0.4176000E+00 -0.2199215E-07
 0.4182000E+00 -0.6320614E-07
 0.4188000E+00 -0.9992243E-07
 0.4194000E+00 -0.1304270E-06
 0.4200000E+00 -0.1532966E-06
 0.4206000E+00 -0.1674451E-06
 0.4212000E+00 -0.1721516E-06
 0.4218000E+00 -0.1670651E-06
 0.4224000E+00 -0.1521950E-06
 0.4230000E+00 -0.1278842E-06
 0.4236000E+00 -0.9477472E-07
 0.4242000E+00 -0.5376615E-07
 0.4248000E+00 -0.5972009E-08
 0.4254000E+00  0.4732209E-07
 0.4260000E+00  0.1046994E-06
 0.4266000E+00  0.1646498E-06
 0.4272000E+00  0.2256057E-06
 0.4278000E+00  0.2859736E-06
 0.4284000E+00  0.3441677E-06
 0.4290000E+00  0.3986468E-06
 0.4296000E+00  0.4479480E-06
 0.4302000E+00  0.4907264E-06
 0.4308000E+00  0.5257925E-06
 0.4314000E+00  0.5521532E-06
 0.4320000E+00  0.5690434E-06
 0.4326000E+00  0.5759572E-06
 0.4332000E+00  0.5726690E-06
 0.4338000E+00  0.5592401E-06
 0.4344000E+00  0.5360167E-06
 0.4350000E+00  0.5036117E-06
 0.4356000E+00  0.4628726E-06
 0.4362000E+00  0.4148398E-06
 0.4368000E+00  0.3606954E-06
 0.4374000E+00  0.3017052E-06
 0.4380000E+00  0.2391623E-06
 0.4386000E+00  0.1743333E-06
 0.4392000E+00  0.1084107E-06
 0.4398000E+00  0.4247730E-07
 0.4404000E+00 -0.2251696E-07
 0.4410000E+00 -0.8576432E-07
 0.4416000E+00 -0.1465955E-06
 0.4422000E+00 -0.2044643E-06
 0.4428000E+00 -0.2589238E-06
 0.4434000E+00 -0.3095969E-06
 0.4440000E+00 -0.3561467E-06
 0.4446000E+00 -0.3982481E-06
 0.4452000E+00 -0.4355675E-06
 0.4458000E+00 -0.4677499E-06
 0.4464000E+00 -0.4944162E-06
 0.4470000E+00 -0.5151718E-06
 0.4476000E+00 -0.5296258E-06
 0.4482000E+00 -0.5374161E-06
 0.4488000E+00 -0.5382414E-06
 0.4494000E+00 -0.5318942E-06
 0.4500000E+00 -0.5182949E-06
 0.4506000E+00 -0.4975191E-06
 0.4512000E+00 -0.4698182E-06
 0.4518000E+00 -0.4356329E-06
 0.4524000E+00 -0.3955956E-06
 0.4530000E+00 -0.3505209E-06
 0.4536000E+00 -0.3013874E-06
 0.4542000E+00 -0.2493116E-06
 0.4548000E+00 -0.1955118E-06
 0.4554000E+00 -0.1412698E-06
 0.4560000E+00 -0.8788761E-07
 0.4566000E+00 -0.3664470E-07
 0.4572000E+00  0.1124425E-07
 0.4578000E+00  0.5466837E-07
 0.4584000E+00  0.9265496E-07
 0.4590000E+00  0.1243998E-06
 0.4596000E+00  0.1492903E-06
 0.4602000E+00  0.1669236E-06
 0.4608000E+00  0.1771189E-06
 0.4614000E+00  0.1799237E-06
 0.4620000E+00  0.1756153E-06
 0.4626000E+00  0.1646971E-06
 0.4632000E+00  0.1478900E-06
 0.4638000E+00  0.1261187E-06
 0.4644000E+00  0.1004932E-06
 0.4650000E+00  0.7228390E-07
 0.4656000E+00  0.4289134E-07
 0.4662000E+00  0.1380808E-07
 0.4668000E+00 -0.1342608E-07
 0.4674000E+00 -0.3727509E-07
 0.4680000E+00 -0.5626441E-07
 0.4686000E+00 -0.6904245E-07
 0.4692000E+00 -0.7444611E-07
 0.4698000E+00 -0.7156177E-07
 0.4704000E+00 -0.5978580E-07
 0.4710000E+00 -0.3887252E-07
 0.4716000E+00 -0.8970995E-08
 0.4722000E+00  0.2935639E-07
 0.4728000E+00  0.7513171E-07
 0.4734000E+00  0.1269868E-06
 0.4740000E+00  0.1832062E-06
 0.4746000E+00  0.2417907E-06
 0.4752000E+00  0.3005443E-06
 0.4758000E+00  0.3571678E-06
 0.4764000E+00  0.4093673E-06
 0.4770000E+00  0.4549607E-06
 0.4776000E+00  0.4919829E-06
 0.4782000E+00  0.5187773E-06
 0.4788000E+00  0.5340758E-06
 0.4794000E+00  0.5370530E-06