 -0.12000000000000000          0.0000000000000000     
 -0.11939999999999999          0.0000000000000000     
 -0.11879999999999999          0.0000000000000000     
 -0.11820000000000000          0.0000000000000000     
 -0.11760000000000000         -1.3374922875875300E-016
 -0.11699999999999999         -2.4418464856189575E-015
 -0.11639999999999999         -4.8836929712379150E-015
 -0.11580000000000000         -1.5254795717638617E-014
 -0.11520000000000000         -1.5254795717638617E-014
 -0.11459999999999999         -3.0509591435277233E-014
 -0.11399999999999999         -2.6229618656095979E-014
 -0.11340000000000000         -2.1949642488782936E-014
 -0.11280000000000000          0.0000000000000000     
 -0.11219999999999999         -4.2799753202800959E-015
 -0.11159999999999999         -8.5599506405601919E-015
 -0.11100000000000000         -1.2839925113807341E-014
 -0.11040000000000000         -1.7119901281120384E-014
 -0.10979999999999999         -1.7119901281120384E-014
 -0.10919999999999999         -1.5514909371345045E-014
 -0.10860000000000000         -1.2839925113807341E-014
 -0.10800000000000000         -8.5599506405601919E-015
 -0.10740000000000000         -8.5599506405601919E-015
 -0.10679999999999999          8.5599506405601919E-015
 -0.10620000000000000          1.7119901281120384E-014
 -0.10560000000000000          1.7119901281120384E-014
 -0.10500000000000000          3.4239802562240768E-014
 -0.10439999999999999          3.4239802562240768E-014
 -0.10380000000000000          0.0000000000000000     
 -0.10320000000000000         -6.8479605124481535E-014
 -0.10260000000000000         -6.8479605124481535E-014
 -0.10199999999999999         -1.0271940091045872E-013
 -0.10139999999999999         -1.3695921024896307E-013
 -0.10080000000000000          8.7358755212346706E-013
 -0.10020000000000000          8.7358755212346706E-013
  -9.9599999999999994E-002     8.7358755212346706E-013
  -9.9000000000000005E-002     1.8498945864725558E-012
  -9.8400000000000001E-002    -6.8479605124481535E-014
  -9.7799999999999998E-002    -6.8479605124481535E-014
  -9.7199999999999995E-002     0.0000000000000000     
  -9.6599999999999991E-002     6.8479605124481535E-014
  -9.6000000000000002E-002     6.8479605124481535E-014
  -9.5399999999999999E-002     2.0543880182091745E-013
  -9.4799999999999995E-002     6.8479605124481535E-014
  -9.4200000000000006E-002    -1.3695921024896307E-013
  -9.3600000000000003E-002    -2.7391842049792614E-013
  -9.2999999999999999E-002    -4.1087760364183490E-013
  -9.2399999999999996E-002    -4.1087760364183490E-013
  -9.1799999999999993E-002    -4.1087760364183490E-013
  -9.1200000000000003E-002    -5.4783684099585228E-013
  -9.0600000000000000E-002    -8.2175520728366980E-013
  -8.9999999999999997E-002    -8.2175520728366980E-013
  -8.9399999999999993E-002    -8.2175520728366980E-013
  -8.8799999999999990E-002    -8.2175520728366980E-013
  -8.8200000000000001E-002    -2.7391842049792614E-013
  -8.7599999999999997E-002     5.4783684099585228E-013
  -8.6999999999999994E-002     1.0956736819917046E-012
  -8.6400000000000005E-002     1.6435104145673396E-012
  -8.5800000000000001E-002     1.6435104145673396E-012
  -8.5199999999999998E-002     1.6435104145673396E-012
  -8.4600000000000009E-002     1.0956736819917046E-012
  -8.3999999999999991E-002     0.0000000000000000     
  -8.3400000000000002E-002    -2.1913473639834091E-012
  -8.2799999999999999E-002    -4.3826947279668182E-012
  -8.2199999999999995E-002    -5.4783681931180883E-012
  -8.1600000000000006E-002    -5.4783681931180883E-012
  -8.0999999999999989E-002    -5.4783681931180883E-012
  -8.0399999999999999E-002     2.6859129503842283E-011
  -7.9799999999999996E-002     5.9196626767121785E-011
  -7.9199999999999993E-002     6.0292298931230448E-011
  -7.8600000000000003E-002     6.0292298931230448E-011
  -7.8000000000000000E-002     2.9050475566783085E-011
  -7.7399999999999997E-002    -4.3826947279668182E-012
  -7.6800000000000007E-002    -4.3826947279668182E-012
  -7.6199999999999990E-002    -6.5740416582693584E-012
  -7.5600000000000001E-002    -6.5740416582693584E-012
  -7.4999999999999997E-002    -6.9057690121887561E-011
  -7.4399999999999994E-002    -6.2483643259447774E-011
  -7.3800000000000004E-002    -5.8100951133566170E-011
  -7.3200000000000001E-002    -5.8100951133566170E-011
  -7.2599999999999998E-002    -1.1620190226713234E-010
  -7.2000000000000008E-002    -1.1181920667180378E-010
  -7.1399999999999991E-002    -1.0743651801536913E-010
  -7.0800000000000002E-002    -1.1181920667180378E-010
  -7.0199999999999999E-002    -1.1181920667180378E-010
  -6.9599999999999995E-002    -1.1620190226713234E-010
  -6.9000000000000006E-002    -1.1620190226713234E-010
  -6.8400000000000002E-002    -1.0743651801536913E-010
  -6.7799999999999999E-002     1.7530778911867273E-011
  -6.7200000000000010E-002     2.6296166633077434E-011
  -6.6599999999999993E-002     2.6296166633077434E-011
  -6.6000000000000003E-002     2.6296166633077434E-011
  -6.5400000000000000E-002     2.6296166633077434E-011
  -6.4799999999999996E-002     2.6296166633077434E-011
  -6.4200000000000007E-002     0.0000000000000000     
  -6.3600000000000004E-002     0.0000000000000000     
  -6.3000000000000000E-002     0.0000000000000000     
  -6.2399999999999997E-002     0.0000000000000000     
  -6.1800000000000001E-002     1.7530778911867273E-011
  -6.1199999999999997E-002     1.7530778911867273E-011
  -6.0600000000000001E-002     3.5061557823734546E-011
  -5.9999999999999998E-002     5.2592333266154867E-011
  -5.9400000000000001E-002     7.0123115647469092E-011
  -5.8799999999999998E-002     7.0123115647469092E-011
  -5.8200000000000002E-002     7.0123115647469092E-011
  -5.7599999999999998E-002     3.5061557823734546E-011
  -5.6999999999999995E-002     3.5061557823734546E-011
  -5.6400000000000006E-002     0.0000000000000000     
  -5.5800000000000002E-002    -3.5061557823734546E-011
  -5.5199999999999999E-002    -3.5061557823734546E-011
  -5.4599999999999996E-002    -7.0123115647469092E-011
  -5.4000000000000006E-002    -7.0123115647469092E-011
  -5.3400000000000003E-002    -7.0123115647469092E-011
  -5.2800000000000000E-002    -3.5061557823734546E-011
  -5.2199999999999996E-002     3.5061557823734546E-011
  -5.1600000000000007E-002     7.0123115647469092E-011
  -5.1000000000000004E-002     3.5061557823734546E-011
  -5.0400000000000000E-002     0.0000000000000000     
  -4.9799999999999997E-002     0.0000000000000000     
  -4.9200000000000008E-002     0.0000000000000000     
  -4.8600000000000004E-002     0.0000000000000000     
  -4.8000000000000001E-002     0.0000000000000000     
  -4.7399999999999998E-002    -7.0123115647469092E-011
  -4.6800000000000008E-002    -7.0123115647469092E-011
  -4.6200000000000005E-002    -1.4024623129493818E-010
  -4.5600000000000002E-002    -1.4024623129493818E-010
  -4.4999999999999998E-002    -2.1036933306461947E-010
  -4.4400000000000009E-002    -2.1036933306461947E-010
  -4.3800000000000006E-002    -1.2802308102521920E-009
  -4.3200000000000002E-002    -1.2101076807269351E-009
  -4.2599999999999999E-002    -9.9973829215116439E-010
  -4.1999999999999996E-002    -8.5949214412295305E-010
  -4.1400000000000006E-002    -7.1924588507243925E-010
  -4.0800000000000003E-002    -6.4912281105833358E-010
  -4.0200000000000000E-002    -6.4912281105833358E-010
  -3.9599999999999996E-002    -6.4912281105833358E-010
  -3.9000000000000007E-002    -7.8936901459769615E-010
  -3.8400000000000004E-002    -8.5949214412295305E-010
  -3.7800000000000000E-002    -9.9973829215116439E-010
  -3.7199999999999997E-002    -1.1399845512016782E-009
  -3.6600000000000008E-002    -1.2802308102521920E-009
  -3.6000000000000004E-002    -2.8049246258987637E-010
  -3.5400000000000001E-002    -2.8049246258987637E-010
  -3.4799999999999998E-002     7.1924588507243925E-010
  -3.4200000000000008E-002     7.1924588507243925E-010
  -3.3600000000000005E-002     8.5949214412295305E-010
  -3.3000000000000002E-002     9.9973829215116439E-010
  -3.2399999999999998E-002     1.1399845512016782E-009
  -3.1800000000000009E-002     1.2802308102521920E-009
  -3.1200000000000006E-002     1.4204770693027058E-009
  -3.0600000000000002E-002     1.4204770693027058E-009
  -2.9999999999999999E-002     1.1399845512016782E-009
  -2.9400000000000009E-002     1.1399845512016782E-009
  -2.8800000000000006E-002     8.5949214412295305E-010
  -2.8200000000000003E-002     7.1924588507243925E-010
  -2.7600000000000000E-002     4.3875345023813850E-010
  -2.7000000000000010E-002     2.9850721894320031E-010
  -2.6400000000000007E-002     1.5826100152604994E-010
  -2.5800000000000003E-002     1.5826100152604994E-010
  -2.5200000000000000E-002     4.3875345023813850E-010
  -2.4600000000000011E-002     7.9130500763024969E-011
  -2.4000000000000007E-002    -1.4024623129493818E-010
  -2.3400000000000004E-002    -4.2974607206147653E-010
  -2.2800000000000001E-002    -7.1924588507243925E-010
  -2.2199999999999998E-002    -9.3862262406929631E-010
  -2.1600000000000008E-002    -1.2281224925914103E-009
  -2.1000000000000005E-002    -1.5877453796164787E-009
  -2.0400000000000001E-002    -1.8224010078782271E-009
  -1.9799999999999998E-002    -2.1348192102976782E-009
  -1.9200000000000009E-002    -2.5250002089194368E-009
  -1.8600000000000005E-002    -2.8877589208775589E-009
  -1.8000000000000002E-002    -3.1880338369205674E-009
  -1.7399999999999999E-002    -3.3984033365186406E-009
  -1.6800000000000009E-002    -3.8587071315987487E-009
  -1.6200000000000006E-002    -4.0515457655487808E-009
  -1.5600000000000003E-002    -3.1920535104035253E-009
  -1.4999999999999999E-002    -3.2797073945545208E-009
  -1.4400000000000010E-002    -2.2317594439158484E-009
  -1.3800000000000007E-002    -1.1312192293999601E-009
  -1.3200000000000003E-002     8.7653891089889413E-011
  -1.2600000000000000E-002     1.2802308102521920E-009
  -1.2000000000000011E-002     2.4552768707053474E-009
  -1.1400000000000007E-002     3.5601999126555484E-009
  -1.0800000000000004E-002     4.4898151863037583E-009
  -1.0200000000000001E-002     4.2794456867056851E-009
  -9.6000000000000113E-003     3.9989531686046575E-009
  -9.0000000000000080E-003     5.7179376788951686E-009
  -8.4000000000000047E-003     5.2971991237882321E-009
  -7.8000000000000014E-003     4.8764601245920858E-009
  -7.2000000000000119E-003     2.4562449851828205E-009
  -6.6000000000000086E-003     2.1757524670817929E-009
  -6.0000000000000053E-003     1.8952599489807653E-009
  -5.4000000000000020E-003     1.6147675419020402E-009
  -4.7999999999999987E-003    -3.8470912566701543E-010
  -4.2000000000000093E-003    -1.0421668389382077E-010
  -3.6000000000000060E-003     4.5676820659146244E-010
  -3.0000000000000027E-003     1.1579993630661534E-009
  -2.3999999999999994E-003     2.1397228433528426E-009
  -1.8000000000000099E-003     2.9812001756113204E-009
  -1.2000000000000066E-003     1.9634471826179833E-009
  -6.0000000000000331E-004     2.9451707739269750E-009
   0.0000000000000000          3.9268943652359667E-009
   5.9999999999998943E-004     4.7683714754498396E-009
   1.1999999999999927E-003     5.3293565116518948E-009
   1.7999999999999960E-003     5.8903415478539500E-009
   2.3999999999999994E-003     4.4518495556644666E-009
   2.9999999999999888E-003     2.4523729713621378E-009
   3.5999999999999921E-003     2.4523729713621378E-009
   4.1999999999999954E-003     4.5289627603750660E-010
   4.7999999999999987E-003    -1.2660880122083995E-009
   5.3999999999999881E-003    -4.4235641816214866E-009
   6.0000000000000053E-003    -5.5815632116207325E-009
   6.5999999999999948E-003    -6.7395626857091884E-009
   7.1999999999999842E-003    -7.0560846054945614E-009
   7.8000000000000014E-003    -4.8121449047755505E-009
   8.3999999999999908E-003    -4.2871897143470505E-009
   8.9999999999999802E-003    -3.7622345239185506E-009
   9.5999999999999974E-003    -2.6762940752433906E-009
   1.0199999999999987E-002    -3.0288456187577140E-009
   1.0800000000000004E-002    -5.3808739686189710E-009
   1.1399999999999993E-002    -7.4524093562899907E-009
   1.1999999999999983E-002    -6.9634840116350460E-009
   1.2600000000000000E-002    -8.7545268812050381E-009
   1.3199999999999990E-002    -1.2264554705154751E-008
   1.3799999999999979E-002    -1.5494089566914226E-008
   1.4399999999999996E-002    -2.0442609383053423E-008
   1.4999999999999986E-002    -2.6549127341013445E-008
   1.5600000000000003E-002    -3.1814170853294854E-008
   1.6199999999999992E-002    -3.8237210731040250E-008
   1.6799999999999982E-002    -4.4397772569482186E-008
   1.7399999999999999E-002    -4.9436366111876850E-008
   1.7999999999999988E-002    -5.4931728499241217E-008
   1.8600000000000005E-002    -6.1164350029230263E-008
   1.9199999999999995E-002    -6.5994512965517060E-008
   1.9799999999999984E-002    -7.2000680972905684E-008
   2.0400000000000001E-002    -7.8463628483405046E-008
   2.0999999999999991E-002    -8.5883208100767661E-008
   2.1599999999999980E-002    -9.5118913634451019E-008
   2.2199999999999998E-002    -1.0567088537527525E-007
   2.2799999999999987E-002    -1.1850829650938977E-007
   2.3400000000000004E-002    -1.3374084062434122E-007
   2.3999999999999994E-002    -1.5133794306620985E-007
   2.4599999999999983E-002    -1.7112118655404629E-007
   2.5200000000000000E-002    -1.9365324988029897E-007
   2.5799999999999990E-002    -2.1897403712500818E-007
   2.6399999999999979E-002    -2.4693670752640173E-007
   2.6999999999999996E-002    -2.7806504476757254E-007
   2.7599999999999986E-002    -3.1188349680633110E-007
   2.8200000000000003E-002    -3.4875614574048086E-007
   2.8799999999999992E-002    -3.8951199599068786E-007
   2.9399999999999982E-002    -4.3415548134362325E-007
   2.9999999999999999E-002    -4.8381809847342083E-007
   3.0599999999999988E-002    -5.3769321084473631E-007
   3.1199999999999978E-002    -5.9739016933235689E-007
   3.1799999999999995E-002    -6.6255626052225125E-007
   3.2399999999999984E-002    -7.3529412247808068E-007
   3.3000000000000002E-002    -8.1507124605195713E-007
   3.3599999999999991E-002    -9.0331519686515094E-007
   3.4199999999999980E-002    -1.0013856126533938E-006
   3.4799999999999998E-002    -1.1075990187237039E-006
   3.5399999999999987E-002    -1.2242182947375113E-006
   3.6000000000000004E-002    -1.3514368220057804E-006
   3.6599999999999994E-002    -1.4903775991115253E-006
   3.7199999999999983E-002    -1.6411987644460169E-006
   3.7800000000000000E-002    -1.8039885389953270E-006
   3.8399999999999990E-002    -1.9819042336166603E-006
   3.8999999999999979E-002    -2.1731048036599532E-006
   3.9599999999999996E-002    -2.3806076114851749E-006
   4.0199999999999986E-002    -2.6045706817967584E-006
   4.0800000000000003E-002    -2.8472218218666967E-006
   4.1399999999999992E-002    -3.1116485388338333E-006
   4.1999999999999982E-002    -3.3969392916333163E-006
   4.2599999999999999E-002    -3.7062513911223505E-006
   4.3199999999999988E-002    -4.0406025618722197E-006
   4.3799999999999978E-002    -4.4030102799297310E-006
   4.4399999999999995E-002    -4.7946323320502415E-006
   4.4999999999999984E-002    -5.2172758842061739E-006
   4.5600000000000002E-002    -5.6718886298767757E-006
   4.6199999999999991E-002    -6.1595583247253671E-006
   4.6799999999999981E-002    -6.6828815761255100E-006
   4.7399999999999998E-002    -7.2430161708325613E-006
   4.7999999999999987E-002    -7.8428392953355797E-006
   4.8599999999999977E-002    -8.4825096564600244E-006
   4.9199999999999994E-002    -9.1637639343389310E-006
   4.9799999999999983E-002    -9.8897589850821532E-006
   5.0400000000000000E-002    -1.0660793122951873E-005
   5.0999999999999990E-002    -1.1478025953692850E-005
   5.1599999999999979E-002    -1.2344753486104310E-005
   5.2199999999999996E-002    -1.3264555491332430E-005
   5.2799999999999986E-002    -1.4237009963835590E-005
   5.3400000000000003E-002    -1.5265555703081191E-005
   5.3999999999999992E-002    -1.6350191799574532E-005
   5.4599999999999982E-002    -1.7494567146059126E-005
   5.5199999999999999E-002    -1.8700751752476208E-005
   5.5799999999999988E-002    -1.9968674678239040E-005
   5.6399999999999978E-002    -2.1300476873875596E-005
   5.6999999999999995E-002    -2.2698077373206615E-005
   5.7599999999999985E-002    -2.4160757675417699E-005
   5.8200000000000002E-002    -2.5690436814329587E-005
   5.8799999999999991E-002    -2.7287169359624386E-005
   5.9399999999999981E-002    -2.8950935302418657E-005
   5.9999999999999998E-002    -3.0681858333991840E-005
   6.0599999999999987E-002    -3.2480118534294888E-005
   6.1199999999999977E-002    -3.4345404856139794E-005
   6.1799999999999994E-002    -3.6276815080782399E-005
   6.2399999999999983E-002    -3.8274381950031966E-005
   6.3000000000000000E-002    -4.0335766243515536E-005
   6.3599999999999990E-002    -4.2458912503207102E-005
   6.4199999999999979E-002    -4.4642194552579895E-005
   6.4799999999999996E-002    -4.6882185415597633E-005
   6.5399999999999986E-002    -4.9176174798049033E-005
   6.5999999999999975E-002    -5.1520943088689819E-005
   6.6599999999999993E-002    -5.3910840506432578E-005
   6.7199999999999982E-002    -5.6341206800425425E-005
   6.7799999999999999E-002    -5.8806454035220668E-005
   6.8399999999999989E-002    -6.1299986555241048E-005
   6.8999999999999978E-002    -6.3814943132456392E-005
   6.9599999999999995E-002    -6.6343483922537416E-005
   7.0199999999999985E-002    -6.8877772719133645E-005
   7.0799999999999974E-002    -7.1409085649065673E-005
   7.1399999999999991E-002    -7.3927301855292171E-005
   7.1999999999999981E-002    -7.6422933489084244E-005
   7.2599999999999998E-002    -7.8885313996579498E-005
   7.3199999999999987E-002    -8.1302889157086611E-005
   7.3799999999999977E-002    -8.3663806435652077E-005
   7.4399999999999994E-002    -8.5955980466678739E-005
   7.4999999999999983E-002    -8.8166852947324514E-005
   7.5600000000000001E-002    -9.0282745077274740E-005
   7.6199999999999990E-002    -9.2290043539833277E-005
   7.6799999999999979E-002    -9.4174538389779627E-005
   7.7399999999999997E-002    -9.5921524916775525E-005
   7.7999999999999986E-002    -9.7515905508771539E-005
   7.8599999999999975E-002    -9.8942276963498443E-005
   7.9199999999999993E-002    -1.0018506873166189E-004
   7.9799999999999982E-002    -1.0122813546331599E-004
   8.0399999999999999E-002    -1.0205563012277707E-004
   8.0999999999999989E-002    -1.0265107994200662E-004
   8.1599999999999978E-002    -1.0299841960659251E-004
   8.2199999999999995E-002    -1.0308105993317440E-004
   8.2799999999999985E-002    -1.0288289922755212E-004
   8.3399999999999974E-002    -1.0238794493488967E-004
   8.3999999999999991E-002    -1.0158048826269805E-004
   8.4599999999999981E-002    -1.0044502414530143E-004
   8.5199999999999998E-002    -9.8966731457039714E-005
   8.5799999999999987E-002    -9.7131029178854078E-005
   8.6399999999999977E-002    -9.4924245786387473E-005
   8.6999999999999994E-002    -9.2333539214450866E-005
   8.7599999999999983E-002    -8.9346780441701412E-005
   8.8199999999999973E-002    -8.5952939116396010E-005
   8.8799999999999990E-002    -8.2142170867882669E-005
   8.9399999999999979E-002    -7.7905868238303810E-005
   8.9999999999999997E-002    -7.3236988100688905E-005
   9.0599999999999986E-002    -6.8129935243632644E-005
   9.1199999999999976E-002    -6.2580904341302812E-005
   9.1799999999999993E-002    -5.6587821745779365E-005
   9.2399999999999982E-002    -5.0150541937910020E-005
   9.2999999999999999E-002    -4.3270934838801622E-005
   9.3599999999999989E-002    -3.5952969483332708E-005
   9.4199999999999978E-002    -2.8202681278344244E-005
   9.4799999999999995E-002    -2.0028408471262082E-005
   9.5399999999999985E-002    -1.1440682101238053E-005
   9.5999999999999974E-002    -2.4521832528989762E-006
   9.6599999999999991E-002     6.9220718614815269E-006
   9.7199999999999981E-002     1.6664822396705858E-005
   9.7799999999999998E-002     2.6756604711408727E-005
   9.8399999999999987E-002     3.7175763281993568E-005
   9.8999999999999977E-002     4.7898454795358703E-005
   9.9599999999999994E-002     5.8898796851281077E-005
  0.10019999999999998          7.0148831582628191E-005
  0.10079999999999997          8.1618607509881258E-005
  0.10139999999999999          9.3276234110817313E-005
  0.10199999999999998          1.0508806008147076E-004
  0.10260000000000000          1.1701864423230290E-004
  0.10319999999999999          1.2903087190352380E-004
  0.10379999999999998          1.4108604227658361E-004
  0.10439999999999999          1.5314400661736727E-004
  0.10499999999999998          1.6516324831172824E-004
  0.10559999999999997          1.7710099928081036E-004
  0.10619999999999999          1.8891337094828486E-004
  0.10679999999999998          2.0055558707099408E-004
  0.10740000000000000          2.1198205649852753E-004
  0.10799999999999998          2.2314659145195037E-004
  0.10859999999999997          2.3400259669870138E-004
  0.10919999999999999          2.4450340424664319E-004
  0.10979999999999998          2.5460231699980795E-004
  0.11040000000000000          2.6425300166010857E-004
  0.11099999999999999          2.7340970700606704E-004
  0.11159999999999998          2.8202749672345817E-004
  0.11219999999999999          2.9006259865127504E-004
  0.11279999999999998          2.9747260850854218E-004
  0.11339999999999997          3.0421683914028108E-004
  0.11399999999999999          3.1025655334815383E-004
  0.11459999999999998          3.1555516761727631E-004
  0.11520000000000000          3.2007860136218369E-004
  0.11579999999999999          3.2379568438045681E-004
  0.11639999999999998          3.2667801133356988E-004
  0.11699999999999999          3.2870037830434740E-004
  0.11759999999999998          3.2984104473143816E-004
  0.11819999999999997          3.3008167520165443E-004
  0.11879999999999999          3.2940754317678511E-004
  0.11939999999999998          3.2780770561657846E-004
  0.12000000000000000          3.2527506118640304E-004
  0.12059999999999998          3.2180620473809540E-004
  0.12119999999999997          3.1740168924443424E-004
  0.12179999999999999          3.1206590938381851E-004
  0.12239999999999998          3.0580713064409792E-004
  0.12299999999999997          2.9863743111491203E-004
  0.12359999999999999          2.9057261417619884E-004
  0.12419999999999998          2.8163238312117755E-004
  0.12479999999999999          2.7184005011804402E-004
  0.12539999999999998          2.6122244889847934E-004
  0.12599999999999997          2.4981005117297173E-004
  0.12659999999999999          2.3763673380017281E-004
  0.12719999999999998          2.2473957506008446E-004
  0.12779999999999997          2.1115885465405881E-004
  0.12839999999999999          1.9693792273756117E-004
  0.12899999999999998          1.8212285067420453E-004
  0.12959999999999999          1.6676244558766484E-004
  0.13019999999999998          1.5090807573869824E-004
  0.13079999999999997          1.3461326307151467E-004
  0.13139999999999996          1.1793363955803216E-004
  0.13200000000000001          1.0092670709127560E-004
  0.13260000000000000          8.3651495515368879E-005
  0.13319999999999999          6.6168424382340163E-005
  0.13379999999999997          4.8538942792220041E-005
  0.13439999999999996          3.0825314752291888E-005
  0.13500000000000001          1.3090138963889331E-005
  0.13560000000000000         -4.6037257561692968E-006
  0.13619999999999999         -2.2193707991391420E-005
  0.13679999999999998         -3.9617803849978372E-005
  0.13739999999999997         -5.6814886193023995E-005
  0.13799999999999996         -7.3725161200854927E-005
  0.13860000000000000         -9.0290348452981561E-005
  0.13919999999999999         -1.0645419388310984E-004
  0.13979999999999998         -1.2216264440212399E-004
  0.14039999999999997         -1.3736427354160696E-004
  0.14099999999999996         -1.5201041242107749E-004
  0.14160000000000000         -1.6605544078629464E-004
  0.14219999999999999         -1.7945696890819818E-004
  0.14279999999999998         -1.9217602675780654E-004
  0.14339999999999997         -2.0417728228494525E-004
  0.14399999999999996         -2.1542893955484033E-004
  0.14460000000000001         -2.2590300068259239E-004
  0.14520000000000000         -2.3557528038509190E-004
  0.14579999999999999         -2.4442531866952777E-004
  0.14639999999999997         -2.5243655545637012E-004
  0.14699999999999996         -2.5959612685255706E-004
  0.14759999999999995         -2.6589498156681657E-004
  0.14820000000000000         -2.7132767718285322E-004
  0.14879999999999999         -2.7589243836700916E-004
  0.14939999999999998         -2.7959095314145088E-004
  0.14999999999999997         -2.8242831467650831E-004
  0.15059999999999996         -2.8441305039450526E-004
  0.15120000000000000         -2.8555668541230261E-004
  0.15179999999999999         -2.8587397537194192E-004
  0.15239999999999998         -2.8538246988318861E-004
  0.15299999999999997         -2.8410257073119283E-004
  0.15359999999999996         -2.8205732814967632E-004
  0.15420000000000000         -2.7927212067879736E-004
  0.15479999999999999         -2.7577480068430305E-004
  0.15539999999999998         -2.7159537421539426E-004
  0.15599999999999997         -2.6676573907025158E-004
  0.15659999999999996         -2.6131962658837438E-004
  0.15720000000000001         -2.5529251433908939E-004
  0.15780000000000000         -2.4872130597941577E-004
  0.15839999999999999         -2.4164430215023458E-004
  0.15899999999999997         -2.3410085123032331E-004
  0.15959999999999996         -2.2613145119976252E-004
  0.16019999999999995         -2.1777725487481803E-004
  0.16080000000000000         -2.0908012811560184E-004
  0.16139999999999999         -2.0008221326861531E-004
  0.16199999999999998         -1.9082592916674912E-004
  0.16259999999999997         -1.8135359277948737E-004
  0.16319999999999996         -1.7170715727843344E-004
  0.16380000000000000         -1.6192805196624249E-004
  0.16439999999999999         -1.5205690579023212E-004
  0.16499999999999998         -1.4213327085599303E-004
  0.16559999999999997         -1.3219547690823674E-004
  0.16619999999999996         -1.2228029663674533E-004
  0.16680000000000000         -1.1242296022828668E-004
  0.16739999999999999         -1.0265684977639467E-004
  0.16799999999999998         -9.3013433797750622E-005
  0.16859999999999997         -8.3522179920691997E-005
  0.16919999999999996         -7.4210467573720962E-005
  0.16980000000000001         -6.5103529777843505E-005
  0.17040000000000000         -5.6224493164336309E-005
  0.17099999999999999         -4.7594323405064642E-005
  0.17159999999999997         -3.9231857954291627E-005
  0.17219999999999996         -3.1153824238572270E-005
  0.17279999999999995         -2.3374903321382590E-005
  0.17340000000000000         -1.5907728084130213E-005
  0.17399999999999999         -8.7629869085503742E-006
  0.17459999999999998         -1.9495203105179826E-006
  0.17519999999999997          4.5257302190293558E-006
  0.17579999999999996          1.0657497114152648E-005
  0.17640000000000000          1.6442185369669460E-005
  0.17699999999999999          2.1877804101677611E-005
  0.17759999999999998          2.6963858545059338E-005
  0.17819999999999997          3.1701270927442238E-005
  0.17879999999999996          3.6092253139941022E-005
  0.17940000000000000          4.0140268538380042E-005
  0.17999999999999999          4.3849919165950269E-005
  0.18059999999999998          4.7226858441717923E-005
  0.18119999999999997          5.0277703849133104E-005
  0.18179999999999996          5.3009931434644386E-005
  0.18239999999999995          5.5431803048122674E-005
  0.18300000000000000          5.7552293583285064E-005
  0.18359999999999999          5.9380996390245855E-005
  0.18419999999999997          6.0928050515940413E-005
  0.18479999999999996          6.2204060668591410E-005
  0.18539999999999995          6.3220148149412125E-005
  0.18600000000000000          6.3987718021962792E-005
  0.18659999999999999          6.4518564613536000E-005
  0.18719999999999998          6.4824802393559366E-005
  0.18779999999999997          6.4918742282316089E-005
  0.18839999999999996          6.4812978962436318E-005
  0.18900000000000000          6.4520252635702491E-005
  0.18959999999999999          6.4053434471134096E-005
  0.19019999999999998          6.3425402913708240E-005
  0.19079999999999997          6.2649072788190097E-005
  0.19139999999999996          6.1737257055938244E-005
  0.19200000000000000          6.0702619521180168E-005
  0.19259999999999999          5.9557598433457315E-005
  0.19319999999999998          5.8314344641985372E-005
  0.19379999999999997          5.6984641560120508E-005
  0.19439999999999996          5.5579839681740850E-005
  0.19499999999999995          5.4110882047098130E-005
  0.19560000000000000          5.2588165999623016E-005
  0.19619999999999999          5.1021594117628410E-005
  0.19679999999999997          4.9420534196542576E-005
  0.19739999999999996          4.7793804696993902E-005
  0.19799999999999995          4.6149660192895681E-005
  0.19860000000000000          4.4495802285382524E-005
  0.19919999999999999          4.2839361412916332E-005
  0.19979999999999998          4.1186925955116749E-005
  0.20039999999999997          3.9544487663079053E-005
  0.20099999999999996          3.7917492591077462E-005
  0.20160000000000000          3.6310833820607513E-005
  0.20219999999999999          3.4728829632513225E-005
  0.20279999999999998          3.3175285352626815E-005
  0.20339999999999997          3.1653427868150175E-005
  0.20399999999999996          3.0165989301167428E-005
  0.20459999999999995          2.8715205189655535E-005
  0.20519999999999999          2.7302843591314740E-005
  0.20579999999999998          2.5930248739314266E-005
  0.20639999999999997          2.4598368327133358E-005