 -0.12000000000000000          0.0000000000000000     
  -6.9999999999999993E-002     0.0000000000000000     
  -1.9999999999999990E-002     0.0000000000000000     
   3.0000000000000027E-002     0.0000000000000000     
   8.0000000000000016E-002     0.0000000000000000     
  0.13000000000000000          0.0000000000000000     
  0.18000000000000005          0.0000000000000000     
  0.23000000000000004          0.0000000000000000     
  0.28000000000000003          0.0000000000000000     
  0.33000000000000002          0.0000000000000000     
  0.38000000000000000          0.0000000000000000     
  0.43000000000000005          0.0000000000000000     
  0.48000000000000009          0.0000000000000000     
  0.53000000000000003          0.0000000000000000     
  0.58000000000000007          0.0000000000000000     
  0.63000000000000000          0.0000000000000000     
  0.68000000000000005          0.0000000000000000     
  0.73000000000000009          0.0000000000000000     
  0.78000000000000003          0.0000000000000000     
  0.83000000000000007          0.0000000000000000     
  0.88000000000000000          0.0000000000000000     
  0.93000000000000005          0.0000000000000000     
  0.98000000000000009          0.0000000000000000     
   1.0300000000000002          0.0000000000000000     
   1.0800000000000001          0.0000000000000000     
   1.1299999999999999          0.0000000000000000     
   1.1800000000000002          0.0000000000000000     
   1.2300000000000000          0.0000000000000000     
   1.2800000000000002          0.0000000000000000     
   1.3300000000000001          0.0000000000000000     
   1.3799999999999999          0.0000000000000000     
   1.4300000000000002          0.0000000000000000     
   1.4800000000000000          0.0000000000000000     
   1.5300000000000002          0.0000000000000000     
   1.5800000000000001          0.0000000000000000     
   1.6299999999999999          0.0000000000000000     
   1.6800000000000002          0.0000000000000000     
   1.7300000000000000          0.0000000000000000     
   1.7800000000000002          0.0000000000000000     
   1.8300000000000001          0.0000000000000000     
   1.8799999999999999          0.0000000000000000     
   1.9300000000000002          0.0000000000000000     
   1.9800000000000000          0.0000000000000000     
   2.0299999999999998          0.0000000000000000     
   2.0800000000000001          0.0000000000000000     
   2.1299999999999999          0.0000000000000000     
   2.1800000000000002          0.0000000000000000     
   2.2300000000000000          0.0000000000000000     
   2.2800000000000002          0.0000000000000000     
   2.3300000000000001          0.0000000000000000     
   2.3799999999999999          0.0000000000000000     
   2.4300000000000002          0.0000000000000000     
   2.4800000000000000          0.0000000000000000     
   2.5300000000000002          0.0000000000000000     
   2.5800000000000001          0.0000000000000000     
   2.6299999999999999          0.0000000000000000     
   2.6800000000000002          0.0000000000000000     
   2.7300000000000000          0.0000000000000000     
   2.7800000000000002          0.0000000000000000     
   2.8300000000000001          0.0000000000000000     
   2.8799999999999999          0.0000000000000000     
   2.9300000000000002          0.0000000000000000     
   2.9800000000000000          0.0000000000000000     
   3.0300000000000002          0.0000000000000000     
   3.0800000000000001          0.0000000000000000     
   3.1299999999999999          0.0000000000000000     
   3.1800000000000002          0.0000000000000000     
   3.2300000000000000          0.0000000000000000     
   3.2800000000000002          0.0000000000000000     
   3.3300000000000001          0.0000000000000000     
   3.3799999999999999          0.0000000000000000     
   3.4300000000000002          0.0000000000000000     
   3.4800000000000000          0.0000000000000000     
   3.5300000000000002          0.0000000000000000     
   3.5800000000000001          0.0000000000000000     
   3.6299999999999999          0.0000000000000000     
   3.6800000000000002          0.0000000000000000     
   3.7300000000000000          0.0000000000000000     
   3.7800000000000002          0.0000000000000000     
   3.8300000000000001          0.0000000000000000     
   3.8799999999999999          0.0000000000000000     
   3.9299999999999997          0.0000000000000000     
   3.9800000000000004          0.0000000000000000     
   4.0300000000000002          0.0000000000000000     
   4.0800000000000001          0.0000000000000000     
   4.1299999999999999          0.0000000000000000     
   4.1799999999999997          0.0000000000000000     
   4.2300000000000004          0.0000000000000000     
   4.2800000000000002          0.0000000000000000     
   4.3300000000000001          0.0000000000000000     
   4.3799999999999999          0.0000000000000000     
   4.4299999999999997          0.0000000000000000     
   4.4800000000000004          0.0000000000000000     
   4.5300000000000002          0.0000000000000000     
   4.5800000000000001          0.0000000000000000     
   4.6299999999999999          0.0000000000000000     
   4.6800000000000006          0.0000000000000000     
   4.7300000000000004          0.0000000000000000     
   4.7800000000000002          0.0000000000000000     
   4.8300000000000001          0.0000000000000000     
   4.8799999999999999          0.0000000000000000     
   4.9300000000000006          0.0000000000000000     
   4.9800000000000004          0.0000000000000000     
   5.0300000000000002          0.0000000000000000     
   5.0800000000000001          0.0000000000000000     
   5.1299999999999999          0.0000000000000000     
   5.1800000000000006          0.0000000000000000     
   5.2300000000000004          0.0000000000000000     
   5.2800000000000002          0.0000000000000000     
   5.3300000000000001          0.0000000000000000     
   5.3799999999999999          0.0000000000000000     
   5.4300000000000006          0.0000000000000000     
   5.4800000000000004          0.0000000000000000     
   5.5300000000000002          0.0000000000000000     
   5.5800000000000001          0.0000000000000000     
   5.6299999999999999          0.0000000000000000     
   5.6800000000000006          0.0000000000000000     
   5.7300000000000004          0.0000000000000000     
   5.7800000000000002          0.0000000000000000     
   5.8300000000000001          0.0000000000000000     
   5.8799999999999999          0.0000000000000000     
   5.9300000000000006          0.0000000000000000     
   5.9800000000000004          0.0000000000000000     
   6.0300000000000002          0.0000000000000000     
   6.0800000000000001          0.0000000000000000     
   6.1299999999999999          0.0000000000000000     
   6.1800000000000006          0.0000000000000000     
   6.2300000000000004          0.0000000000000000     
   6.2800000000000002          0.0000000000000000     
   6.3300000000000001          0.0000000000000000     
   6.3799999999999999          0.0000000000000000     
   6.4300000000000006          0.0000000000000000     
   6.4800000000000004          0.0000000000000000     
   6.5300000000000002          0.0000000000000000     
   6.5800000000000001          0.0000000000000000     
   6.6299999999999999          0.0000000000000000     
   6.6800000000000006          0.0000000000000000     
   6.7300000000000004          0.0000000000000000     
   6.7800000000000002          0.0000000000000000     
   6.8300000000000001          0.0000000000000000     
   6.8799999999999999          0.0000000000000000     
   6.9300000000000006          0.0000000000000000     
   6.9800000000000004          0.0000000000000000     
   7.0300000000000002          0.0000000000000000     
   7.0800000000000001          0.0000000000000000     
   7.1299999999999999          0.0000000000000000     
   7.1800000000000006          0.0000000000000000     
   7.2300000000000004          0.0000000000000000     
   7.2800000000000002          0.0000000000000000     
   7.3300000000000001          0.0000000000000000     
   7.3799999999999999          0.0000000000000000     
   7.4300000000000006          0.0000000000000000     
   7.4800000000000004          0.0000000000000000     
   7.5300000000000002          0.0000000000000000     
   7.5800000000000001          0.0000000000000000     
   7.6299999999999999          0.0000000000000000     
   7.6800000000000006          0.0000000000000000     
   7.7300000000000004          0.0000000000000000     
   7.7800000000000002          0.0000000000000000     
   7.8300000000000001          0.0000000000000000     
   7.8799999999999999          0.0000000000000000     
   7.9300000000000006          0.0000000000000000     
   7.9799999999999995          0.0000000000000000     
   8.0300000000000011          0.0000000000000000     
   8.0800000000000018          0.0000000000000000     
   8.1300000000000008          0.0000000000000000     
   8.1800000000000015          0.0000000000000000     
   8.2300000000000004          0.0000000000000000     
   8.2800000000000011          0.0000000000000000     
   8.3300000000000018          0.0000000000000000     
   8.3800000000000008          0.0000000000000000     
   8.4300000000000015          0.0000000000000000     
   8.4800000000000004          0.0000000000000000     
   8.5300000000000011          0.0000000000000000     
   8.5800000000000018          0.0000000000000000     
   8.6300000000000008          0.0000000000000000     
   8.6800000000000015          0.0000000000000000     
   8.7300000000000004          0.0000000000000000     
   8.7800000000000011          0.0000000000000000     
   8.8300000000000018          0.0000000000000000     
   8.8800000000000008          0.0000000000000000     
   8.9300000000000015          0.0000000000000000     
   8.9800000000000004          0.0000000000000000     
   9.0300000000000011          0.0000000000000000     
   9.0800000000000018          0.0000000000000000     
   9.1300000000000008          0.0000000000000000     
   9.1800000000000015          0.0000000000000000     
   9.2300000000000004          0.0000000000000000     
   9.2800000000000011          0.0000000000000000     
   9.3300000000000018          0.0000000000000000     
   9.3800000000000008          0.0000000000000000     
   9.4300000000000015          0.0000000000000000     
   9.4800000000000022          0.0000000000000000     
   9.5300000000000011          0.0000000000000000     
   9.5800000000000018          0.0000000000000000     
   9.6300000000000008          0.0000000000000000     
   9.6800000000000015          0.0000000000000000     
   9.7300000000000022          0.0000000000000000     
   9.7800000000000011          0.0000000000000000     
   9.8300000000000018          0.0000000000000000     
   9.8800000000000008          0.0000000000000000     
   9.9300000000000015          0.0000000000000000     
   9.9800000000000022          0.0000000000000000     
   10.030000000000001          0.0000000000000000     
   10.080000000000002          0.0000000000000000     
   10.130000000000001          0.0000000000000000     
   10.180000000000001          0.0000000000000000     
   10.230000000000002          0.0000000000000000     
   10.280000000000001          0.0000000000000000     
   10.330000000000002          0.0000000000000000     
   10.380000000000001          0.0000000000000000     
   10.430000000000001          0.0000000000000000     
   10.480000000000002          0.0000000000000000     
   10.530000000000001          0.0000000000000000     
   10.580000000000002          0.0000000000000000     
   10.630000000000001          0.0000000000000000     
   10.680000000000001          0.0000000000000000     
   10.730000000000002          0.0000000000000000     
   10.780000000000001          0.0000000000000000     
   10.830000000000002          0.0000000000000000     
   10.880000000000001          0.0000000000000000     
   10.930000000000001          0.0000000000000000     
   10.980000000000002          0.0000000000000000     
   11.030000000000001          0.0000000000000000     
   11.080000000000002          0.0000000000000000     
   11.130000000000001          0.0000000000000000     
   11.180000000000001          0.0000000000000000     
   11.230000000000002          0.0000000000000000     
   11.280000000000001          0.0000000000000000     
   11.330000000000002          0.0000000000000000     
   11.380000000000001          0.0000000000000000     
   11.430000000000001          0.0000000000000000     
   11.480000000000002          0.0000000000000000     
   11.530000000000001          0.0000000000000000     
   11.580000000000002          0.0000000000000000     
   11.630000000000001          0.0000000000000000     
   11.680000000000001          0.0000000000000000     
   11.730000000000002          0.0000000000000000     
   11.780000000000001          0.0000000000000000     
   11.830000000000002          0.0000000000000000     
   11.880000000000001          0.0000000000000000     
   11.930000000000001          0.0000000000000000     
   11.980000000000002          0.0000000000000000     
   12.030000000000001          0.0000000000000000     
   12.080000000000002          0.0000000000000000     
   12.130000000000001          0.0000000000000000     
   12.180000000000001          0.0000000000000000     
   12.230000000000002          0.0000000000000000     
   12.280000000000001          0.0000000000000000     
   12.330000000000002          0.0000000000000000     
   12.380000000000001          0.0000000000000000     
   12.430000000000001          0.0000000000000000     
   12.480000000000002          0.0000000000000000     
   12.530000000000001          0.0000000000000000     
   12.580000000000002          0.0000000000000000     
   12.630000000000001          0.0000000000000000     
   12.680000000000001          0.0000000000000000     
   12.730000000000002          0.0000000000000000     
   12.780000000000001          0.0000000000000000     
   12.830000000000002          0.0000000000000000     
   12.880000000000001          0.0000000000000000     
   12.930000000000001          0.0000000000000000     
   12.980000000000002          0.0000000000000000     
   13.030000000000001          0.0000000000000000     
   13.080000000000002          0.0000000000000000     
   13.130000000000001          0.0000000000000000     
   13.180000000000001          0.0000000000000000     
   13.230000000000002          0.0000000000000000     
   13.280000000000001          0.0000000000000000     
   13.330000000000002          0.0000000000000000     
   13.380000000000001          0.0000000000000000     
   13.430000000000001          0.0000000000000000     
   13.480000000000002          0.0000000000000000     
   13.530000000000001          0.0000000000000000     
   13.580000000000002          0.0000000000000000     
   13.630000000000001          0.0000000000000000     
   13.680000000000001          0.0000000000000000     
   13.730000000000002          0.0000000000000000     
   13.780000000000001          0.0000000000000000     
   13.830000000000002          0.0000000000000000     
   13.880000000000001          0.0000000000000000     
   13.930000000000001          0.0000000000000000     
   13.980000000000002          0.0000000000000000     
   14.030000000000001          0.0000000000000000     
   14.080000000000002          0.0000000000000000     
   14.130000000000001          0.0000000000000000     
   14.180000000000001          0.0000000000000000     
   14.230000000000002          0.0000000000000000     
   14.280000000000001          0.0000000000000000     
   14.330000000000002          0.0000000000000000     
   14.380000000000001          0.0000000000000000     
   14.430000000000001          0.0000000000000000     
   14.480000000000002          0.0000000000000000     
   14.530000000000001          0.0000000000000000     
   14.580000000000002          0.0000000000000000     
   14.630000000000001          0.0000000000000000     
   14.680000000000001          0.0000000000000000     
   14.730000000000002          0.0000000000000000     
   14.780000000000001          0.0000000000000000     
   14.830000000000002          0.0000000000000000     
   14.880000000000001          0.0000000000000000     
   14.930000000000001          0.0000000000000000     
   14.980000000000002          0.0000000000000000     
   15.030000000000001          0.0000000000000000     
   15.080000000000002          0.0000000000000000     
   15.130000000000001          0.0000000000000000     
   15.180000000000001          0.0000000000000000     
   15.230000000000002          0.0000000000000000     
   15.280000000000001          0.0000000000000000     
   15.330000000000002          0.0000000000000000     
   15.380000000000001          0.0000000000000000     
   15.430000000000001          0.0000000000000000     
   15.480000000000002          0.0000000000000000     
   15.530000000000001          0.0000000000000000     
   15.580000000000002          0.0000000000000000     
   15.630000000000001          0.0000000000000000     
   15.680000000000001          0.0000000000000000     
   15.730000000000002          0.0000000000000000     
   15.780000000000001          0.0000000000000000     
   15.830000000000002          0.0000000000000000     
   15.880000000000001          0.0000000000000000     
   15.930000000000001          0.0000000000000000     
   15.980000000000002          0.0000000000000000     
   16.030000000000001          0.0000000000000000     
   16.079999999999998          0.0000000000000000     
   16.129999999999999          0.0000000000000000     
   16.180000000000000          0.0000000000000000     
   16.230000000000000          0.0000000000000000     
   16.280000000000001          0.0000000000000000     
   16.329999999999998          0.0000000000000000     
   16.379999999999999          0.0000000000000000     
   16.430000000000000          0.0000000000000000     
   16.480000000000000          0.0000000000000000     
   16.530000000000001          0.0000000000000000     
   16.579999999999998          0.0000000000000000     
   16.629999999999999          0.0000000000000000     
   16.680000000000000          0.0000000000000000     
   16.730000000000000          0.0000000000000000     
   16.780000000000001          0.0000000000000000     
   16.829999999999998          0.0000000000000000     
   16.879999999999999          0.0000000000000000     
   16.930000000000000          0.0000000000000000     
   16.980000000000000          0.0000000000000000     
   17.030000000000001          0.0000000000000000     
   17.079999999999998          0.0000000000000000     
   17.129999999999999          0.0000000000000000     
   17.180000000000000          0.0000000000000000     
   17.230000000000000          0.0000000000000000     
   17.280000000000001          0.0000000000000000     
   17.329999999999998          0.0000000000000000     
   17.379999999999999          0.0000000000000000     
   17.430000000000000          0.0000000000000000     
   17.480000000000000          0.0000000000000000     
   17.530000000000001          0.0000000000000000     
   17.579999999999998          0.0000000000000000     
   17.629999999999999          0.0000000000000000     
   17.680000000000000          0.0000000000000000     
   17.730000000000000          0.0000000000000000     
   17.780000000000001          0.0000000000000000     
   17.829999999999998          0.0000000000000000     
   17.879999999999999          0.0000000000000000     
   17.930000000000000          0.0000000000000000     
   17.980000000000000          0.0000000000000000     
   18.030000000000001          0.0000000000000000     
   18.079999999999998          0.0000000000000000     
   18.129999999999999          0.0000000000000000     
   18.180000000000000          0.0000000000000000     
   18.230000000000000          0.0000000000000000     
   18.280000000000001          0.0000000000000000     
   18.329999999999998          0.0000000000000000     
   18.379999999999999          0.0000000000000000     
   18.430000000000000          0.0000000000000000     
   18.480000000000000          0.0000000000000000     
   18.530000000000001          0.0000000000000000     
   18.579999999999998          0.0000000000000000     
   18.629999999999999          0.0000000000000000     
   18.680000000000000          0.0000000000000000     
   18.730000000000000          0.0000000000000000     
   18.780000000000001          0.0000000000000000     
   18.829999999999998          0.0000000000000000     
   18.879999999999999          0.0000000000000000     
   18.930000000000000          0.0000000000000000     
   18.980000000000000          0.0000000000000000     
   19.030000000000001          0.0000000000000000     
   19.080000000000002          0.0000000000000000     
   19.129999999999999          0.0000000000000000     
   19.180000000000000          0.0000000000000000     
   19.230000000000000          0.0000000000000000     
   19.280000000000001          0.0000000000000000     
   19.330000000000002          0.0000000000000000     
   19.379999999999999          0.0000000000000000     
   19.430000000000000          0.0000000000000000     
   19.480000000000000          0.0000000000000000     
   19.530000000000001          0.0000000000000000     
   19.580000000000002          0.0000000000000000     
   19.629999999999999          0.0000000000000000     
   19.680000000000000          0.0000000000000000     
   19.730000000000000          0.0000000000000000     
   19.780000000000001          0.0000000000000000     
   19.830000000000002          0.0000000000000000     
   19.879999999999999          0.0000000000000000     
   19.930000000000000          0.0000000000000000     
   19.980000000000000          0.0000000000000000     
   20.030000000000001          0.0000000000000000     
   20.080000000000002          0.0000000000000000     
   20.129999999999999          0.0000000000000000     
   20.180000000000000          0.0000000000000000     
   20.230000000000000          0.0000000000000000     
   20.280000000000001          0.0000000000000000     
   20.330000000000002          0.0000000000000000     
   20.379999999999999          0.0000000000000000     
   20.430000000000000          0.0000000000000000     
   20.480000000000000          0.0000000000000000     
   20.530000000000001          0.0000000000000000     
   20.580000000000002          0.0000000000000000     
   20.629999999999999          0.0000000000000000     
   20.680000000000000          0.0000000000000000     
   20.730000000000000          0.0000000000000000     
   20.780000000000001          0.0000000000000000     
   20.830000000000002          0.0000000000000000     
   20.879999999999999          0.0000000000000000     
   20.930000000000000          0.0000000000000000     
   20.980000000000000          0.0000000000000000     
   21.030000000000001          0.0000000000000000     
   21.080000000000002          0.0000000000000000     
   21.129999999999999          0.0000000000000000     
   21.180000000000000          0.0000000000000000     
   21.230000000000000          0.0000000000000000     
   21.280000000000001          0.0000000000000000     
   21.330000000000002          0.0000000000000000     
   21.379999999999999          0.0000000000000000     
   21.430000000000000          0.0000000000000000     
   21.480000000000000          0.0000000000000000     
   21.530000000000001          0.0000000000000000     
   21.580000000000002          0.0000000000000000     
   21.629999999999999          0.0000000000000000     
   21.680000000000000          0.0000000000000000     
   21.730000000000000          0.0000000000000000     
   21.780000000000001          0.0000000000000000     
   21.830000000000002          0.0000000000000000     
   21.879999999999999          0.0000000000000000     
   21.930000000000000          0.0000000000000000     
   21.980000000000000          0.0000000000000000     
   22.030000000000001          0.0000000000000000     
   22.080000000000002          0.0000000000000000     
   22.129999999999999          0.0000000000000000     
   22.180000000000000          0.0000000000000000     
   22.230000000000000          0.0000000000000000     
   22.280000000000001          0.0000000000000000     
   22.330000000000002          0.0000000000000000     
   22.379999999999999          0.0000000000000000     
   22.430000000000000          0.0000000000000000     
   22.480000000000000          0.0000000000000000     
   22.530000000000001          0.0000000000000000     
   22.580000000000002          0.0000000000000000     
   22.629999999999999          0.0000000000000000     
   22.680000000000000          0.0000000000000000     
   22.730000000000000          0.0000000000000000     
   22.780000000000001          0.0000000000000000     
   22.830000000000002          0.0000000000000000     
   22.879999999999999          0.0000000000000000     
   22.930000000000000          0.0000000000000000     
   22.980000000000000          0.0000000000000000     
   23.030000000000001          0.0000000000000000     
   23.080000000000002          0.0000000000000000     
   23.129999999999999          0.0000000000000000     
   23.180000000000000          0.0000000000000000     
   23.230000000000000          0.0000000000000000     
   23.280000000000001          0.0000000000000000     
   23.330000000000002          0.0000000000000000     
   23.379999999999999          0.0000000000000000     
   23.430000000000000          0.0000000000000000     
   23.480000000000000          0.0000000000000000     
   23.530000000000001          0.0000000000000000     
   23.580000000000002          0.0000000000000000     
   23.629999999999999          0.0000000000000000     
   23.680000000000000          0.0000000000000000     
   23.730000000000000          0.0000000000000000     
   23.780000000000001          0.0000000000000000     
   23.830000000000002          0.0000000000000000     
   23.879999999999999          0.0000000000000000     
   23.930000000000000          0.0000000000000000     
   23.980000000000000          0.0000000000000000     
   24.030000000000001          0.0000000000000000     
   24.080000000000002          0.0000000000000000     
   24.129999999999999          0.0000000000000000     
   24.180000000000000          0.0000000000000000     
   24.230000000000000          0.0000000000000000     
   24.280000000000001          0.0000000000000000     
   24.330000000000002          0.0000000000000000     
   24.379999999999999          0.0000000000000000     
   24.430000000000000          0.0000000000000000     
   24.480000000000000          0.0000000000000000     
   24.530000000000001          0.0000000000000000     
   24.580000000000002          0.0000000000000000     
   24.629999999999999          0.0000000000000000     
   24.680000000000000          0.0000000000000000     
   24.730000000000000          0.0000000000000000     
   24.780000000000001          0.0000000000000000     
   24.830000000000002          0.0000000000000000     
   24.879999999999999          0.0000000000000000     
   24.930000000000000          0.0000000000000000     
   24.980000000000000          0.0000000000000000     
   25.030000000000001          0.0000000000000000     
   25.080000000000002          0.0000000000000000     
   25.129999999999999          0.0000000000000000     
   25.180000000000000          0.0000000000000000     
   25.230000000000000          0.0000000000000000     
   25.280000000000001          0.0000000000000000     
   25.330000000000002          0.0000000000000000     
   25.379999999999999          0.0000000000000000     
   25.430000000000000          0.0000000000000000     
   25.480000000000000          0.0000000000000000     
   25.530000000000001          0.0000000000000000     
   25.580000000000002          0.0000000000000000     
   25.629999999999999          0.0000000000000000     
   25.680000000000000          0.0000000000000000     
   25.730000000000000          0.0000000000000000     
   25.780000000000001          0.0000000000000000     
   25.830000000000002          0.0000000000000000     
   25.879999999999999          0.0000000000000000     
   25.930000000000000          0.0000000000000000     
   25.980000000000000          0.0000000000000000     
   26.030000000000001          0.0000000000000000     
   26.080000000000002          0.0000000000000000     
   26.129999999999999          0.0000000000000000     
   26.180000000000000          0.0000000000000000     
   26.230000000000000          0.0000000000000000     
   26.280000000000001          0.0000000000000000     
   26.330000000000002          0.0000000000000000     
   26.379999999999999          0.0000000000000000     
   26.430000000000000          0.0000000000000000     
   26.480000000000000          0.0000000000000000     
   26.530000000000001          0.0000000000000000     
   26.580000000000002          0.0000000000000000     
   26.629999999999999          0.0000000000000000     
   26.680000000000000          0.0000000000000000     
   26.730000000000000          0.0000000000000000     
   26.780000000000001          0.0000000000000000     
   26.830000000000002          0.0000000000000000     
   26.879999999999999          0.0000000000000000     
   26.930000000000000          0.0000000000000000     
   26.980000000000000          0.0000000000000000     
   27.030000000000001          0.0000000000000000     
   27.080000000000002          0.0000000000000000     