-0.1200000E+00  0.0000000E+00
-0.7000000E-01  0.0000000E+00
-0.2000000E-01  0.0000000E+00
 0.3000000E-01  0.0000000E+00
 0.8000000E-01  0.0000000E+00
 0.1300000E+00  0.0000000E+00
 0.1800000E+00  0.0000000E+00
 0.2300000E+00  0.0000000E+00
 0.2800000E+00  0.0000000E+00
 0.3300000E+00  0.0000000E+00
 0.3800000E+00  0.0000000E+00
 0.4300000E+00  0.0000000E+00
 0.4800000E+00  0.0000000E+00
 0.5300000E+00  0.0000000E+00
 0.5800000E+00  0.0000000E+00
 0.6300000E+00  0.0000000E+00
 0.6800000E+00  0.0000000E+00
 0.7300000E+00  0.0000000E+00
 0.7800000E+00  0.0000000E+00
 0.8300000E+00  0.0000000E+00
 0.8800000E+00  0.0000000E+00
 0.9300000E+00  0.0000000E+00
 0.9800000E+00  0.0000000E+00
 0.1030000E+01  0.0000000E+00
 0.1080000E+01  0.0000000E+00
 0.1130000E+01  0.0000000E+00
 0.1180000E+01  0.0000000E+00
 0.1230000E+01  0.0000000E+00
 0.1280000E+01  0.0000000E+00
 0.1330000E+01  0.0000000E+00
 0.1380000E+01  0.0000000E+00
 0.1430000E+01  0.0000000E+00
 0.1480000E+01  0.0000000E+00
 0.1530000E+01  0.0000000E+00
 0.1580000E+01  0.0000000E+00
 0.1630000E+01  0.0000000E+00
 0.1680000E+01  0.0000000E+00
 0.1730000E+01  0.0000000E+00
 0.1780000E+01  0.0000000E+00
 0.1830000E+01  0.0000000E+00
 0.1880000E+01  0.0000000E+00
 0.1930000E+01  0.0000000E+00
 0.1980000E+01  0.0000000E+00
 0.2030000E+01  0.0000000E+00
 0.2080000E+01  0.0000000E+00
 0.2130000E+01  0.0000000E+00
 0.2180000E+01  0.0000000E+00
 0.2230000E+01  0.0000000E+00
 0.2280000E+01  0.0000000E+00
 0.2330000E+01  0.0000000E+00
 0.2380000E+01  0.0000000E+00
 0.2430000E+01  0.0000000E+00
 0.2480000E+01  0.0000000E+00
 0.2530000E+01  0.0000000E+00
 0.2580000E+01  0.0000000E+00
 0.2630000E+01  0.0000000E+00
 0.2680000E+01  0.0000000E+00
 0.2730000E+01  0.0000000E+00
 0.2780000E+01  0.0000000E+00
 0.2830000E+01  0.0000000E+00
 0.2880000E+01  0.0000000E+00
 0.2930000E+01  0.0000000E+00
 0.2980000E+01  0.0000000E+00
 0.3030000E+01  0.0000000E+00
 0.3080000E+01  0.0000000E+00
 0.3130000E+01  0.0000000E+00
 0.3180000E+01  0.0000000E+00
 0.3230000E+01  0.0000000E+00
 0.3280000E+01  0.0000000E+00
 0.3330000E+01  0.0000000E+00
 0.3380000E+01  0.0000000E+00
 0.3430000E+01  0.0000000E+00
 0.3480000E+01  0.0000000E+00
 0.3530000E+01  0.0000000E+00
 0.3580000E+01  0.0000000E+00
 0.3630000E+01  0.0000000E+00
 0.3680000E+01  0.0000000E+00
 0.3730000E+01  0.0000000E+00
 0.3780000E+01  0.0000000E+00
 0.3830000E+01  0.0000000E+00
 0.3880000E+01  0.0000000E+00
 0.3930000E+01  0.0000000E+00
 0.3980000E+01  0.0000000E+00
 0.4030000E+01  0.0000000E+00
 0.4080000E+01  0.0000000E+00
 0.4130000E+01  0.0000000E+00
 0.4180000E+01  0.0000000E+00
 0.4230000E+01  0.0000000E+00
 0.4280000E+01  0.0000000E+00
 0.4330000E+01  0.0000000E+00
 0.4380000E+01  0.0000000E+00
 0.4430000E+01  0.0000000E+00
 0.4480000E+01  0.0000000E+00
 0.4530000E+01  0.0000000E+00
 0.4580000E+01  0.0000000E+00
 0.4630000E+01  0.0000000E+00
 0.4680000E+01  0.0000000E+00
 0.4730000E+01  0.0000000E+00
 0.4780000E+01  0.0000000E+00
 0.4830000E+01  0.0000000E+00
 0.4880000E+01  0.0000000E+00
 0.4930000E+01  0.0000000E+00
 0.4980000E+01  0.0000000E+00
 0.5030000E+01  0.0000000E+00
 0.5080000E+01  0.0000000E+00
 0.5130000E+01  0.0000000E+00
 0.5180000E+01  0.0000000E+00
 0.5230000E+01  0.0000000E+00
 0.5280000E+01  0.0000000E+00
 0.5330000E+01  0.0000000E+00
 0.5380000E+01  0.0000000E+00
 0.5430000E+01  0.0000000E+00
 0.5480000E+01  0.0000000E+00
 0.5530000E+01  0.0000000E+00
 0.5580000E+01  0.0000000E+00
 0.5630000E+01  0.0000000E+00
 0.5680000E+01  0.0000000E+00
 0.5730000E+01  0.0000000E+00
 0.5780000E+01  0.0000000E+00
 0.5830000E+01  0.0000000E+00
 0.5880000E+01  0.0000000E+00
 0.5930000E+01  0.0000000E+00
 0.5980000E+01  0.0000000E+00
 0.6030000E+01  0.0000000E+00
 0.6080000E+01  0.0000000E+00
 0.6130000E+01  0.0000000E+00
 0.6180000E+01  0.0000000E+00
 0.6230000E+01  0.0000000E+00
 0.6280000E+01  0.0000000E+00
 0.6330000E+01  0.0000000E+00
 0.6380000E+01  0.0000000E+00
 0.6430000E+01  0.0000000E+00
 0.6480000E+01  0.0000000E+00
 0.6530000E+01  0.0000000E+00
 0.6580000E+01  0.0000000E+00
 0.6630000E+01  0.0000000E+00
 0.6680000E+01  0.0000000E+00
 0.6730000E+01  0.0000000E+00
 0.6780000E+01  0.0000000E+00
 0.6830000E+01  0.0000000E+00
 0.6880000E+01  0.0000000E+00
 0.6930000E+01  0.0000000E+00
 0.6980000E+01  0.0000000E+00
 0.7030000E+01  0.0000000E+00
 0.7080000E+01  0.0000000E+00
 0.7130000E+01  0.0000000E+00
 0.7180000E+01  0.0000000E+00
 0.7230000E+01  0.0000000E+00
 0.7280000E+01  0.0000000E+00
 0.7330000E+01  0.0000000E+00
 0.7380000E+01  0.0000000E+00
 0.7430000E+01  0.0000000E+00
 0.7480000E+01  0.0000000E+00
 0.7530000E+01  0.0000000E+00
 0.7580000E+01  0.0000000E+00
 0.7630000E+01  0.0000000E+00
 0.7680000E+01  0.0000000E+00
 0.7730000E+01  0.0000000E+00
 0.7780000E+01  0.0000000E+00
 0.7830000E+01  0.0000000E+00
 0.7880000E+01  0.0000000E+00
 0.7930000E+01  0.0000000E+00
 0.7980000E+01  0.0000000E+00
 0.8030000E+01  0.0000000E+00
 0.8080000E+01  0.0000000E+00
 0.8130000E+01  0.0000000E+00
 0.8180000E+01  0.0000000E+00
 0.8230000E+01  0.0000000E+00
 0.8280000E+01  0.0000000E+00
 0.8330000E+01  0.0000000E+00
 0.8380000E+01  0.0000000E+00
 0.8430000E+01  0.0000000E+00
 0.8480000E+01  0.0000000E+00
 0.8530000E+01  0.0000000E+00
 0.8580000E+01  0.0000000E+00
 0.8630000E+01  0.0000000E+00
 0.8680000E+01  0.0000000E+00
 0.8730000E+01  0.0000000E+00
 0.8780000E+01  0.0000000E+00
 0.8830000E+01  0.0000000E+00
 0.8880000E+01  0.0000000E+00
 0.8930000E+01  0.0000000E+00
 0.8980000E+01  0.0000000E+00
 0.9030000E+01  0.0000000E+00
 0.9080000E+01  0.0000000E+00
 0.9130000E+01  0.0000000E+00
 0.9180000E+01  0.0000000E+00
 0.9230000E+01  0.0000000E+00
 0.9280000E+01  0.0000000E+00
 0.9330000E+01  0.0000000E+00
 0.9380000E+01  0.0000000E+00
 0.9430000E+01  0.0000000E+00
 0.9480000E+01  0.0000000E+00
 0.9530000E+01  0.0000000E+00
 0.9580000E+01  0.0000000E+00
 0.9630000E+01  0.0000000E+00
 0.9680000E+01  0.0000000E+00
 0.9730000E+01  0.0000000E+00
 0.9780000E+01  0.0000000E+00
 0.9830000E+01  0.0000000E+00
 0.9880000E+01  0.0000000E+00
 0.9930000E+01  0.0000000E+00
 0.9980000E+01  0.0000000E+00
 0.1003000E+02  0.0000000E+00
 0.1008000E+02  0.0000000E+00
 0.1013000E+02  0.0000000E+00
 0.1018000E+02  0.0000000E+00
 0.1023000E+02  0.0000000E+00
 0.1028000E+02  0.0000000E+00
 0.1033000E+02  0.0000000E+00
 0.1038000E+02  0.0000000E+00
 0.1043000E+02  0.0000000E+00
 0.1048000E+02  0.0000000E+00
 0.1053000E+02  0.0000000E+00
 0.1058000E+02  0.0000000E+00
 0.1063000E+02  0.0000000E+00
 0.1068000E+02  0.0000000E+00
 0.1073000E+02  0.0000000E+00
 0.1078000E+02  0.0000000E+00
 0.1083000E+02  0.0000000E+00
 0.1088000E+02  0.0000000E+00
 0.1093000E+02  0.0000000E+00
 0.1098000E+02  0.0000000E+00
 0.1103000E+02  0.0000000E+00
 0.1108000E+02  0.0000000E+00
 0.1113000E+02  0.0000000E+00
 0.1118000E+02  0.0000000E+00
 0.1123000E+02  0.0000000E+00
 0.1128000E+02  0.0000000E+00
 0.1133000E+02  0.0000000E+00
 0.1138000E+02  0.0000000E+00
 0.1143000E+02  0.0000000E+00
 0.1148000E+02  0.0000000E+00
 0.1153000E+02  0.0000000E+00
 0.1158000E+02  0.0000000E+00
 0.1163000E+02  0.0000000E+00
 0.1168000E+02  0.0000000E+00
 0.1173000E+02  0.0000000E+00
 0.1178000E+02  0.0000000E+00
 0.1183000E+02  0.0000000E+00
 0.1188000E+02  0.0000000E+00
 0.1193000E+02  0.0000000E+00
 0.1198000E+02  0.0000000E+00
 0.1203000E+02  0.0000000E+00
 0.1208000E+02  0.0000000E+00
 0.1213000E+02  0.0000000E+00
 0.1218000E+02  0.0000000E+00
 0.1223000E+02  0.0000000E+00
 0.1228000E+02  0.0000000E+00
 0.1233000E+02  0.0000000E+00
 0.1238000E+02  0.0000000E+00
 0.1243000E+02  0.0000000E+00
 0.1248000E+02  0.0000000E+00
 0.1253000E+02  0.0000000E+00
 0.1258000E+02  0.0000000E+00
 0.1263000E+02  0.0000000E+00
 0.1268000E+02  0.0000000E+00
 0.1273000E+02  0.0000000E+00
 0.1278000E+02  0.0000000E+00
 0.1283000E+02  0.0000000E+00
 0.1288000E+02  0.0000000E+00
 0.1293000E+02  0.0000000E+00
 0.1298000E+02  0.0000000E+00
 0.1303000E+02  0.0000000E+00
 0.1308000E+02  0.0000000E+00
 0.1313000E+02  0.0000000E+00
 0.1318000E+02  0.0000000E+00
 0.1323000E+02  0.0000000E+00
 0.1328000E+02  0.0000000E+00
 0.1333000E+02  0.0000000E+00
 0.1338000E+02  0.0000000E+00
 0.1343000E+02  0.0000000E+00
 0.1348000E+02  0.0000000E+00
 0.1353000E+02  0.0000000E+00
 0.1358000E+02  0.0000000E+00
 0.1363000E+02  0.0000000E+00
 0.1368000E+02  0.0000000E+00
 0.1373000E+02  0.0000000E+00
 0.1378000E+02  0.0000000E+00
 0.1383000E+02  0.0000000E+00
 0.1388000E+02  0.0000000E+00
 0.1393000E+02  0.0000000E+00
 0.1398000E+02  0.0000000E+00
 0.1403000E+02  0.0000000E+00
 0.1408000E+02  0.0000000E+00
 0.1413000E+02  0.0000000E+00
 0.1418000E+02  0.0000000E+00
 0.1423000E+02  0.0000000E+00
 0.1428000E+02  0.0000000E+00
 0.1433000E+02  0.0000000E+00
 0.1438000E+02  0.0000000E+00
 0.1443000E+02  0.0000000E+00
 0.1448000E+02  0.0000000E+00
 0.1453000E+02  0.0000000E+00
 0.1458000E+02  0.0000000E+00
 0.1463000E+02  0.0000000E+00
 0.1468000E+02  0.0000000E+00
 0.1473000E+02  0.0000000E+00
 0.1478000E+02  0.0000000E+00
 0.1483000E+02  0.0000000E+00
 0.1488000E+02  0.0000000E+00
 0.1493000E+02  0.0000000E+00
 0.1498000E+02  0.0000000E+00
 0.1503000E+02  0.0000000E+00
 0.1508000E+02  0.0000000E+00
 0.1513000E+02  0.0000000E+00
 0.1518000E+02  0.0000000E+00
 0.1523000E+02  0.0000000E+00
 0.1528000E+02  0.0000000E+00
 0.1533000E+02  0.0000000E+00
 0.1538000E+02  0.0000000E+00
 0.1543000E+02  0.0000000E+00
 0.1548000E+02  0.0000000E+00
 0.1553000E+02  0.0000000E+00
 0.1558000E+02  0.0000000E+00
 0.1563000E+02  0.0000000E+00
 0.1568000E+02  0.0000000E+00
 0.1573000E+02  0.0000000E+00
 0.1578000E+02  0.0000000E+00
 0.1583000E+02  0.0000000E+00
 0.1588000E+02  0.0000000E+00
 0.1593000E+02  0.0000000E+00
 0.1598000E+02  0.0000000E+00
 0.1603000E+02  0.0000000E+00
 0.1608000E+02  0.0000000E+00
 0.1613000E+02  0.0000000E+00
 0.1618000E+02  0.0000000E+00
 0.1623000E+02  0.0000000E+00
 0.1628000E+02  0.0000000E+00
 0.1633000E+02  0.0000000E+00
 0.1638000E+02  0.0000000E+00
 0.1643000E+02  0.0000000E+00
 0.1648000E+02  0.0000000E+00
 0.1653000E+02  0.0000000E+00
 0.1658000E+02  0.0000000E+00
 0.1663000E+02  0.0000000E+00
 0.1668000E+02  0.0000000E+00
 0.1673000E+02  0.0000000E+00
 0.1678000E+02  0.0000000E+00
 0.1683000E+02  0.0000000E+00
 0.1688000E+02  0.0000000E+00
 0.1693000E+02  0.0000000E+00
 0.1698000E+02  0.0000000E+00
 0.1703000E+02  0.0000000E+00
 0.1708000E+02  0.0000000E+00
 0.1713000E+02  0.0000000E+00
 0.1718000E+02  0.0000000E+00
 0.1723000E+02  0.0000000E+00
 0.1728000E+02  0.0000000E+00
 0.1733000E+02  0.0000000E+00
 0.1738000E+02  0.0000000E+00
 0.1743000E+02  0.0000000E+00
 0.1748000E+02  0.0000000E+00
 0.1753000E+02  0.0000000E+00
 0.1758000E+02  0.0000000E+00
 0.1763000E+02  0.0000000E+00
 0.1768000E+02  0.0000000E+00
 0.1773000E+02  0.0000000E+00
 0.1778000E+02  0.0000000E+00
 0.1783000E+02  0.0000000E+00
 0.1788000E+02  0.0000000E+00
 0.1793000E+02  0.0000000E+00
 0.1798000E+02  0.0000000E+00
 0.1803000E+02  0.0000000E+00
 0.1808000E+02  0.0000000E+00
 0.1813000E+02  0.0000000E+00
 0.1818000E+02  0.0000000E+00
 0.1823000E+02  0.0000000E+00
 0.1828000E+02  0.0000000E+00
 0.1833000E+02  0.0000000E+00
 0.1838000E+02  0.0000000E+00
 0.1843000E+02  0.0000000E+00
 0.1848000E+02  0.0000000E+00
 0.1853000E+02  0.0000000E+00
 0.1858000E+02  0.0000000E+00
 0.1863000E+02  0.0000000E+00
 0.1868000E+02  0.0000000E+00
 0.1873000E+02  0.0000000E+00
 0.1878000E+02  0.0000000E+00
 0.1883000E+02  0.0000000E+00
 0.1888000E+02  0.0000000E+00
 0.1893000E+02  0.0000000E+00
 0.1898000E+02  0.0000000E+00
 0.1903000E+02  0.0000000E+00
 0.1908000E+02  0.0000000E+00
 0.1913000E+02  0.0000000E+00
 0.1918000E+02  0.0000000E+00
 0.1923000E+02  0.0000000E+00
 0.1928000E+02  0.0000000E+00
 0.1933000E+02  0.0000000E+00
 0.1938000E+02  0.0000000E+00
 0.1943000E+02  0.0000000E+00
 0.1948000E+02  0.0000000E+00
 0.1953000E+02  0.0000000E+00
 0.1958000E+02  0.0000000E+00
 0.1963000E+02  0.0000000E+00
 0.1968000E+02  0.0000000E+00
 0.1973000E+02  0.0000000E+00
 0.1978000E+02  0.0000000E+00
 0.1983000E+02  0.0000000E+00
 0.1988000E+02  0.0000000E+00
 0.1993000E+02  0.0000000E+00
 0.1998000E+02  0.0000000E+00
 0.2003000E+02  0.0000000E+00
 0.2008000E+02  0.0000000E+00
 0.2013000E+02  0.0000000E+00
 0.2018000E+02  0.0000000E+00
 0.2023000E+02  0.0000000E+00
 0.2028000E+02  0.0000000E+00
 0.2033000E+02  0.0000000E+00
 0.2038000E+02  0.0000000E+00
 0.2043000E+02  0.0000000E+00
 0.2048000E+02  0.0000000E+00
 0.2053000E+02  0.0000000E+00
 0.2058000E+02  0.0000000E+00
 0.2063000E+02  0.0000000E+00
 0.2068000E+02  0.0000000E+00
 0.2073000E+02  0.0000000E+00
 0.2078000E+02  0.0000000E+00
 0.2083000E+02  0.0000000E+00
 0.2088000E+02  0.0000000E+00
 0.2093000E+02  0.0000000E+00
 0.2098000E+02  0.0000000E+00
 0.2103000E+02  0.0000000E+00
 0.2108000E+02  0.0000000E+00
 0.2113000E+02  0.0000000E+00
 0.2118000E+02  0.0000000E+00
 0.2123000E+02  0.0000000E+00
 0.2128000E+02  0.0000000E+00
 0.2133000E+02  0.0000000E+00
 0.2138000E+02  0.0000000E+00
 0.2143000E+02  0.0000000E+00
 0.2148000E+02  0.0000000E+00
 0.2153000E+02  0.0000000E+00
 0.2158000E+02  0.0000000E+00
 0.2163000E+02  0.0000000E+00
 0.2168000E+02  0.0000000E+00
 0.2173000E+02  0.0000000E+00
 0.2178000E+02  0.0000000E+00
 0.2183000E+02  0.0000000E+00
 0.2188000E+02  0.0000000E+00
 0.2193000E+02  0.0000000E+00
 0.2198000E+02  0.0000000E+00
 0.2203000E+02  0.0000000E+00
 0.2208000E+02  0.0000000E+00
 0.2213000E+02  0.0000000E+00
 0.2218000E+02  0.0000000E+00
 0.2223000E+02  0.0000000E+00
 0.2228000E+02  0.0000000E+00
 0.2233000E+02  0.0000000E+00
 0.2238000E+02  0.0000000E+00
 0.2243000E+02  0.0000000E+00
 0.2248000E+02  0.0000000E+00
 0.2253000E+02  0.0000000E+00
 0.2258000E+02  0.0000000E+00
 0.2263000E+02  0.0000000E+00
 0.2268000E+02  0.0000000E+00
 0.2273000E+02  0.0000000E+00
 0.2278000E+02  0.0000000E+00
 0.2283000E+02  0.0000000E+00
 0.2288000E+02  0.0000000E+00
 0.2293000E+02  0.0000000E+00
 0.2298000E+02  0.0000000E+00
 0.2303000E+02  0.0000000E+00
 0.2308000E+02  0.0000000E+00
 0.2313000E+02  0.0000000E+00
 0.2318000E+02  0.0000000E+00
 0.2323000E+02  0.0000000E+00
 0.2328000E+02  0.0000000E+00
 0.2333000E+02  0.0000000E+00
 0.2338000E+02  0.0000000E+00
 0.2343000E+02  0.0000000E+00
 0.2348000E+02  0.0000000E+00
 0.2353000E+02  0.0000000E+00
 0.2358000E+02  0.0000000E+00
 0.2363000E+02  0.0000000E+00
 0.2368000E+02  0.0000000E+00
 0.2373000E+02  0.0000000E+00
 0.2378000E+02  0.0000000E+00
 0.2383000E+02  0.0000000E+00
 0.2388000E+02  0.0000000E+00
 0.2393000E+02  0.0000000E+00
 0.2398000E+02  0.0000000E+00
 0.2403000E+02  0.0000000E+00
 0.2408000E+02  0.0000000E+00
 0.2413000E+02  0.0000000E+00
 0.2418000E+02  0.0000000E+00
 0.2423000E+02  0.0000000E+00
 0.2428000E+02  0.0000000E+00
 0.2433000E+02  0.0000000E+00
 0.2438000E+02  0.0000000E+00
 0.2443000E+02  0.0000000E+00
 0.2448000E+02  0.0000000E+00
 0.2453000E+02  0.0000000E+00
 0.2458000E+02  0.0000000E+00
 0.2463000E+02  0.0000000E+00
 0.2468000E+02  0.0000000E+00
 0.2473000E+02  0.0000000E+00
 0.2478000E+02  0.0000000E+00
 0.2483000E+02  0.0000000E+00
 0.2488000E+02  0.0000000E+00
 0.2493000E+02  0.0000000E+00
 0.2498000E+02  0.0000000E+00
 0.2503000E+02  0.0000000E+00
 0.2508000E+02  0.0000000E+00
 0.2513000E+02  0.0000000E+00
 0.2518000E+02  0.0000000E+00
 0.2523000E+02  0.0000000E+00
 0.2528000E+02  0.0000000E+00
 0.2533000E+02  0.0000000E+00
 0.2538000E+02  0.0000000E+00
 0.2543000E+02  0.0000000E+00
 0.2548000E+02  0.0000000E+00
 0.2553000E+02  0.0000000E+00
 0.2558000E+02  0.0000000E+00
 0.2563000E+02  0.0000000E+00
 0.2568000E+02  0.0000000E+00
 0.2573000E+02  0.0000000E+00
 0.2578000E+02  0.0000000E+00
 0.2583000E+02  0.0000000E+00
 0.2588000E+02  0.0000000E+00
 0.2593000E+02  0.0000000E+00
 0.2598000E+02  0.0000000E+00
 0.2603000E+02  0.0000000E+00
 0.2608000E+02  0.0000000E+00
 0.2613000E+02  0.0000000E+00
 0.2618000E+02  0.0000000E+00
 0.2623000E+02  0.0000000E+00
 0.2628000E+02  0.0000000E+00
 0.2633000E+02  0.0000000E+00
 0.2638000E+02  0.0000000E+00
 0.2643000E+02  0.0000000E+00
 0.2648000E+02  0.0000000E+00
 0.2653000E+02  0.0000000E+00
 0.2658000E+02  0.0000000E+00
 0.2663000E+02  0.0000000E+00
 0.2668000E+02  0.0000000E+00
 0.2673000E+02  0.0000000E+00
 0.2678000E+02  0.0000000E+00
 0.2683000E+02  0.0000000E+00
 0.2688000E+02  0.0000000E+00
 0.2693000E+02  0.0000000E+00
 0.2698000E+02  0.0000000E+00
 0.2703000E+02  0.0000000E+00
 0.2708000E+02  0.0000000E+00
 0.2713000E+02  0.0000000E+00
 0.2718000E+02  0.0000000E+00
 0.2723000E+02  0.0000000E+00
 0.2728000E+02  0.0000000E+00
 0.2733000E+02  0.0000000E+00
 0.2738000E+02  0.0000000E+00
 0.2743000E+02  0.0000000E+00
 0.2748000E+02  0.0000000E+00
 0.2753000E+02  0.0000000E+00
 0.2758000E+02  0.0000000E+00
 0.2763000E+02  0.0000000E+00
 0.2768000E+02  0.0000000E+00
 0.2773000E+02  0.0000000E+00
 0.2778000E+02  0.0000000E+00
 0.2783000E+02  0.0000000E+00
 0.2788000E+02  0.0000000E+00
 0.2793000E+02  0.0000000E+00
 0.2798000E+02  0.0000000E+00
 0.2803000E+02  0.0000000E+00
 0.2808000E+02  0.0000000E+00
 0.2813000E+02  0.0000000E+00
 0.2818000E+02  0.0000000E+00
 0.2823000E+02  0.0000000E+00
 0.2828000E+02  0.0000000E+00
 0.2833000E+02  0.0000000E+00
 0.2838000E+02  0.0000000E+00
 0.2843000E+02  0.0000000E+00
 0.2848000E+02  0.0000000E+00
 0.2853000E+02  0.0000000E+00
 0.2858000E+02  0.0000000E+00
 0.2863000E+02  0.0000000E+00
 0.2868000E+02  0.0000000E+00
 0.2873000E+02  0.0000000E+00
 0.2878000E+02  0.0000000E+00
 0.2883000E+02  0.0000000E+00
 0.2888000E+02  0.0000000E+00
 0.2893000E+02  0.0000000E+00
 0.2898000E+02  0.0000000E+00
 0.2903000E+02  0.0000000E+00
 0.2908000E+02  0.0000000E+00
 0.2913000E+02  0.0000000E+00
 0.2918000E+02  0.0000000E+00
 0.2923000E+02  0.0000000E+00
 0.2928000E+02  0.0000000E+00
 0.2933000E+02  0.0000000E+00
 0.2938000E+02  0.0000000E+00
 0.2943000E+02  0.0000000E+00
 0.2948000E+02  0.0000000E+00
 0.2953000E+02  0.0000000E+00
 0.2958000E+02  0.0000000E+00
 0.2963000E+02  0.0000000E+00
 0.2968000E+02  0.0000000E+00
 0.2973000E+02  0.0000000E+00
 0.2978000E+02  0.0000000E+00
 0.2983000E+02  0.0000000E+00
 0.2988000E+02  0.0000000E+00
 0.2993000E+02  0.0000000E+00
 0.2998000E+02  0.0000000E+00
 0.3003000E+02  0.0000000E+00
 0.3008000E+02  0.0000000E+00
 0.3013000E+02  0.0000000E+00
 0.3018000E+02  0.0000000E+00
 0.3023000E+02  0.0000000E+00
 0.3028000E+02  0.0000000E+00
 0.3033000E+02  0.0000000E+00
 0.3038000E+02  0.0000000E+00
 0.3043000E+02  0.0000000E+00
 0.3048000E+02  0.0000000E+00
 0.3053000E+02  0.0000000E+00
 0.3058000E+02  0.0000000E+00
 0.3063000E+02  0.0000000E+00
 0.3068000E+02  0.0000000E+00
 0.3073000E+02  0.0000000E+00
 0.3078000E+02  0.0000000E+00
 0.3083000E+02  0.0000000E+00
 0.3088000E+02  0.0000000E+00
 0.3093000E+02  0.0000000E+00
 0.3098000E+02  0.0000000E+00
 0.3103000E+02  0.0000000E+00
 0.3108000E+02  0.0000000E+00
 0.3113000E+02  0.0000000E+00
 0.3118000E+02  0.0000000E+00
 0.3123000E+02  0.0000000E+00
 0.3128000E+02  0.0000000E+00
 0.3133000E+02  0.0000000E+00
 0.3138000E+02  0.0000000E+00
 0.3143000E+02  0.0000000E+00
 0.3148000E+02  0.0000000E+00
 0.3153000E+02  0.0000000E+00
 0.3158000E+02  0.0000000E+00
 0.3163000E+02  0.0000000E+00
 0.3168000E+02  0.0000000E+00
 0.3173000E+02  0.0000000E+00
 0.3178000E+02  0.0000000E+00
 0.3183000E+02  0.0000000E+00
 0.3188000E+02  0.0000000E+00
 0.3193000E+02  0.0000000E+00
 0.3198000E+02  0.0000000E+00
 0.3203000E+02  0.0000000E+00
 0.3208000E+02  0.0000000E+00
 0.3213000E+02  0.0000000E+00
 0.3218000E+02  0.0000000E+00
 0.3223000E+02  0.0000000E+00
 0.3228000E+02  0.0000000E+00
 0.3233000E+02  0.0000000E+00
 0.3238000E+02  0.0000000E+00
 0.3243000E+02  0.0000000E+00
 0.3248000E+02  0.0000000E+00
 0.3253000E+02  0.0000000E+00
 0.3258000E+02  0.0000000E+00
 0.3263000E+02  0.0000000E+00
 0.3268000E+02  0.0000000E+00
 0.3273000E+02  0.0000000E+00
 0.3278000E+02  0.0000000E+00
 0.3283000E+02  0.0000000E+00
 0.3288000E+02  0.0000000E+00
 0.3293000E+02  0.0000000E+00
 0.3298000E+02  0.0000000E+00
 0.3303000E+02  0.0000000E+00
 0.3308000E+02  0.0000000E+00
 0.3313000E+02  0.0000000E+00
 0.3318000E+02  0.0000000E+00
 0.3323000E+02  0.0000000E+00
 0.3328000E+02  0.0000000E+00
 0.3333000E+02  0.0000000E+00
 0.3338000E+02  0.0000000E+00
 0.3343000E+02  0.0000000E+00
 0.3348000E+02  0.0000000E+00
 0.3353000E+02  0.0000000E+00
 0.3358000E+02  0.0000000E+00
 0.3363000E+02  0.0000000E+00
 0.3368000E+02  0.0000000E+00
 0.3373000E+02  0.0000000E+00
 0.3378000E+02  0.0000000E+00
 0.3383000E+02  0.0000000E+00
 0.3388000E+02  0.0000000E+00
 0.3393000E+02  0.0000000E+00
 0.3398000E+02  0.0000000E+00
 0.3403000E+02  0.0000000E+00
 0.3408000E+02  0.0000000E+00
 0.3413000E+02  0.0000000E+00
 0.3418000E+02  0.0000000E+00
 0.3423000E+02  0.0000000E+00
 0.3428000E+02  0.0000000E+00
 0.3433000E+02  0.0000000E+00
 0.3438000E+02  0.0000000E+00
 0.3443000E+02  0.0000000E+00
 0.3448000E+02  0.0000000E+00
 0.3453000E+02  0.0000000E+00
 0.3458000E+02  0.0000000E+00
 0.3463000E+02  0.0000000E+00
 0.3468000E+02  0.0000000E+00
 0.3473000E+02  0.0000000E+00
 0.3478000E+02  0.0000000E+00
 0.3483000E+02  0.0000000E+00
 0.3488000E+02  0.0000000E+00
 0.3493000E+02  0.0000000E+00
 0.3498000E+02  0.0000000E+00
 0.3503000E+02  0.0000000E+00
 0.3508000E+02  0.0000000E+00
 0.3513000E+02  0.0000000E+00
 0.3518000E+02  0.0000000E+00
 0.3523000E+02  0.0000000E+00
 0.3528000E+02  0.0000000E+00
 0.3533000E+02  0.0000000E+00
 0.3538000E+02  0.0000000E+00
 0.3543000E+02  0.0000000E+00
 0.3548000E+02  0.0000000E+00
 0.3553000E+02  0.0000000E+00
 0.3558000E+02  0.0000000E+00
 0.3563000E+02  0.0000000E+00
 0.3568000E+02  0.0000000E+00
 0.3573000E+02  0.0000000E+00
 0.3578000E+02  0.0000000E+00
 0.3583000E+02  0.0000000E+00
 0.3588000E+02  0.0000000E+00
 0.3593000E+02  0.0000000E+00
 0.3598000E+02  0.0000000E+00
 0.3603000E+02  0.0000000E+00
 0.3608000E+02  0.0000000E+00
 0.3613000E+02  0.0000000E+00
 0.3618000E+02  0.0000000E+00
 0.3623000E+02  0.0000000E+00
 0.3628000E+02  0.0000000E+00
 0.3633000E+02  0.0000000E+00
 0.3638000E+02  0.0000000E+00
 0.3643000E+02  0.0000000E+00
 0.3648000E+02  0.0000000E+00
 0.3653000E+02  0.0000000E+00
 0.3658000E+02  0.0000000E+00
 0.3663000E+02  0.0000000E+00
 0.3668000E+02  0.0000000E+00
 0.3673000E+02  0.0000000E+00
 0.3678000E+02  0.0000000E+00
 0.3683000E+02  0.0000000E+00
 0.3688000E+02  0.0000000E+00
 0.3693000E+02  0.0000000E+00
 0.3698000E+02  0.0000000E+00
 0.3703000E+02  0.0000000E+00
 0.3708000E+02  0.0000000E+00
 0.3713000E+02  0.0000000E+00
 0.3718000E+02  0.0000000E+00
 0.3723000E+02  0.0000000E+00
 0.3728000E+02  0.0000000E+00
 0.3733000E+02  0.0000000E+00
 0.3738000E+02  0.0000000E+00
 0.3743000E+02  0.0000000E+00
 0.3748000E+02  0.0000000E+00
 0.3753000E+02  0.0000000E+00
 0.3758000E+02  0.0000000E+00
 0.3763000E+02  0.0000000E+00
 0.3768000E+02  0.0000000E+00
 0.3773000E+02  0.0000000E+00
 0.3778000E+02  0.0000000E+00
 0.3783000E+02  0.0000000E+00
 0.3788000E+02  0.0000000E+00
 0.3793000E+02  0.0000000E+00
 0.3798000E+02  0.0000000E+00
 0.3803000E+02  0.0000000E+00
 0.3808000E+02  0.0000000E+00
 0.3813000E+02  0.0000000E+00
 0.3818000E+02  0.0000000E+00
 0.3823000E+02  0.0000000E+00
 0.3828000E+02  0.0000000E+00
 0.3833000E+02  0.0000000E+00
 0.3838000E+02  0.0000000E+00
 0.3843000E+02  0.0000000E+00
 0.3848000E+02  0.0000000E+00
 0.3853000E+02  0.0000000E+00
 0.3858000E+02  0.0000000E+00
 0.3863000E+02  0.0000000E+00
 0.3868000E+02  0.0000000E+00
 0.3873000E+02  0.0000000E+00
 0.3878000E+02  0.0000000E+00
 0.3883000E+02  0.0000000E+00
 0.3888000E+02  0.0000000E+00
 0.3893000E+02  0.0000000E+00
 0.3898000E+02  0.0000000E+00
 0.3903000E+02  0.0000000E+00
 0.3908000E+02  0.0000000E+00
 0.3913000E+02  0.0000000E+00
 0.3918000E+02  0.0000000E+00
 0.3923000E+02  0.0000000E+00
 0.3928000E+02  0.0000000E+00
 0.3933000E+02  0.0000000E+00
 0.3938000E+02  0.0000000E+00
 0.3943000E+02  0.0000000E+00
 0.3948000E+02  0.0000000E+00
 0.3953000E+02  0.0000000E+00
 0.3958000E+02  0.0000000E+00
 0.3963000E+02  0.0000000E+00
 0.3968000E+02  0.0000000E+00
 0.3973000E+02  0.0000000E+00
 0.3978000E+02  0.0000000E+00
 0.3983000E+02  0.0000000E+00
 0.3988000E+02  0.0000000E+00
 0.3993000E+02  0.0000000E+00
 0.3998000E+02  0.0000000E+00
 0.4003000E+02  0.0000000E+00
 0.4008000E+02  0.0000000E+00
 0.4013000E+02  0.0000000E+00
 0.4018000E+02  0.0000000E+00
 0.4023000E+02  0.0000000E+00
 0.4028000E+02  0.0000000E+00
 0.4033000E+02  0.0000000E+00
 0.4038000E+02  0.0000000E+00
 0.4043000E+02  0.0000000E+00
 0.4048000E+02  0.0000000E+00
 0.4053000E+02  0.0000000E+00
 0.4058000E+02  0.0000000E+00
 0.4063000E+02  0.0000000E+00
 0.4068000E+02  0.0000000E+00
 0.4073000E+02  0.0000000E+00
 0.4078000E+02  0.0000000E+00
 0.4083000E+02  0.0000000E+00
 0.4088000E+02  0.0000000E+00
 0.4093000E+02  0.0000000E+00
 0.4098000E+02  0.0000000E+00
 0.4103000E+02  0.0000000E+00
 0.4108000E+02  0.0000000E+00
 0.4113000E+02  0.0000000E+00
 0.4118000E+02  0.0000000E+00
 0.4123000E+02  0.0000000E+00
 0.4128000E+02  0.0000000E+00
 0.4133000E+02  0.0000000E+00
 0.4138000E+02  0.0000000E+00
 0.4143000E+02  0.0000000E+00
 0.4148000E+02  0.0000000E+00
 0.4153000E+02  0.0000000E+00
 0.4158000E+02  0.0000000E+00
 0.4163000E+02  0.0000000E+00
 0.4168000E+02  0.0000000E+00
 0.4173000E+02  0.0000000E+00
 0.4178000E+02  0.0000000E+00
 0.4183000E+02  0.0000000E+00
 0.4188000E+02  0.0000000E+00
 0.4193000E+02  0.0000000E+00
 0.4198000E+02  0.0000000E+00
 0.4203000E+02  0.0000000E+00
 0.4208000E+02  0.0000000E+00
 0.4213000E+02  0.0000000E+00
 0.4218000E+02  0.0000000E+00
 0.4223000E+02  0.0000000E+00
 0.4228000E+02  0.0000000E+00
 0.4233000E+02  0.0000000E+00
 0.4238000E+02  0.0000000E+00
 0.4243000E+02  0.0000000E+00
 0.4248000E+02  0.0000000E+00
 0.4253000E+02  0.0000000E+00
 0.4258000E+02  0.0000000E+00
 0.4263000E+02  0.0000000E+00
 0.4268000E+02  0.0000000E+00
 0.4273000E+02  0.0000000E+00
 0.4278000E+02  0.0000000E+00
 0.4283000E+02  0.0000000E+00
 0.4288000E+02  0.0000000E+00
 0.4293000E+02  0.0000000E+00
 0.4298000E+02  0.0000000E+00
 0.4303000E+02  0.0000000E+00
 0.4308000E+02  0.0000000E+00
 0.4313000E+02  0.0000000E+00
 0.4318000E+02  0.0000000E+00
 0.4323000E+02  0.0000000E+00
 0.4328000E+02  0.0000000E+00
 0.4333000E+02  0.0000000E+00
 0.4338000E+02  0.0000000E+00
 0.4343000E+02  0.0000000E+00
 0.4348000E+02  0.0000000E+00
 0.4353000E+02  0.0000000E+00
 0.4358000E+02  0.0000000E+00
 0.4363000E+02  0.0000000E+00
 0.4368000E+02  0.0000000E+00
 0.4373000E+02  0.0000000E+00
 0.4378000E+02  0.0000000E+00
 0.4383000E+02  0.0000000E+00
 0.4388000E+02  0.0000000E+00
 0.4393000E+02  0.0000000E+00
 0.4398000E+02  0.0000000E+00
 0.4403000E+02  0.0000000E+00
 0.4408000E+02  0.0000000E+00
 0.4413000E+02  0.0000000E+00
 0.4418000E+02  0.0000000E+00
 0.4423000E+02  0.0000000E+00
 0.4428000E+02  0.0000000E+00
 0.4433000E+02  0.0000000E+00
 0.4438000E+02  0.0000000E+00
 0.4443000E+02  0.0000000E+00
 0.4448000E+02  0.0000000E+00
 0.4453000E+02  0.0000000E+00
 0.4458000E+02  0.0000000E+00
 0.4463000E+02  0.0000000E+00
 0.4468000E+02  0.0000000E+00
 0.4473000E+02  0.0000000E+00
 0.4478000E+02  0.0000000E+00
 0.4483000E+02  0.0000000E+00
 0.4488000E+02  0.0000000E+00
 0.4493000E+02  0.0000000E+00
 0.4498000E+02  0.0000000E+00
 0.4503000E+02  0.0000000E+00
 0.4508000E+02  0.0000000E+00
 0.4513000E+02  0.0000000E+00
 0.4518000E+02  0.0000000E+00
 0.4523000E+02  0.0000000E+00
 0.4528000E+02  0.0000000E+00
 0.4533000E+02  0.0000000E+00
 0.4538000E+02  0.0000000E+00
 0.4543000E+02  0.0000000E+00
 0.4548000E+02  0.0000000E+00
 0.4553000E+02  0.0000000E+00
 0.4558000E+02  0.0000000E+00
 0.4563000E+02  0.0000000E+00
 0.4568000E+02  0.0000000E+00
 0.4573000E+02  0.0000000E+00
 0.4578000E+02  0.0000000E+00
 0.4583000E+02  0.0000000E+00
 0.4588000E+02  0.0000000E+00
 0.4593000E+02  0.0000000E+00
 0.4598000E+02  0.0000000E+00
 0.4603000E+02  0.0000000E+00
 0.4608000E+02  0.0000000E+00
 0.4613000E+02  0.0000000E+00
 0.4618000E+02  0.0000000E+00
 0.4623000E+02  0.0000000E+00
 0.4628000E+02  0.0000000E+00
 0.4633000E+02  0.0000000E+00
 0.4638000E+02  0.0000000E+00
 0.4643000E+02  0.0000000E+00
 0.4648000E+02  0.0000000E+00
 0.4653000E+02  0.0000000E+00
 0.4658000E+02  0.0000000E+00
 0.4663000E+02  0.0000000E+00
 0.4668000E+02  0.0000000E+00
 0.4673000E+02  0.0000000E+00
 0.4678000E+02  0.0000000E+00
 0.4683000E+02  0.0000000E+00
 0.4688000E+02  0.0000000E+00
 0.4693000E+02  0.0000000E+00
 0.4698000E+02  0.0000000E+00
 0.4703000E+02  0.0000000E+00
 0.4708000E+02  0.0000000E+00
 0.4713000E+02  0.0000000E+00
 0.4718000E+02  0.0000000E+00
 0.4723000E+02  0.0000000E+00
 0.4728000E+02  0.0000000E+00
 0.4733000E+02  0.0000000E+00
 0.4738000E+02  0.0000000E+00
 0.4743000E+02  0.0000000E+00
 0.4748000E+02  0.0000000E+00
 0.4753000E+02  0.0000000E+00
 0.4758000E+02  0.0000000E+00
 0.4763000E+02  0.0000000E+00
 0.4768000E+02  0.0000000E+00
 0.4773000E+02  0.0000000E+00
 0.4778000E+02  0.0000000E+00
 0.4783000E+02  0.0000000E+00
 0.4788000E+02  0.0000000E+00
 0.4793000E+02  0.0000000E+00
 0.4798000E+02  0.0000000E+00
 0.4803000E+02  0.0000000E+00
 0.4808000E+02  0.0000000E+00
 0.4813000E+02  0.0000000E+00
 0.4818000E+02  0.0000000E+00
 0.4823000E+02  0.0000000E+00
 0.4828000E+02  0.0000000E+00
 0.4833000E+02  0.0000000E+00
 0.4838000E+02  0.0000000E+00
 0.4843000E+02  0.0000000E+00
 0.4848000E+02  0.0000000E+00
 0.4853000E+02  0.0000000E+00
 0.4858000E+02  0.0000000E+00
 0.4863000E+02  0.0000000E+00
 0.4868000E+02  0.0000000E+00
 0.4873000E+02  0.0000000E+00
 0.4878000E+02  0.0000000E+00
 0.4883000E+02  0.0000000E+00
 0.4888000E+02  0.0000000E+00
 0.4893000E+02  0.0000000E+00
 0.4898000E+02  0.0000000E+00
 0.4903000E+02  0.0000000E+00
 0.4908000E+02  0.0000000E+00
 0.4913000E+02  0.0000000E+00
 0.4918000E+02  0.0000000E+00
 0.4923000E+02  0.0000000E+00
 0.4928000E+02  0.0000000E+00
 0.4933000E+02  0.0000000E+00
 0.4938000E+02  0.0000000E+00
 0.4943000E+02  0.0000000E+00
 0.4948000E+02  0.0000000E+00
 0.4953000E+02  0.0000000E+00
 0.4958000E+02  0.0000000E+00
 0.4963000E+02  0.0000000E+00
 0.4968000E+02  0.0000000E+00
 0.4973000E+02  0.0000000E+00
 0.4978000E+02  0.0000000E+00
 0.4983000E+02  0.0000000E+00