 -0.23999999999999999          0.0000000000000000     
 -0.23899999999999999          1.4608764006405117E-016
 -0.23799999999999999          4.1298184545281012E-016
 -0.23699999999999999          7.4285488276383851E-016
 -0.23599999999999999          1.0630041141892876E-015
 -0.23499999999999999          1.3077736601770921E-015
 -0.23399999999999999          1.4379976701582786E-015
 -0.23299999999999998          1.4520746165878245E-015
 -0.23199999999999998          1.3854421345173618E-015
 -0.23099999999999998          1.2988582148907945E-015
 -0.22999999999999998          1.2593679507030227E-015
 -0.22899999999999998          1.3200330856600816E-015
 -0.22799999999999998          1.5047758418956834E-015
 -0.22699999999999998          1.8029458388892915E-015
 -0.22599999999999998          2.1750510125081240E-015
 -0.22499999999999998          2.5675220345525064E-015
 -0.22399999999999998          2.9315327495691506E-015
 -0.22299999999999998          3.2396979470986147E-015
 -0.22199999999999998          3.4952607045376981E-015
 -0.22100000000000000          3.7309086585956516E-015
 -0.22000000000000000          3.9977790941223459E-015
 -0.21900000000000000          4.3484215116489618E-015
 -0.21800000000000000          4.8194582276829822E-015
 -0.21700000000000000          5.4197458187208996E-015
 -0.21600000000000000          6.1280406984455764E-015
 -0.21500000000000000          6.9010281430332707E-015
 -0.21400000000000000          7.6891567250696102E-015
 -0.21299999999999999          8.4551286192716755E-015
 -0.21199999999999999          9.1889429076312377E-015
 -0.21099999999999999          9.9144613553053960E-015
 -0.20999999999999999          1.0685142752694213E-014
 -0.20899999999999999          1.1570092282799427E-014
 -0.20799999999999999          1.2634733076401064E-014
 -0.20699999999999999          1.3922210450733417E-014
 -0.20599999999999999          1.5441530907124636E-014
 -0.20499999999999999          1.7166325462893750E-014
 -0.20399999999999999          1.9044905626500460E-014
 -0.20299999999999999          2.1018595731622567E-014
 -0.20199999999999999          2.3042779164796401E-014
 -0.20099999999999998          2.5104140568091120E-014
 -0.19999999999999998          2.7228719428371223E-014
 -0.19899999999999998          2.9478322045731961E-014
 -0.19799999999999998          3.1936252416469895E-014
 -0.19699999999999998          3.4686937702569649E-014
 -0.19600000000000001          3.7795609605365178E-014
 -0.19500000000000001          4.1294377449820991E-014
 -0.19400000000000001          4.5178917979774309E-014
 -0.19300000000000000          4.9416691577523404E-014
 -0.19200000000000000          5.3963977790462812E-014
 -0.19100000000000000          5.8786370140275062E-014
 -0.19000000000000000          6.3876292764279899E-014
 -0.18900000000000000          6.9262189028846122E-014
 -0.18800000000000000          7.5006603846799015E-014
 -0.18700000000000000          8.1194260841654704E-014
 -0.18600000000000000          8.7913800317277482E-014
 -0.18500000000000000          9.5239469793691859E-014
 -0.18400000000000000          1.0321836430276517E-013
 -0.18300000000000000          1.1186747193728757E-013
 -0.18200000000000000          1.2118115484596212E-013
 -0.18099999999999999          1.3114663977194423E-013
 -0.17999999999999999          1.4176229363571160E-013
 -0.17899999999999999          1.5305283624679692E-013
 -0.17799999999999999          1.6507632663153675E-013
 -0.17699999999999999          1.7792091042655417E-013
 -0.17599999999999999          1.9169222958103078E-013
 -0.17499999999999999          2.0649579051887650E-013
 -0.17399999999999999          2.2241973887671445E-013
 -0.17299999999999999          2.3952430208522618E-013
 -0.17199999999999999          2.5784051543159911E-013
 -0.17099999999999999          2.7737992566897024E-013
 -0.16999999999999998          2.9815101667933916E-013
 -0.16899999999999998          3.2017829143180415E-013
 -0.16799999999999998          3.4351717976243353E-013
 -0.16699999999999998          3.6825997438116008E-013
 -0.16599999999999998          3.9453162958836274E-013
 -0.16499999999999998          4.2247539559608123E-013
 -0.16399999999999998          4.5223368235967151E-013
 -0.16299999999999998          4.8392989919141670E-013
 -0.16199999999999998          5.1765660985179278E-013
 -0.16099999999999998          5.5347463808267605E-013
 -0.15999999999999998          5.9142182253988656E-013
 -0.15899999999999997          6.3153025560772958E-013
 -0.15799999999999997          6.7384552798755831E-013
 -0.15699999999999997          7.1844261225960014E-013
 -0.15599999999999997          7.6543301861729499E-013
 -0.15499999999999997          8.1496110857990952E-013
 -0.15399999999999997          8.6719086772603215E-013
 -0.15299999999999997          9.2228720320609783E-013
 -0.15200000000000000          9.8039816282675946E-013
 -0.15100000000000000          1.0416427919865559E-012
 -0.14999999999999999          1.1061089110614588E-012
 -0.14899999999999999          1.1738602711392098E-012
 -0.14799999999999999          1.2449530338923440E-012
 -0.14699999999999999          1.3194518177703415E-012
 -0.14599999999999999          1.3974452020906945E-012
 -0.14499999999999999          1.4790512564699864E-012
 -0.14399999999999999          1.5644141797971578E-012
 -0.14299999999999999          1.6536909645467847E-012
 -0.14199999999999999          1.7470349169060566E-012
 -0.14099999999999999          1.8445780926995821E-012
 -0.13999999999999999          1.9464213227294022E-012
 -0.13899999999999998          2.0526328033121668E-012
 -0.13799999999999998          2.1632563362156439E-012
 -0.13699999999999998          2.2783250980263116E-012
 -0.13599999999999998          2.3978796379054208E-012
 -0.13500000000000001          2.5219808880150652E-012
 -0.13400000000000001          2.6507116814012231E-012
 -0.13300000000000001          2.7841741499085422E-012
 -0.13200000000000001          2.9224760632329677E-012
 -0.13100000000000001          3.0657091448782917E-012
 -0.13000000000000000          3.2139367122513874E-012
 -0.12900000000000000          3.3671830514809186E-012
 -0.12800000000000000          3.5254286469277808E-012
 -0.12700000000000000          3.6886223242494324E-012
 -0.12600000000000000          3.8566944776663997E-012
 -0.12499999999999999          4.0295774529631197E-012
 -0.12399999999999999          4.2072144379457542E-012
 -0.12299999999999998          4.3895672686978316E-012
 -0.12199999999999998          4.5766086233246053E-012
 -0.12099999999999998          4.7683068431226395E-012
 -0.12000000000000000          4.9646120547919984E-012
 -0.11899999999999999          5.1654353537545397E-012
 -0.11799999999999999          5.3706414315791355E-012
 -0.11699999999999999          5.5800429381303821E-012
 -0.11599999999999999          5.7934139256755326E-012
 -0.11499999999999999          6.0104980888210107E-012
 -0.11399999999999999          6.2310308822367314E-012
 -0.11299999999999999          6.4547503626778216E-012
 -0.11199999999999999          6.6814002247507055E-012
 -0.11099999999999999          6.9107293672322357E-012
 -0.10999999999999999          7.1424745458349325E-012
 -0.10899999999999999          7.3763477964617847E-012
 -0.10799999999999998          7.6120177869288791E-012
 -0.10699999999999998          7.8491015770288946E-012
 -0.10599999999999998          8.0871672206163129E-012
 -0.10499999999999998          8.3257350666500265E-012
 -0.10399999999999998          8.5643003105985262E-012
 -0.10299999999999998          8.8023399333338049E-012
 -0.10199999999999998          9.0393343851748075E-012
 -0.10099999999999998          9.2747632490787411E-012
  -9.9999999999999978E-002     9.5081078427262886E-012
  -9.8999999999999977E-002     9.7388382080955390E-012
  -9.7999999999999976E-002     9.9663992336741798E-012
  -9.6999999999999975E-002     1.0190194174586475E-011
  -9.5999999999999974E-002     1.0409576846337623E-011
  -9.5000000000000001E-002     1.0623858563707661E-011
  -9.4000000000000000E-002     1.0832309875474942E-011
  -9.2999999999999999E-002     1.1034178779012628E-011
  -9.1999999999999998E-002     1.1228709802246932E-011
  -9.0999999999999998E-002     1.1415157014083183E-011
  -8.9999999999999997E-002     1.1592786626491046E-011
  -8.8999999999999996E-002     1.1760872657695820E-011
  -8.7999999999999995E-002     1.1918692595369765E-011
  -8.6999999999999994E-002     1.2065516988291230E-011
  -8.5999999999999993E-002     1.2200580823407310E-011
  -8.4999999999999992E-002     1.2323093934174697E-011
  -8.3999999999999991E-002     1.2432237531112732E-011
  -8.2999999999999990E-002     1.2527178079591206E-011
  -8.1999999999999990E-002     1.2607074238724271E-011
  -8.0999999999999989E-002     1.2671101147499099E-011
  -7.9999999999999988E-002     1.2718471241457600E-011
  -7.8999999999999987E-002     1.2748427313802505E-011
  -7.7999999999999986E-002     1.2760242515397383E-011
  -7.6999999999999985E-002     1.2753223824213581E-011
  -7.5999999999999984E-002     1.2726691228648516E-011
  -7.4999999999999983E-002     1.2679965584461341E-011
  -7.3999999999999982E-002     1.2612366880049477E-011
  -7.2999999999999982E-002     1.2523224644789455E-011
  -7.1999999999999981E-002     1.2411876214313454E-011
  -7.0999999999999980E-002     1.2277689281914480E-011
  -6.9999999999999979E-002     1.2120085317313294E-011
  -6.8999999999999978E-002     1.1938539566658416E-011
  -6.7999999999999977E-002     1.1732595797675660E-011
  -6.6999999999999976E-002     1.1501871503838575E-011
  -6.5999999999999975E-002     1.1246030148792823E-011
  -6.4999999999999974E-002     1.0964783768441388E-011
  -6.4000000000000001E-002     1.0657876491071567E-011
  -6.3000000000000000E-002     1.0325097547781027E-011
  -6.2000000000000000E-002     9.9662535169021977E-012
  -6.0999999999999999E-002     9.5812116920891668E-012
  -5.9999999999999998E-002     9.1698905413385616E-012
  -5.8999999999999997E-002     8.7322857278416939E-012
  -5.7999999999999996E-002     8.2684857224958383E-012
  -5.6999999999999995E-002     7.7786692018190206E-012
  -5.5999999999999994E-002     7.2630989764178504E-012
  -5.4999999999999993E-002     6.7221289298814278E-012
  -5.3999999999999992E-002     6.1561771305674624E-012
  -5.2999999999999992E-002     5.5657123874953369E-012
  -5.1999999999999991E-002     4.9512594545165359E-012
  -5.0999999999999990E-002     4.3134016323998543E-012
  -4.9999999999999989E-002     3.6527699268096809E-012
  -4.8999999999999988E-002     2.9700727554455158E-012
  -4.7999999999999987E-002     2.2661033206167511E-012
  -4.6999999999999986E-002     1.5417422113278783E-012
  -4.5999999999999985E-002     7.9796965476304206E-013
  -4.4999999999999984E-002     3.5848633225333290E-014
  -4.3999999999999984E-002    -7.4347553937968406E-013
  -4.2999999999999983E-002    -1.5387907961739387E-012
  -4.1999999999999982E-002    -2.3488372705160800E-012
  -4.0999999999999981E-002    -3.1723072519557646E-012
  -3.9999999999999980E-002    -4.0078535108734622E-012
  -3.8999999999999979E-002    -4.8540802453923136E-012
  -3.7999999999999978E-002    -5.7095435150590043E-012
  -3.6999999999999977E-002    -6.5727354114920415E-012
  -3.5999999999999976E-002    -7.4420825404987119E-012
  -3.4999999999999976E-002    -8.3159477567985654E-012
  -3.3999999999999975E-002    -9.1926405723642611E-012
  -3.2999999999999974E-002    -1.0070424528996345E-011
  -3.1999999999999973E-002    -1.0947538015004965E-011
  -3.1000000000000000E-002    -1.1822208142997671E-011
  -2.9999999999999999E-002    -1.2692653351964635E-011
  -2.8999999999999998E-002    -1.3557099887151673E-011
  -2.7999999999999997E-002    -1.4413767922272428E-011
  -2.6999999999999996E-002    -1.5260875896317078E-011
  -2.5999999999999995E-002    -1.6096624033679293E-011
  -2.4999999999999994E-002    -1.6919203885135365E-011
  -2.3999999999999994E-002    -1.7726797460482476E-011
  -2.2999999999999993E-002    -1.8517578095900417E-011
  -2.1999999999999992E-002    -1.9289743413697655E-011
  -2.0999999999999991E-002    -2.0041517057034781E-011
  -1.9999999999999990E-002    -2.0771172976053204E-011
  -1.8999999999999989E-002    -2.1477037162598604E-011
  -1.7999999999999988E-002    -2.2157498058561800E-011
  -1.6999999999999987E-002    -2.2811006555878745E-011
  -1.5999999999999986E-002    -2.3436063853466193E-011
  -1.4999999999999986E-002    -2.4031214518327799E-011
  -1.3999999999999985E-002    -2.4595060363341930E-011
  -1.2999999999999984E-002    -2.5126237895856463E-011
  -1.1999999999999983E-002    -2.5623454746881797E-011
  -1.0999999999999982E-002    -2.6085468854409135E-011
  -9.9999999999999811E-003    -2.6511145709285186E-011
  -8.9999999999999802E-003    -2.6899430599636557E-011
  -7.9999999999999793E-003    -2.7249379835892314E-011
  -6.9999999999999785E-003    -2.7560148607719661E-011
  -5.9999999999999776E-003    -2.7831015270152587E-011
  -4.9999999999999767E-003    -2.8061336240781507E-011
  -3.9999999999999758E-003    -2.8250573755328868E-011
  -2.9999999999999749E-003    -2.8398259438456154E-011
  -1.9999999999999740E-003    -2.8504020324616035E-011
  -9.9999999999997313E-004    -2.8567578858052349E-011
   0.0000000000000000         -2.8588749423353170E-011
   1.0000000000000009E-003    -2.8567457427409031E-011
   2.0000000000000018E-003    -2.8503749707753782E-011
   3.0000000000000027E-003    -2.8397778920053308E-011
   4.0000000000000036E-003    -2.8249831293681150E-011
   5.0000000000000044E-003    -2.8060290202525493E-011
   6.0000000000000053E-003    -2.7829651777500469E-011
   7.0000000000000062E-003    -2.7558498885694007E-011
   8.0000000000000071E-003    -2.7247492456750451E-011
   9.0000000000000080E-003    -2.6897378421764477E-011
   1.0000000000000009E-002    -2.6509006795239307E-011
   1.1000000000000010E-002    -2.6083286572276356E-011
   1.2000000000000011E-002    -2.5621237770279499E-011
   1.3000000000000012E-002    -2.5123975816443789E-011
   1.4000000000000012E-002    -2.4592695935244174E-011
   1.5000000000000013E-002    -2.4028695699840680E-011
   1.6000000000000014E-002    -2.3433336868161958E-011
   1.7000000000000015E-002    -2.2808057525969584E-011
   1.8000000000000016E-002    -2.2154351270176378E-011
   1.9000000000000017E-002    -2.1473758535229008E-011
   2.0000000000000018E-002    -2.0767854450043660E-011
   2.1000000000000019E-002    -2.0038252307452993E-011
   2.2000000000000020E-002    -1.9286596625312229E-011
   2.3000000000000020E-002    -1.8514571820116550E-011
   2.4000000000000021E-002    -1.7723921288959307E-011
   2.5000000000000022E-002    -1.6916410980339042E-011
   2.6000000000000023E-002    -1.6093851945564682E-011
   2.7000000000000024E-002    -1.5258076052626851E-011
   2.8000000000000025E-002    -1.4410916904239660E-011
   2.9000000000000026E-002    -1.3554214174649385E-011
   3.0000000000000027E-002    -1.2689788456144059E-011
   3.1000000000000028E-002    -1.1819438656968274E-011
   3.2000000000000028E-002    -1.0944940266599689E-011
   3.3000000000000029E-002    -1.0068060968260326E-011
   3.4000000000000030E-002    -9.1905328833409493E-012
   3.5000000000000031E-002    -8.3140829290618903E-012
   3.6000000000000032E-002    -7.4404180733235121E-012
   3.7000000000000033E-002    -6.5712136253227401E-012
   3.8000000000000034E-002    -5.7081119345104545E-012
   3.9000000000000035E-002    -4.8527128496123749E-012
   4.0000000000000036E-002    -4.0065537693090857E-012
   4.1000000000000036E-002    -3.1711185326938515E-012
   4.2000000000000037E-002    -2.3478228909635026E-012
   4.3000000000000038E-002    -1.5380188442271290E-012
   4.4000000000000039E-002    -7.4299274415227626E-013
   4.5000000000000040E-002     3.6031883721274099E-014
   4.6000000000000041E-002     7.9787961177261714E-013
   4.7000000000000042E-002     1.5414385262993651E-012
   4.8000000000000043E-002     2.2656603156090735E-012
   4.8999999999999988E-002     2.9695584099348887E-012
   4.9999999999999989E-002     3.6522273920425691E-012
   5.0999999999999990E-002     4.3128322094188649E-012
   5.1999999999999991E-002     4.9506297498947555E-012
   5.2999999999999992E-002     5.5649586501450250E-012
   5.3999999999999992E-002     6.1552330073156620E-012
   5.4999999999999993E-002     6.7209462821516798E-012
   5.5999999999999994E-002     7.2616608906562656E-012
   5.6999999999999995E-002     7.7770012651968689E-012
   5.7999999999999996E-002     8.2666564565904208E-012
   5.8999999999999997E-002     8.7303792667415954E-012
   5.9999999999999998E-002     9.1679884170471531E-012
   6.0999999999999999E-002     9.5793737525663694E-012
   6.2000000000000000E-002     9.9644997114679852E-012
   6.3000000000000000E-002     1.0323399253498046E-011
   6.4000000000000001E-002     1.0656183400959013E-011
   6.5000000000000002E-002     1.0963024758836748E-011
   6.6000000000000003E-002     1.1244157514800504E-011
   6.7000000000000004E-002     1.1499864428776870E-011
   6.8000000000000005E-002     1.1730475098226278E-011
   6.9000000000000006E-002     1.1936357284525637E-011
   7.0000000000000007E-002     1.2117922984500489E-011
   7.1000000000000008E-002     1.2275631899871972E-011
   7.2000000000000008E-002     1.2409978426830735E-011
   7.3000000000000009E-002     1.2521509003271714E-011
   7.4000000000000010E-002     1.2610807363644572E-011
   7.5000000000000011E-002     1.2678498875762402E-011
   7.6000000000000012E-002     1.2725248806078241E-011
   7.7000000000000013E-002     1.2751746707173787E-011
   7.8000000000000014E-002     1.2758701213588978E-011
   7.9000000000000015E-002     1.2746835705013296E-011
   8.0000000000000016E-002     1.2716891775732721E-011
   8.1000000000000016E-002     1.2669614489480187E-011
   8.2000000000000017E-002     1.2605756716244267E-011
   8.3000000000000018E-002     1.2526091275333506E-011
   8.4000000000000019E-002     1.2431396190226883E-011
   8.5000000000000020E-002     1.2322468566361608E-011
   8.6000000000000021E-002     1.2200102039727940E-011
   8.7000000000000022E-002     1.2065098052571781E-011
   8.8000000000000023E-002     1.1918263251309461E-011
   8.9000000000000024E-002     1.1760385200399070E-011
   9.0000000000000024E-002     1.1592247127490017E-011
   9.1000000000000025E-002     1.1414617515082154E-011
   9.2000000000000026E-002     1.1228242294270157E-011
   9.3000000000000027E-002     1.1033863059340000E-011
   9.4000000000000028E-002     1.0832206659428121E-011
   9.5000000000000029E-002     1.0623985198521408E-011
   9.6000000000000030E-002     1.0409902106989369E-011
   9.7000000000000031E-002     1.0190653008945871E-011
   9.8000000000000032E-002     9.9669066402909030E-012
   9.9000000000000032E-002     9.7393178591366466E-012
  0.10000000000000003          9.5085120332961912E-012
  0.10100000000000003          9.2750876423687488E-012
  0.10200000000000004          9.0396214819100817E-012
  0.10300000000000004          8.8026582550916466E-012
  0.10400000000000004          8.5647253178501405E-012
  0.10500000000000004          8.3263188010996927E-012
  0.10600000000000004          8.0879209579666248E-012
  0.10700000000000004          7.8499958269807606E-012
  0.10800000000000004          7.6129822931815222E-012
  0.10900000000000004          7.3772940881179301E-012
  0.11000000000000004          7.1433301981894581E-012
  0.11100000000000004          6.9114510121982420E-012
  0.11199999999999999          6.6819943675412276E-012
  0.11299999999999999          6.4552629734649727E-012
  0.11399999999999999          6.2315413246195376E-012
  0.11499999999999999          6.0110922316115335E-012
  0.11599999999999999          5.7941494484293468E-012
  0.11699999999999999          5.5809371880822482E-012
  0.11799999999999999          5.3716540764082370E-012
  0.11899999999999999          5.1664891982661956E-012
  0.12000000000000000          4.9656082197480781E-012
  0.12100000000000000          4.7691572913067372E-012
  0.12200000000000000          4.5772587109472276E-012
  0.12300000000000000          4.3900130926311576E-012
  0.12400000000000000          4.2075041367662423E-012
  0.12500000000000000          4.0298007986106517E-012
  0.12600000000000000          3.8569533851451892E-012
  0.12700000000000000          3.6889961571585054E-012
  0.12800000000000000          3.5259540513005673E-012
  0.12900000000000000          3.3678428969230933E-012
  0.13000000000000000          3.2146637782282562E-012
  0.13100000000000001          3.0664082384391104E-012
  0.13200000000000001          2.9230561113952474E-012
  0.13300000000000001          2.7845744373506239E-012
  0.13400000000000001          2.6509178966544298E-012
  0.13500000000000001          2.5220318455171724E-012
  0.13600000000000001          2.3978501476063292E-012
  0.13700000000000001          2.2783016792593859E-012
  0.13800000000000001          2.1633114136860062E-012
  0.13900000000000001          2.0528010714893365E-012
  0.14000000000000001          1.9466873859425301E-012
  0.14100000000000001          1.8448853555952645E-012
  0.14200000000000002          1.7473043411459192E-012
  0.14300000000000002          1.6538495833246193E-012
  0.14400000000000002          1.5644179745047615E-012
  0.14500000000000002          1.4789029376127904E-012
  0.14600000000000002          1.3971947513888503E-012
  0.14700000000000002          1.3191790325037442E-012
  0.14800000000000002          1.2447430239315336E-012
  0.14900000000000002          1.1737755949495387E-012
  0.15000000000000002          1.1061665906170348E-012
  0.15100000000000002          1.0418079159774255E-012
  0.15200000000000002          9.8059234343585161E-013
  0.15300000000000002          9.2241405486027864E-013
  0.15400000000000003          8.6716484687389240E-013
  0.15500000000000003          8.1473743767172576E-013
  0.15600000000000003          7.6502248546468336E-013
  0.15700000000000003          7.1791178687595114E-013
  0.15800000000000003          6.7329881904208250E-013
  0.15900000000000003          6.3107949855451873E-013
  0.16000000000000003          5.9115315724154466E-013
  0.16100000000000003          5.5342189164698464E-013
  0.16200000000000003          5.1779132197172400E-013
  0.16300000000000003          4.8416891156034112E-013
  0.16400000000000003          4.5246385848089014E-013
  0.16500000000000004          4.2258701420973862E-013
  0.16600000000000004          3.9445080231640395E-013
  0.16700000000000004          3.6797011293034608E-013
  0.16800000000000004          3.4306262800161898E-013
  0.16900000000000004          3.1965023076369508E-013
  0.17000000000000004          2.9765889731324799E-013
  0.17100000000000004          2.7701834424444627E-013
  0.17200000000000004          2.5766151365292175E-013
  0.17300000000000004          2.3952354314370544E-013
  0.17400000000000004          2.2254064097147371E-013
  0.17500000000000004          2.0664973367484226E-013
  0.17600000000000005          1.9178849318142031E-013
  0.17699999999999999          1.7789585180384260E-013
  0.17799999999999999          1.6491305933688759E-013
  0.17899999999999999          1.5278507896777447E-013
  0.17999999999999999          1.4146102095703222E-013
  0.18099999999999999          1.3089471184464009E-013
  0.18200000000000000          1.2104398971861554E-013
  0.18300000000000000          1.1186974198558620E-013
  0.18400000000000000          1.0333485504993515E-013
  0.18500000000000000          9.5402777745922462E-014
  0.18600000000000000          8.8036525226939237E-014
  0.18700000000000000          8.1199505669664077E-014
  0.18800000000000000          7.4855113698248453E-014
  0.18900000000000000          6.8968431226474740E-014
  0.19000000000000000          6.3506877979059762E-014
  0.19100000000000000          5.8441234707455035E-014
  0.19200000000000000          5.3745599144133510E-014
  0.19300000000000000          4.9396911664139135E-014
  0.19400000000000001          4.5374572426194692E-014
  0.19500000000000001          4.1658510137582043E-014
  0.19600000000000001          3.8228660281846622E-014
  0.19700000000000001          3.5064985447588188E-014
  0.19800000000000001          3.2146984049351392E-014
  0.19900000000000001          2.9454567853759155E-014
  0.20000000000000001          2.6969522264313720E-014
  0.20100000000000001          2.4675858687102714E-014
  0.20200000000000001          2.2560548061331471E-014
  0.20300000000000001          2.0612982146368575E-014
  0.20400000000000001          1.8823916424627699E-014
  0.20500000000000002          1.7184889036965766E-014
  0.20600000000000002          1.5686462342284469E-014
  0.20700000000000002          1.4318031488084187E-014
  0.20800000000000002          1.3067617734424848E-014
  0.20900000000000002          1.1922332627981031E-014
  0.21000000000000002          1.0869866238930288E-014
  0.21100000000000002          9.8996891007053031E-015
  0.21200000000000002          9.0037272952528455E-015
  0.21300000000000002          8.1770129743372702E-015
  0.21400000000000002          7.4169482879093485E-015
  0.21500000000000002          6.7222656511635117E-015
  0.21600000000000003          6.0917762533582902E-015
  0.21700000000000003          5.5230397925726442E-015
  0.21800000000000003          5.0115614884719688E-015
  0.21900000000000003          4.5509106669207086E-015
  0.22000000000000003          4.1335356056776194E-015
  0.22100000000000003          3.7519654741479175E-015
  0.22200000000000003          3.4002227608228298E-015
  0.22300000000000003          3.0744570656823745E-015
  0.22400000000000003          2.7734060978769057E-015
  0.22500000000000003          2.4976068762949824E-015
  0.22600000000000003          2.2484476879371541E-015
  0.22700000000000004          2.0267429549822054E-015
  0.22800000000000004          1.8315135073431104E-015
  0.22900000000000004          1.6594679867450764E-015
  0.23000000000000004          1.5058330448929698E-015
  0.23100000000000004          1.3650016413133228E-015
  0.23200000000000004          1.2320726316150853E-015
  0.23300000000000004          1.1041361399870837E-015
  0.23400000000000004          9.8107834637703033E-016
  0.23500000000000004          8.6534442314541174E-016
  0.23600000000000004          7.6109965481035049E-016
  0.23700000000000004          6.7243282822692068E-016
  0.23800000000000004          6.0190981795059221E-016
  0.23900000000000005          5.4923691530690475E-016
  0.23999999999999999          5.1099221306806953E-016
  0.24099999999999999          4.8118544129154493E-016
  0.24199999999999999          4.5289300560603391E-016
  0.24299999999999999          4.1989937824458411E-016
  0.24399999999999999          3.7857735236881590E-016
  0.24500000000000000          3.2892605447600222E-016
  0.24600000000000000          2.7425211590376632E-016
  0.24700000000000000          2.2035323894804736E-016
  0.24800000000000000          1.7368143238675885E-016
  0.24900000000000000          1.3950305739500546E-016
  0.25000000000000000          1.2015462788800882E-016
  0.25100000000000000          1.1458099227639664E-016
  0.25200000000000000          1.1851929843443429E-016
  0.25300000000000000          1.2597551771087699E-016
  0.25400000000000000          1.3084626156005527E-016
  0.25500000000000000          1.2865612552603246E-016
  0.25600000000000001          1.1773861198975483E-016
  0.25700000000000001          9.9472101636755769E-017
  0.25800000000000001          7.7427129507287420E-017
  0.25900000000000001          5.6140079812043446E-017
  0.26000000000000001          3.9570705847984549E-017
  0.26100000000000001          2.9784474295933386E-017
  0.26200000000000001          2.6461013141564870E-017
  0.26300000000000001          2.7266106377399735E-017
  0.26400000000000001          2.8808027287479039E-017
  0.26500000000000001          2.8034897964872307E-017
  0.26600000000000001          2.3440387772534799E-017
  0.26700000000000002          1.5539403406890806E-017
  0.26800000000000002          6.8136020972945329E-018
  0.26900000000000002          6.3951757829782993E-019
  0.27000000000000002         -8.8121335852926724E-021
  0.27100000000000002          6.1592679047731553E-018
  0.27200000000000002          1.8071906187733177E-017
  0.27300000000000002          3.2281110525411421E-017
  0.27400000000000002          4.3956874059437444E-017
  0.27500000000000002          4.8441681904576519E-017
  0.27600000000000002          4.2747069474017638E-017
  0.27700000000000002          2.6766305653323177E-017
  0.27800000000000002          3.5696259687582503E-018
  0.27900000000000003         -2.1321978223790991E-017
  0.28000000000000003         -4.1424857660800215E-017
  0.28100000000000003         -5.1165868903122985E-017
  0.28200000000000003         -4.7649898004797117E-017
  0.28300000000000003         -3.1493743770101241E-017
  0.28400000000000003         -6.8889152377083425E-018
  0.28500000000000003          1.9629847931913229E-017
  0.28600000000000003          4.1024065492959396E-017
  0.28700000000000003          5.1703810925245155E-017
  0.28800000000000003          4.9184539725487561E-017
  0.28900000000000003          3.4657229848362604E-017
  0.29000000000000004          1.2618800717539021E-017
  0.29100000000000004         -1.0535983923361425E-017
  0.29200000000000004         -2.8481049408783176E-017
  0.29300000000000004         -3.6756597699406486E-017
  0.29400000000000004         -3.4012187789247275E-017
  0.29500000000000004         -2.2183420657317953E-017
  0.29600000000000004         -5.7728434505846576E-018
  0.29700000000000004          9.7176127843313446E-018
  0.29800000000000004          1.9584816219364255E-017
  0.29900000000000004          2.1305740668364237E-017
  0.30000000000000004          1.5255855819077835E-017
  0.30100000000000005          4.3867708125331369E-018
  0.30200000000000005         -6.8839740743139668E-018
  0.30300000000000005         -1.4255149257619070E-017
  0.30400000000000005         -1.5041089953553603E-017