 -0.23999999999999999          0.0000000000000000     
 -0.23899999999999999          1.4608764006405650E-016
 -0.23799999999999999          4.1298184545282482E-016
 -0.23699999999999999          7.4285488276386395E-016
 -0.23599999999999999          1.0630041141893219E-015
 -0.23499999999999999          1.3077735542980129E-015
 -0.23399999999999999          1.4379973525209620E-015
 -0.23299999999999998          1.4520738754340293E-015
 -0.23199999999999998          1.3854404404514943E-015
 -0.23099999999999998          1.2988552502755016E-015
 -0.22999999999999998          1.2593639272965468E-015
 -0.22899999999999998          1.3200294857700874E-015
 -0.22799999999999998          1.5047756301374935E-015
 -0.22699999999999998          1.8029538857023579E-015
 -0.22599999999999998          2.1750734588813154E-015
 -0.22499999999999998          2.5675635391670303E-015
 -0.22399999999999998          2.9315943712161853E-015
 -0.22299999999999998          3.2397737565475217E-015
 -0.22199999999999998          3.4953348199207099E-015
 -0.22100000000000000          3.7309552454078737E-015
 -0.22000000000000000          3.9977651180788369E-015
 -0.21900000000000000          4.3483135149483099E-015
 -0.21800000000000000          4.8192346109850419E-015
 -0.21700000000000000          5.4194065820256797E-015
 -0.21600000000000000          6.1276180290050811E-015
 -0.21500000000000000          6.9005910740327068E-015
 -0.21400000000000000          7.6888069004626497E-015
 -0.21299999999999999          8.4549846236709294E-015
 -0.21199999999999999          9.1891224786163712E-015
 -0.21099999999999999          9.9150475021052352E-015
 -0.20999999999999999          1.0686158345198330E-014
 -0.20899999999999999          1.1571483110899202E-014
 -0.20799999999999999          1.2636356838561362E-014
 -0.20699999999999999          1.3923852000585644E-014
 -0.20599999999999999          1.5442920041158628E-014
 -0.20499999999999999          1.7167191130566396E-014
 -0.20399999999999999          1.9045005576388852E-014
 -0.20299999999999999          2.1017765639334940E-014
 -0.20199999999999999          2.3040961432092344E-014
 -0.20099999999999998          2.5101397875408731E-014
 -0.19999999999999998          2.7225238122958901E-014
 -0.19899999999999998          2.9474381648462300E-014
 -0.19799999999999998          3.1932217151510223E-014
 -0.19699999999999998          3.4683203981339294E-014
 -0.19600000000000001          3.7792594168074196E-014
 -0.19500000000000001          4.1292476707888715E-014
 -0.19400000000000001          4.5178480910775021E-014
 -0.19300000000000000          4.9418009560790973E-014
 -0.19200000000000000          5.3967233785113850E-014
 -0.19100000000000000          5.8791614968286404E-014
 -0.19000000000000000          6.3883401064775364E-014
 -0.18900000000000000          6.9270828764910401E-014
 -0.18800000000000000          7.5016246469873019E-014
 -0.18700000000000000          8.1204167739008466E-014
 -0.18600000000000000          8.7923097350909435E-014
 -0.18500000000000000          9.5247208286701104E-014
 -0.18400000000000000          1.0322362945956871E-013
 -0.18300000000000000          1.1186947093504680E-013
 -0.18200000000000000          1.2117933880732724E-013
 -0.18099999999999999          1.3114071731758142E-013
 -0.17999999999999999          1.4175219700298508E-013
 -0.17899999999999999          1.5303871451350540E-013
 -0.17799999999999999          1.6505831532295184E-013
 -0.17699999999999999          1.7789906375278452E-013
 -0.17599999999999999          1.9166634425416905E-013
 -0.17499999999999999          2.0646529733278221E-013
 -0.17399999999999999          2.2238371625954101E-013
 -0.17299999999999999          2.3948150320447529E-013
 -0.17199999999999999          2.5778953082444661E-013
 -0.17099999999999999          2.7731937297764616E-013
 -0.16999999999999998          2.9807970328145392E-013
 -0.16899999999999998          3.2009543128078270E-013
 -0.16799999999999998          3.4342244759762412E-013
 -0.16699999999999998          3.6815366835816019E-013
 -0.16599999999999998          3.9441423759815010E-013
 -0.16499999999999998          4.2234759526501369E-013
 -0.16399999999999998          4.5209604289388962E-013
 -0.16299999999999998          4.8378255611619217E-013
 -0.16199999999999998          5.1749912948625663E-013
 -0.16099999999999998          5.5330582780443874E-013
 -0.15999999999999998          5.9123967657492889E-013
 -0.15899999999999997          6.3133222608094641E-013
 -0.15799999999999997          6.7362841650254081E-013
 -0.15699999999999997          7.1820311199972233E-013
 -0.15599999999999997          7.6516787697603951E-013
 -0.15499999999999997          8.1466712716086764E-013
 -0.15399999999999997          8.6686517339344679E-013
 -0.15299999999999997          9.2192713966464650E-013
 -0.15200000000000000          9.8000134483166288E-013
 -0.15100000000000000          1.0412066174526004E-012
 -0.14999999999999999          1.1056304526427783E-012
 -0.14899999999999999          1.1733361678090701E-012
 -0.14799999999999999          1.2443787320016207E-012
 -0.14699999999999999          1.3188224384092585E-012
 -0.14599999999999999          1.3967547821473032E-012
 -0.14499999999999999          1.4782928570503831E-012
 -0.14399999999999999          1.5635803199063523E-012
 -0.14299999999999999          1.6527738379291355E-012
 -0.14199999999999999          1.7460263920452699E-012
 -0.14099999999999999          1.8434698212389300E-012
 -0.13999999999999999          1.9452052815728091E-012
 -0.13899999999999998          2.0513007525231214E-012
 -0.13799999999999998          2.1617998190172008E-012
 -0.13699999999999998          2.2767354408010913E-012
 -0.13599999999999998          2.3961466491530019E-012
 -0.13500000000000001          2.5200937257137233E-012
 -0.13400000000000001          2.6486575519653229E-012
 -0.13300000000000001          2.7819391755502759E-012
 -0.13200000000000001          2.9200439809197484E-012
 -0.13100000000000001          3.0630630410562286E-012
 -0.13000000000000000          3.2110583723239832E-012
 -0.12900000000000000          3.3640525261281999E-012
 -0.12800000000000000          3.5220255531489045E-012
 -0.12700000000000000          3.6849251948413836E-012
 -0.12600000000000000          3.8526811949048598E-012
 -0.12499999999999999          4.0252254654429018E-012
 -0.12399999999999999          4.2024985921764566E-012
 -0.12299999999999998          4.3844611101464457E-012
 -0.12199999999999998          4.5710830953729085E-012
 -0.12099999999999998          4.7623298533863262E-012
 -0.12000000000000000          4.9581497761632879E-012
 -0.11899999999999999          5.1584496223169596E-012
 -0.11799999999999999          5.3630923486927401E-012
 -0.11699999999999999          5.5718884367508780E-012
 -0.11599999999999999          5.7846093366734135E-012
 -0.11499999999999999          6.0009970083432949E-012
 -0.11399999999999999          6.2207851717069607E-012
 -0.11299999999999999          6.4437114498386677E-012
 -0.11199999999999999          6.6695169352596281E-012
 -0.11099999999999999          6.8979479246614793E-012
 -0.10999999999999999          7.1287385716715288E-012
 -0.10899999999999999          7.3615948406605968E-012
 -0.10799999999999998          7.5961823636786898E-012
 -0.10699999999999998          7.8321142973906663E-012
 -0.10599999999999998          8.0689500220336252E-012
 -0.10499999999999998          8.3062107539281984E-012
 -0.10399999999999998          8.5433830149254983E-012
 -0.10299999999999998          8.7799394490888249E-012
 -0.10199999999999998          9.0153596393753867E-012
 -0.10099999999999998          9.2491196992954403E-012
  -9.9999999999999978E-002     9.4806957423592375E-012
  -9.8999999999999977E-002     9.7095586779066070E-012
  -9.7999999999999976E-002     9.9351490576165462E-012
  -9.6999999999999975E-002     1.0156865799804629E-011
  -9.5999999999999974E-002     1.0374057515805627E-011
  -9.5000000000000001E-002     1.0586030316229148E-011
  -9.4000000000000000E-002     1.0792046943597901E-011
  -9.2999999999999999E-002     1.0991351058476364E-011
  -9.1999999999999998E-002     1.1183178515173365E-011
  -9.0999999999999998E-002     1.1366774708976856E-011
  -8.9999999999999997E-002     1.1541402382409545E-011
  -8.8999999999999996E-002     1.1706328614802836E-011
  -8.7999999999999995E-002     1.1860830026467242E-011
  -8.6999999999999994E-002     1.2004174564095902E-011
  -8.5999999999999993E-002     1.2135594612550698E-011
  -8.4999999999999992E-002     1.2254294801117893E-011
  -8.3999999999999991E-002     1.2359457207678566E-011
  -8.2999999999999990E-002     1.2450243960793817E-011
  -8.1999999999999990E-002     1.2525809382769109E-011
  -8.0999999999999989E-002     1.2585323408421187E-011
  -7.9999999999999988E-002     1.2627991534398052E-011
  -7.8999999999999987E-002     1.2653049615008539E-011
  -7.7999999999999986E-002     1.2659764729584046E-011
  -7.6999999999999985E-002     1.2647435182478541E-011
  -7.5999999999999984E-002     1.2615379227365964E-011
  -7.4999999999999983E-002     1.2562911648473306E-011
  -7.3999999999999982E-002     1.2489355036283196E-011
  -7.2999999999999982E-002     1.2394041522257384E-011
  -7.1999999999999981E-002     1.2276306707304571E-011
  -7.0999999999999980E-002     1.2135522621526451E-011
  -6.9999999999999979E-002     1.1971115071452481E-011
  -6.8999999999999978E-002     1.1782560170592910E-011
  -6.7999999999999977E-002     1.1569403421397036E-011
  -6.6999999999999976E-002     1.1331261449976667E-011
  -6.5999999999999975E-002     1.1067795985253986E-011
  -6.4999999999999974E-002     1.0778719063131983E-011
  -6.4000000000000001E-002     1.0463775679259689E-011
  -6.3000000000000000E-002     1.0122755932096509E-011
  -6.2000000000000000E-002     9.7554690020600873E-012
  -6.0999999999999999E-002     9.3617865196132014E-012
  -5.9999999999999998E-002     8.9416382284550737E-012
  -5.8999999999999997E-002     8.4950336695648221E-012
  -5.7999999999999996E-002     8.0220682527336269E-012
  -5.6999999999999995E-002     7.5229362669907960E-012
  -5.5999999999999994E-002     6.9979170028159607E-012
  -5.4999999999999993E-002     6.4473786552668988E-012
  -5.3999999999999992E-002     5.8717514357656518E-012
  -5.2999999999999992E-002     5.2715197658428869E-012
  -5.1999999999999991E-002     4.6472240118613709E-012
  -5.0999999999999990E-002     3.9994531124411963E-012
  -4.9999999999999989E-002     3.3288591067688984E-012
  -4.8999999999999988E-002     2.6361625556083090E-012
  -4.7999999999999987E-002     1.9221731411418414E-012
  -4.6999999999999986E-002     1.1877927027365692E-012
  -4.5999999999999985E-002     4.3402553686486516E-013
  -4.4999999999999984E-002    -3.3803783882313017E-013
  -4.3999999999999984E-002    -1.1272248325728194E-012
  -4.2999999999999983E-002    -1.9322926505389364E-012
  -4.1999999999999982E-002    -2.7519475413741089E-012
  -4.0999999999999981E-002    -3.5848529006400961E-012
  -3.9999999999999980E-002    -4.4296294063330624E-012
  -3.8999999999999979E-002    -5.2848506820748859E-012
  -3.7999999999999978E-002    -6.1490417792301165E-012
  -3.6999999999999977E-002    -7.0206661664799085E-012
  -3.5999999999999976E-002    -7.8981222603750663E-012
  -3.4999999999999976E-002    -8.7797416906125684E-012
  -3.3999999999999975E-002    -9.6638001420572924E-012
  -3.2999999999999974E-002    -1.0548528196763745E-011
  -3.1999999999999973E-002    -1.1432127813849075E-011
  -3.1000000000000000E-002    -1.2312785339919148E-011
  -2.9999999999999999E-002    -1.3188677580600712E-011
  -2.8999999999999998E-002    -1.4057991749861373E-011
  -2.7999999999999997E-002    -1.4918902918604399E-011
  -2.6999999999999996E-002    -1.5769590494541759E-011
  -2.5999999999999995E-002    -1.6608214803427172E-011
  -2.4999999999999994E-002    -1.7432926630035252E-011
  -2.3999999999999994E-002    -1.8241873289693655E-011
  -2.2999999999999993E-002    -1.9033193424112657E-011
  -2.1999999999999992E-002    -1.9805048226407720E-011
  -2.0999999999999991E-002    -2.0555630114716880E-011
  -1.9999999999999990E-002    -2.1283181814158971E-011
  -1.8999999999999989E-002    -2.1985991152663202E-011
  -1.7999999999999988E-002    -2.2662418816544778E-011
  -1.6999999999999987E-002    -2.3310875799099701E-011
  -1.5999999999999986E-002    -2.3929833808945638E-011
  -1.4999999999999986E-002    -2.4517807922787153E-011
  -1.3999999999999985E-002    -2.5073366993756562E-011
  -1.2999999999999984E-002    -2.5595124977796560E-011
  -1.1999999999999983E-002    -2.6081761750341932E-011
  -1.0999999999999982E-002    -2.6532012697978687E-011
  -9.9999999999999811E-003    -2.6944724229595304E-011
  -8.9999999999999802E-003    -2.7318827755530577E-011
  -7.9999999999999793E-003    -2.7653363973702293E-011
  -6.9999999999999785E-003    -2.7947479400160273E-011
  -5.9999999999999776E-003    -2.8200448920491556E-011
  -4.9999999999999767E-003    -2.8411622013392653E-011
  -3.9999999999999758E-003    -2.8580466118756437E-011
  -2.9999999999999749E-003    -2.8706509391797443E-011
  -1.9999999999999740E-003    -2.8789389275309190E-011
  -9.9999999999997313E-004    -2.8828829948259002E-011
   0.0000000000000000         -2.8824657938299278E-011
   1.0000000000000009E-003    -2.8776821203725738E-011
   2.0000000000000018E-003    -2.8685380459860045E-011
   3.0000000000000027E-003    -2.8550509179049794E-011
   4.0000000000000036E-003    -2.8372519611520660E-011
   5.0000000000000044E-003    -2.8151828090906878E-011
   6.0000000000000053E-003    -2.7888961973145147E-011
   7.0000000000000062E-003    -2.7584549228133769E-011
   8.0000000000000071E-003    -2.7239299357774421E-011
   9.0000000000000080E-003    -2.6854008600142573E-011
   1.0000000000000009E-002    -2.6429577276722256E-011
   1.1000000000000010E-002    -2.5966976832660019E-011
   1.2000000000000011E-002    -2.5467281061787494E-011
   1.3000000000000012E-002    -2.4931655698280538E-011
   1.4000000000000012E-002    -2.4361375763893986E-011
   1.5000000000000013E-002    -2.3757803016556491E-011
   1.6000000000000014E-002    -2.3122365133688771E-011
   1.7000000000000015E-002    -2.2456578263608840E-011
   1.8000000000000016E-002    -2.1762015800509399E-011
   1.9000000000000017E-002    -2.1040304915010925E-011
   2.0000000000000018E-002    -2.0293095329139064E-011
   2.1000000000000019E-002    -1.9522097480241130E-011
   2.2000000000000020E-002    -1.8729047826516579E-011
   2.3000000000000020E-002    -1.7915720990081335E-011
   2.4000000000000021E-002    -1.7083947104202554E-011
   2.5000000000000022E-002    -1.6235582322999527E-011
   2.6000000000000023E-002    -1.5372548720083640E-011
   2.7000000000000024E-002    -1.4496761430172371E-011
   2.8000000000000025E-002    -1.3610156404664909E-011
   2.9000000000000026E-002    -1.2714664390790019E-011
   3.0000000000000027E-002    -1.1812212666329508E-011
   3.1000000000000028E-002    -1.0904690345148719E-011
   3.2000000000000028E-002    -9.9939691938782265E-012
   3.3000000000000029E-002    -9.0819114381694941E-012
   3.4000000000000030E-002    -8.1703394050340368E-012
   3.5000000000000031E-002    -7.2610814930155309E-012
   3.6000000000000032E-002    -6.3559227325707590E-012
   3.7000000000000033E-002    -5.4566325416452167E-012
   3.8000000000000034E-002    -4.5649378374592396E-012
   3.9000000000000035E-002    -3.6825134955288834E-012
   4.0000000000000036E-002    -2.8109825665063577E-012
   4.1000000000000036E-002    -1.9519095541265606E-012
   4.2000000000000037E-002    -1.1067794901051451E-012
   4.3000000000000038E-002    -2.7700942668154971E-013
   4.4000000000000039E-002     5.3604522079829255E-013
   4.5000000000000040E-002     1.3311015701137883E-012
   4.6000000000000041E-002     2.1069339849190512E-012
   4.7000000000000042E-002     2.8623806883761541E-012
   4.8000000000000043E-002     3.5963502141580563E-012
   4.8999999999999988E-002     4.3078171238500203E-012
   4.9999999999999989E-002     4.9958409804876329E-012
   5.0999999999999990E-002     5.6595674327589748E-012
   5.1999999999999991E-002     6.2982279981641881E-012
   5.2999999999999992E-002     6.9111452671859048E-012
   5.3999999999999992E-002     7.4977229286292563E-012
   5.4999999999999993E-002     8.0574514074731759E-012
   5.5999999999999994E-002     8.5898961554869323E-012
   5.6999999999999995E-002     9.0946885439318772E-012
   5.7999999999999996E-002     9.5715345371788341E-012
   5.8999999999999997E-002     1.0020209488537664E-011
   5.9999999999999998E-002     1.0440559007619007E-011
   6.0999999999999999E-002     1.0832505899228178E-011
   6.2000000000000000E-002     1.1196051898088655E-011
   6.3000000000000000E-002     1.1531275066756859E-011
   6.4000000000000001E-002     1.1838336734516052E-011
   6.5000000000000002E-002     1.2117466752226805E-011
   6.6000000000000003E-002     1.2368959155518293E-011
   6.7000000000000004E-002     1.2593166093256139E-011
   6.8000000000000005E-002     1.2790489153925035E-011
   6.9000000000000006E-002     1.2961376763543518E-011
   7.0000000000000007E-002     1.3106319848855291E-011
   7.1000000000000008E-002     1.3225864847755285E-011
   7.2000000000000008E-002     1.3320593759969692E-011
   7.3000000000000009E-002     1.3391144096375934E-011
   7.4000000000000010E-002     1.3438195868576593E-011
   7.5000000000000011E-002     1.3462474190984624E-011
   7.6000000000000012E-002     1.3464740607205988E-011
   7.7000000000000013E-002     1.3445791355316152E-011
   7.8000000000000014E-002     1.3406438285901877E-011
   7.9000000000000015E-002     1.3347514933593368E-011
   8.0000000000000016E-002     1.3269873914979068E-011
   8.1000000000000016E-002     1.3174368714009158E-011
   8.2000000000000017E-002     1.3061864957698152E-011
   8.3000000000000018E-002     1.2933244752933580E-011
   8.4000000000000019E-002     1.2789394543411671E-011
   8.5000000000000020E-002     1.2631219854786880E-011
   8.6000000000000021E-002     1.2459625345351935E-011
   8.7000000000000022E-002     1.2275518275484767E-011
   8.8000000000000023E-002     1.2079811109733741E-011
   8.9000000000000024E-002     1.1873397230688985E-011
   9.0000000000000024E-002     1.1657166551493677E-011
   9.1000000000000025E-002     1.1431984699162329E-011
   9.2000000000000026E-002     1.1198698218751216E-011
   9.3000000000000027E-002     1.0958139777528807E-011
   9.4000000000000028E-002     1.0711127297614027E-011
   9.5000000000000029E-002     1.0458457884444087E-011
   9.6000000000000030E-002     1.0200917367753602E-011
   9.7000000000000031E-002     9.9392776994893855E-012
   9.8000000000000032E-002     9.6742856781078423E-012
   9.9000000000000032E-002     9.4066646832984578E-012
  0.10000000000000003          9.1371086044516195E-012
  0.10100000000000003          8.8662844427438422E-012
  0.10200000000000004          8.5948262396055954E-012
  0.10300000000000004          8.3233316072743547E-012
  0.10400000000000004          8.0523764739441412E-012
  0.10500000000000004          7.7825029407011992E-012
  0.10600000000000004          7.5142296898648474E-012
  0.10700000000000004          7.2480472144979158E-012
  0.10800000000000004          6.9844204204919671E-012
  0.10900000000000004          6.7237873255246862E-012
  0.11000000000000004          6.4665594927407477E-012
  0.11100000000000004          6.2131107550492248E-012
  0.11199999999999999          5.9637897918687894E-012
  0.11299999999999999          5.7189062513399027E-012
  0.11399999999999999          5.4787420260274109E-012
  0.11499999999999999          5.2435564570909734E-012
  0.11599999999999999          5.0135776606676802E-012
  0.11699999999999999          4.7890103341276975E-012
  0.11799999999999999          4.5700392255212160E-012
  0.11899999999999999          4.3568269651741085E-012
  0.12000000000000000          4.1495114636027160E-012
  0.12100000000000000          3.9482063451947149E-012
  0.12200000000000000          3.7530013818899862E-012
  0.12300000000000000          3.5639611921380106E-012
  0.12400000000000000          3.3811271924617768E-012
  0.12500000000000000          3.2045284394795076E-012
  0.12600000000000000          3.0341699205211964E-012
  0.12700000000000000          2.8700394925225109E-012
  0.12800000000000000          2.7121085325460983E-012
  0.12900000000000000          2.5603425629628732E-012
  0.13000000000000000          2.4146895420685559E-012
  0.13100000000000001          2.2750852850945360E-012
  0.13200000000000001          2.1414575841761256E-012
  0.13300000000000001          2.0137164505330080E-012
  0.13400000000000001          1.8917601860014045E-012
  0.13500000000000001          1.7754780935395045E-012
  0.13600000000000001          1.6647464656794267E-012
  0.13700000000000001          1.5594346560593874E-012
  0.13800000000000001          1.4594060552056529E-012
  0.13900000000000001          1.3645201505166692E-012
  0.14000000000000001          1.2746319841619750E-012
  0.14100000000000001          1.1895969235717605E-012
  0.14200000000000002          1.1092648067451369E-012
  0.14300000000000002          1.0334849295801283E-012
  0.14400000000000002          9.6210170906498315E-013
  0.14500000000000002          8.9495571327023763E-013
  0.14600000000000002          8.3188778131697066E-013
  0.14700000000000002          7.7273501182876630E-013
  0.14800000000000002          7.1733515395051209E-013
  0.14900000000000002          6.6552817944154908E-013
  0.15000000000000002          6.1715552373415144E-013
  0.15100000000000002          5.7206154960645880E-013
  0.15200000000000002          5.3009311350160747E-013
  0.15300000000000002          4.9110005341870832E-013
  0.15400000000000003          4.5493388787023934E-013
  0.15500000000000003          4.2144841219324098E-013
  0.15600000000000003          3.9049942749877255E-013
  0.15700000000000003          3.6194677355098605E-013
  0.15800000000000003          3.3565327167000765E-013
  0.15900000000000003          3.1148664919079421E-013
  0.16000000000000003          2.8931910578226396E-013
  0.16100000000000003          2.6902698818664487E-013
  0.16200000000000003          2.5049187442164732E-013
  0.16300000000000003          2.3359959799850843E-013
  0.16400000000000003          2.1823961095321624E-013
  0.16500000000000004          2.0430582410319301E-013
  0.16600000000000004          1.9169617336642638E-013
  0.16700000000000004          1.8031270107663227E-013
  0.16800000000000004          1.7006217939950408E-013
  0.16900000000000004          1.6085628651556572E-013
  0.17000000000000004          1.5261157951511728E-013
  0.17100000000000004          1.4524915558505607E-013
  0.17200000000000004          1.3869461135129531E-013
  0.17300000000000004          1.3287722972713462E-013
  0.17400000000000004          1.2772968175766266E-013
  0.17500000000000004          1.2318816214502860E-013
  0.17600000000000005          1.1919226727569790E-013
  0.17699999999999999          1.1568541534879396E-013
  0.17799999999999999          1.1261523939938569E-013
  0.17899999999999999          1.0993375670507706E-013
  0.17999999999999999          1.0759745687743350E-013
  0.18099999999999999          1.0556652259167046E-013
  0.18200000000000000          1.0380464662753686E-013
  0.18300000000000000          1.0227782569439812E-013
  0.18400000000000000          1.0095400128926653E-013
  0.18500000000000000          9.9802626015932323E-014
  0.18600000000000000          9.8794494178374173E-014
  0.18700000000000000          9.7902432959644162E-014
  0.18800000000000000          9.7101749655263933E-014
  0.18900000000000000          9.6371065153644786E-014
  0.19000000000000000          9.5692408803777762E-014
  0.19100000000000000          9.5051130323807164E-014
  0.19200000000000000          9.4435472896425101E-014
  0.19300000000000000          9.3835387322745335E-014
  0.19400000000000001          9.3241942487372031E-014
  0.19500000000000001          9.2646397010289511E-014
  0.19600000000000001          9.2039819776101938E-014
  0.19700000000000001          9.1412886646125937E-014
  0.19800000000000001          9.0757127290888965E-014
  0.19900000000000001          9.0065284332098935E-014
  0.20000000000000001          8.9332302677126645E-014
  0.20100000000000001          8.8555749647347582E-014
  0.20200000000000001          8.7735238995737796E-014
  0.20300000000000001          8.6872193737648664E-014
  0.20400000000000001          8.5968687409735075E-014
  0.20500000000000002          8.5026170132402743E-014
  0.20600000000000002          8.4045238216846508E-014
  0.20700000000000002          8.3024956538692614E-014
  0.20800000000000002          8.1963929187644000E-014
  0.20900000000000002          8.0860794134721455E-014
  0.21000000000000002          7.9715077041474542E-014
  0.21100000000000002          7.8528316119735461E-014
  0.21200000000000002          7.7304224761944977E-014
  0.21300000000000002          7.6048203650174782E-014
  0.21400000000000002          7.4766480170653102E-014
  0.21500000000000002          7.3464685398413284E-014
  0.21600000000000003          7.2147203575990292E-014
  0.21700000000000003          7.0816264094101336E-014
  0.21800000000000003          6.9472104121971622E-014
  0.21900000000000003          6.8113442945784901E-014
  0.22000000000000003          6.6739013404252095E-014
  0.22100000000000003          6.5348788392318891E-014
  0.22200000000000003          6.3944827894112998E-014
  0.22300000000000003          6.2531421284479325E-014
  0.22400000000000003          6.1114511346575809E-014
  0.22500000000000003          5.9700975987934153E-014
  0.22600000000000003          5.8296927398301733E-014
  0.22700000000000004          5.6906471993406863E-014
  0.22800000000000004          5.5531188642663199E-014
  0.22900000000000004          5.4170216760596350E-014
  0.23000000000000004          5.2821167714295053E-014
  0.23100000000000004          5.1481493628653960E-014
  0.23200000000000004          5.0149737607003800E-014
  0.23300000000000004          4.8826699248446788E-014
  0.23400000000000004          4.7515614218841422E-014
  0.23500000000000004          4.6221415638072524E-014
  0.23600000000000004          4.4949734581173428E-014
  0.23700000000000004          4.3705189071772577E-014
  0.23800000000000004          4.2490343925634251E-014
  0.23900000000000005          4.1304999242982898E-014
  0.23999999999999999          4.0146373367619741E-014
  0.24099999999999999          3.9010478468429094E-014
  0.24199999999999999          3.7893577436047683E-014
  0.24299999999999999          3.6793430715362963E-014
  0.24399999999999999          3.5710438105926043E-014
  0.24500000000000000          3.4647625209424510E-014
  0.24600000000000000          3.3609816725525923E-014
  0.24700000000000000          3.2602155838286012E-014
  0.24800000000000000          3.1628433867176685E-014
  0.24900000000000000          3.0689829882060529E-014
  0.25000000000000000          2.9784378766499912E-014
  0.25100000000000000          2.8907367629176305E-014
  0.25200000000000000          2.8052890956381449E-014
  0.25300000000000000          2.7215434563628727E-014
  0.25400000000000000          2.6391742456268890E-014
  0.25500000000000000          2.5581609652328700E-014
  0.25600000000000001          2.4788110881406691E-014
  0.25700000000000001          2.4016526546896047E-014
  0.25800000000000001          2.3272707952396403E-014
  0.25900000000000001          2.2561074915826531E-014
  0.26000000000000001          2.1883250352313367E-014
  0.26100000000000001          2.1237416529152106E-014
  0.26200000000000001          2.0618582728217524E-014
  0.26300000000000001          2.0020087882412418E-014
  0.26400000000000001          1.9435443719360815E-014
  0.26500000000000001          1.8860218562682679E-014
  0.26600000000000001          1.8293084264716720E-014
  0.26700000000000002          1.7736102503656550E-014
  0.26800000000000002          1.7193821846428929E-014
  0.26900000000000002          1.6671602317524080E-014
  0.27000000000000002          1.6173843406070043E-014
  0.27100000000000002          1.5702369621035201E-014
  0.27200000000000002          1.5255878225746681E-014
  0.27300000000000002          1.4830232311290093E-014
  0.27400000000000002          1.4419695770546627E-014
  0.27500000000000002          1.4018730702107134E-014
  0.27600000000000002          1.3623556797928022E-014
  0.27700000000000002          1.3233238086602572E-014
  0.27800000000000002          1.2849815070500720E-014
  0.27900000000000003          1.2477236617222567E-014
  0.28000000000000003          1.2120026729739396E-014
  0.28100000000000003          1.1781490530611395E-014
  0.28200000000000003          1.1462525874762654E-014
  0.28300000000000003          1.1161221008831218E-014
  0.28400000000000003          1.0873295875334612E-014
  0.28500000000000003          1.0593534445383646E-014
  0.28600000000000003          1.0317432197764818E-014
  0.28700000000000003          1.0042547983524142E-014
  0.28800000000000003          9.7694061160559702E-015
  0.28900000000000003          9.5011109711119871E-015
  0.29000000000000004          9.2422865015512543E-015
  0.29100000000000004          8.9974677217733730E-015
  0.29200000000000004          8.7693676783083970E-015
  0.29300000000000004          8.5578135764350897E-015
  0.29400000000000004          8.3595951612833525E-015
  0.29500000000000004          8.1693176800121276E-015
  0.29600000000000004          7.9810205617715832E-015
  0.29700000000000004          7.7899578809582535E-015
  0.29800000000000004          7.5941984024523987E-015
  0.29900000000000004          7.3951363424852009E-015
  0.30000000000000004          7.1971474732621744E-015
  0.30100000000000005          7.0061483199198904E-015
  0.30200000000000005          6.8277559814480665E-015
  0.30300000000000005          6.6653916239206621E-015
  0.30400000000000005          6.5191098809627759E-015