 -0.23999999999999999          0.0000000000000000     
 -0.23899999999999999          0.0000000000000000     
 -0.23799999999999999          0.0000000000000000     
 -0.23699999999999999          0.0000000000000000     
 -0.23599999999999999          0.0000000000000000     
 -0.23499999999999999          0.0000000000000000     
 -0.23399999999999999          0.0000000000000000     
 -0.23299999999999998          0.0000000000000000     
 -0.23199999999999998          0.0000000000000000     
 -0.23099999999999998          0.0000000000000000     
 -0.22999999999999998          0.0000000000000000     
 -0.22899999999999998          0.0000000000000000     
 -0.22799999999999998          0.0000000000000000     
 -0.22699999999999998          0.0000000000000000     
 -0.22599999999999998          0.0000000000000000     
 -0.22499999999999998          0.0000000000000000     
 -0.22399999999999998          0.0000000000000000     
 -0.22299999999999998          0.0000000000000000     
 -0.22199999999999998          0.0000000000000000     
 -0.22100000000000000          0.0000000000000000     
 -0.22000000000000000          0.0000000000000000     
 -0.21900000000000000          0.0000000000000000     
 -0.21800000000000000          0.0000000000000000     
 -0.21700000000000000          0.0000000000000000     
 -0.21600000000000000          0.0000000000000000     
 -0.21500000000000000          0.0000000000000000     
 -0.21400000000000000          0.0000000000000000     
 -0.21299999999999999          0.0000000000000000     
 -0.21199999999999999          0.0000000000000000     
 -0.21099999999999999          0.0000000000000000     
 -0.20999999999999999          0.0000000000000000     
 -0.20899999999999999          0.0000000000000000     
 -0.20799999999999999          0.0000000000000000     
 -0.20699999999999999          0.0000000000000000     
 -0.20599999999999999          0.0000000000000000     
 -0.20499999999999999          0.0000000000000000     
 -0.20399999999999999          0.0000000000000000     
 -0.20299999999999999          0.0000000000000000     
 -0.20199999999999999          0.0000000000000000     
 -0.20099999999999998          0.0000000000000000     
 -0.19999999999999998          0.0000000000000000     
 -0.19899999999999998          0.0000000000000000     
 -0.19799999999999998          0.0000000000000000     
 -0.19699999999999998          0.0000000000000000     
 -0.19600000000000001          0.0000000000000000     
 -0.19500000000000001          0.0000000000000000     
 -0.19400000000000001          0.0000000000000000     
 -0.19300000000000000          0.0000000000000000     
 -0.19200000000000000          0.0000000000000000     
 -0.19100000000000000          0.0000000000000000     
 -0.19000000000000000          0.0000000000000000     
 -0.18900000000000000          0.0000000000000000     
 -0.18800000000000000          0.0000000000000000     
 -0.18700000000000000          0.0000000000000000     
 -0.18600000000000000          0.0000000000000000     
 -0.18500000000000000          0.0000000000000000     
 -0.18400000000000000          0.0000000000000000     
 -0.18300000000000000          0.0000000000000000     
 -0.18200000000000000          0.0000000000000000     
 -0.18099999999999999          0.0000000000000000     
 -0.17999999999999999          0.0000000000000000     
 -0.17899999999999999          0.0000000000000000     
 -0.17799999999999999          0.0000000000000000     
 -0.17699999999999999          0.0000000000000000     
 -0.17599999999999999          0.0000000000000000     
 -0.17499999999999999          0.0000000000000000     
 -0.17399999999999999          0.0000000000000000     
 -0.17299999999999999          0.0000000000000000     
 -0.17199999999999999          0.0000000000000000     
 -0.17099999999999999          0.0000000000000000     
 -0.16999999999999998          0.0000000000000000     
 -0.16899999999999998          0.0000000000000000     
 -0.16799999999999998          0.0000000000000000     
 -0.16699999999999998          0.0000000000000000     
 -0.16599999999999998          0.0000000000000000     
 -0.16499999999999998          0.0000000000000000     
 -0.16399999999999998          0.0000000000000000     
 -0.16299999999999998          0.0000000000000000     
 -0.16199999999999998          0.0000000000000000     
 -0.16099999999999998          0.0000000000000000     
 -0.15999999999999998          0.0000000000000000     
 -0.15899999999999997          0.0000000000000000     
 -0.15799999999999997          0.0000000000000000     
 -0.15699999999999997          0.0000000000000000     
 -0.15599999999999997          0.0000000000000000     
 -0.15499999999999997          0.0000000000000000     
 -0.15399999999999997          0.0000000000000000     
 -0.15299999999999997          0.0000000000000000     
 -0.15200000000000000          0.0000000000000000     
 -0.15100000000000000          0.0000000000000000     
 -0.14999999999999999          0.0000000000000000     
 -0.14899999999999999          0.0000000000000000     
 -0.14799999999999999          0.0000000000000000     
 -0.14699999999999999          0.0000000000000000     
 -0.14599999999999999          0.0000000000000000     
 -0.14499999999999999          0.0000000000000000     
 -0.14399999999999999          0.0000000000000000     
 -0.14299999999999999          0.0000000000000000     
 -0.14199999999999999          0.0000000000000000     
 -0.14099999999999999          0.0000000000000000     
 -0.13999999999999999          0.0000000000000000     
 -0.13899999999999998          0.0000000000000000     
 -0.13799999999999998          0.0000000000000000     
 -0.13699999999999998          0.0000000000000000     
 -0.13599999999999998          0.0000000000000000     
 -0.13500000000000001          0.0000000000000000     
 -0.13400000000000001          0.0000000000000000     
 -0.13300000000000001          0.0000000000000000     
 -0.13200000000000001          0.0000000000000000     
 -0.13100000000000001          0.0000000000000000     
 -0.13000000000000000          0.0000000000000000     
 -0.12900000000000000          0.0000000000000000     
 -0.12800000000000000          0.0000000000000000     
 -0.12700000000000000          0.0000000000000000     
 -0.12600000000000000          0.0000000000000000     
 -0.12499999999999999          0.0000000000000000     
 -0.12399999999999999          0.0000000000000000     
 -0.12299999999999998          0.0000000000000000     
 -0.12199999999999998          0.0000000000000000     
 -0.12099999999999998          0.0000000000000000     
 -0.12000000000000000          0.0000000000000000     
 -0.11899999999999999          0.0000000000000000     
 -0.11799999999999999          0.0000000000000000     
 -0.11699999999999999          0.0000000000000000     
 -0.11599999999999999          0.0000000000000000     
 -0.11499999999999999          0.0000000000000000     
 -0.11399999999999999          0.0000000000000000     
 -0.11299999999999999          0.0000000000000000     
 -0.11199999999999999          0.0000000000000000     
 -0.11099999999999999          0.0000000000000000     
 -0.10999999999999999          0.0000000000000000     
 -0.10899999999999999          0.0000000000000000     
 -0.10799999999999998          0.0000000000000000     
 -0.10699999999999998          0.0000000000000000     
 -0.10599999999999998          0.0000000000000000     
 -0.10499999999999998          0.0000000000000000     
 -0.10399999999999998          0.0000000000000000     
 -0.10299999999999998          0.0000000000000000     
 -0.10199999999999998          0.0000000000000000     
 -0.10099999999999998          0.0000000000000000     
  -9.9999999999999978E-002     0.0000000000000000     
  -9.8999999999999977E-002     0.0000000000000000     
  -9.7999999999999976E-002     0.0000000000000000     
  -9.6999999999999975E-002     0.0000000000000000     
  -9.5999999999999974E-002     0.0000000000000000     
  -9.5000000000000001E-002     0.0000000000000000     
  -9.4000000000000000E-002     0.0000000000000000     
  -9.2999999999999999E-002     0.0000000000000000     
  -9.1999999999999998E-002     0.0000000000000000     
  -9.0999999999999998E-002     0.0000000000000000     
  -8.9999999999999997E-002     0.0000000000000000     
  -8.8999999999999996E-002     0.0000000000000000     
  -8.7999999999999995E-002     0.0000000000000000     
  -8.6999999999999994E-002     0.0000000000000000     
  -8.5999999999999993E-002     0.0000000000000000     
  -8.4999999999999992E-002     0.0000000000000000     
  -8.3999999999999991E-002     0.0000000000000000     
  -8.2999999999999990E-002     0.0000000000000000     
  -8.1999999999999990E-002     0.0000000000000000     
  -8.0999999999999989E-002     0.0000000000000000     
  -7.9999999999999988E-002     0.0000000000000000     
  -7.8999999999999987E-002     0.0000000000000000     
  -7.7999999999999986E-002     0.0000000000000000     
  -7.6999999999999985E-002     0.0000000000000000     
  -7.5999999999999984E-002     0.0000000000000000     
  -7.4999999999999983E-002     0.0000000000000000     
  -7.3999999999999982E-002     0.0000000000000000     
  -7.2999999999999982E-002     0.0000000000000000     
  -7.1999999999999981E-002    -1.4012984643248171E-045
  -7.0999999999999980E-002    -1.4012984643248171E-045
  -6.9999999999999979E-002    -1.4012984643248171E-045
  -6.8999999999999978E-002     0.0000000000000000     
  -6.7999999999999977E-002     0.0000000000000000     
  -6.6999999999999976E-002     2.8025969286496341E-045
  -6.5999999999999975E-002     4.2038953929744512E-045
  -6.4999999999999974E-002     5.6051938572992683E-045
  -6.4000000000000001E-002     7.0064923216240854E-045
  -6.3000000000000000E-002     5.6051938572992683E-045
  -6.2000000000000000E-002     2.8025969286496341E-045
  -6.0999999999999999E-002    -1.4012984643248171E-045
  -5.9999999999999998E-002    -9.8090892502737195E-045
  -5.8999999999999997E-002    -1.9618178500547439E-044
  -5.7999999999999996E-002    -3.0828566215145976E-044
  -5.6999999999999995E-002    -3.7835058536770061E-044
  -5.5999999999999994E-002    -3.9236357001094878E-044
  -5.4999999999999993E-002    -3.0828566215145976E-044
  -5.3999999999999992E-002    -8.4077907859489024E-045
  -5.2999999999999992E-002     3.0828566215145976E-044
  -5.1999999999999991E-002     8.2676609395164207E-044
  -5.0999999999999990E-002     1.4293244336113134E-043
  -4.9999999999999989E-002     2.0038568039844884E-043
  -4.8999999999999988E-002     2.3401684354224445E-043
  -4.7999999999999987E-002     2.2560905275629555E-043
  -4.6999999999999986E-002     1.4993893568275543E-043
  -4.5999999999999985E-002    -8.4077907859489024E-045
  -4.4999999999999984E-002    -2.5643761897144152E-043
  -4.3999999999999984E-002    -5.7453237037317500E-043
  -4.2999999999999983E-002    -9.2065309106140482E-043
  -4.1999999999999982E-002    -1.2163270670339412E-042
  -4.0999999999999981E-002    -1.3578582119307477E-042
  -3.9999999999999980E-002    -1.2233335593555653E-042
  -3.8999999999999979E-002    -6.9784663523375890E-043
  -3.7999999999999978E-002     2.9287137904388677E-043
  -3.6999999999999977E-002     1.7460178865487221E-042
  -3.5999999999999976E-002     3.5354760254915135E-042
  -3.4999999999999976E-002     5.3893938937932465E-042
  -3.3999999999999975E-002     6.8705663705845781E-042
  -3.2999999999999974E-002     7.4170727716712568E-042
  -3.1999999999999973E-002     6.4067365788930636E-042
  -3.1000000000000000E-002     3.2860448988416960E-042
  -2.9999999999999999E-002    -2.2560905275629555E-042
  -2.8999999999999998E-002    -1.0100559330853281E-041
  -2.7999999999999997E-002    -1.9508877220330103E-041
  -2.6999999999999996E-002    -2.8994266525344790E-041
  -2.5999999999999995E-002    -3.6324458792227908E-041
  -2.4999999999999994E-002    -3.8685646704615225E-041
  -2.3999999999999994E-002    -3.3073446354994333E-041
  -2.2999999999999993E-002    -1.6899659479757294E-041
  -2.1999999999999992E-002     1.1192170834562314E-041
  -2.0999999999999991E-002     5.0443942118764765E-041
  -1.9999999999999990E-002     9.7157627725496867E-041
  -1.8999999999999989E-002     1.4418520418823773E-040
  -1.7999999999999988E-002     1.8094826939979930E-040
  -1.6999999999999987E-002     1.9426480870627804E-040
  -1.5999999999999986E-002     1.7012464006135442E-040
  -1.4999999999999986E-002     9.6440162911762560E-041
  -1.3999999999999985E-002    -3.3381732017145792E-041
  -1.2999999999999984E-002    -2.1651742831975614E-040
  -1.1999999999999983E-002    -4.3712945075226939E-040
  -1.0999999999999982E-002    -6.6404171108038701E-040
  -9.9999999999999811E-003    -8.5073110028852509E-040
  -8.9999999999999802E-003    -9.3863595425408519E-040
  -7.9999999999999793E-003    -8.6449185120819480E-040
  -6.9999999999999785E-003    -5.7180264096467026E-040
  -5.9999999999999776E-003    -2.5788095638969609E-041
  -4.9999999999999767E-003     7.6989579707548370E-040
  -3.9999999999999758E-003     1.7575085339561856E-039
  -2.9999999999999749E-003     2.8142725474543885E-039
  -1.9999999999999740E-003     3.7504001774573323E-039
  -9.9999999999997313E-004     4.3201611265594813E-039
   0.0000000000000000          4.2489821710641022E-039
   1.0000000000000009E-003     3.2776567262342477E-039
   2.0000000000000018E-003     1.2213353077454381E-039
   3.0000000000000027E-003    -1.9625170979884420E-039
   4.0000000000000036E-003    -6.1073729840639600E-039
   5.0000000000000044E-003    -1.0785895173397548E-038
   6.0000000000000053E-003    -1.5289423210506254E-038
   7.0000000000000062E-003    -1.8654847463456558E-038
   8.0000000000000071E-003    -1.9751926833773385E-038
   9.0000000000000080E-003    -1.7437790319922703E-038
   1.0000000000000009E-002    -1.0773741711816459E-038
   1.1000000000000010E-002     7.1266536649399384E-040
   1.2000000000000011E-002     1.6754169666698770E-038
   1.3000000000000012E-002     3.6106612932963972E-038
   1.4000000000000012E-002     5.6406029879345992E-038
   1.5000000000000013E-002     7.4183154431494200E-038
   1.6000000000000014E-002     8.5091382960827305E-038
   1.7000000000000015E-002     8.4384265334953573E-038
   1.8000000000000016E-002     6.7646663219998516E-038
   1.9000000000000017E-002     3.1739696081843829E-038
   2.0000000000000018E-002    -2.4139896793021545E-038
   2.1000000000000019E-002    -9.7432932426991978E-038
   2.2000000000000020E-002    -1.8142876903802243E-037
   2.3000000000000020E-002    -2.6493816450534101E-037
   2.4000000000000021E-002    -3.3265610337042895E-037
   2.5000000000000022E-002    -3.6639990848998084E-037
   2.6000000000000023E-002    -3.4730877515744754E-037
   2.7000000000000024E-002    -2.5896248975484969E-037
   2.8000000000000025E-002    -9.1184699519995623E-038
   2.9000000000000026E-002     1.5588989152833606E-037
   3.0000000000000027E-002     4.6812915474626642E-037
   3.1000000000000028E-002     8.1484191843047962E-037
   3.2000000000000028E-002     1.1482269212101118E-036
   3.3000000000000029E-002     1.4055848681713710E-036
   3.4000000000000030E-002     1.5148817539167226E-036
   3.5000000000000031E-002     1.4038596343436451E-036
   3.6000000000000032E-002     1.0123311036927813E-036
   3.7000000000000033E-002     3.0664766756092891E-037
   3.8000000000000034E-002    -7.0539445475734552E-037
   3.9000000000000035E-002    -1.9615531055384759E-036
   4.0000000000000036E-002    -3.3369539599467395E-036
   4.1000000000000036E-002    -4.6435675166058196E-036
   4.2000000000000037E-002    -5.6400906283744912E-036
   4.3000000000000038E-002    -6.0539745554734005E-036
   4.4000000000000039E-002    -5.6158772671081790E-036
   4.5000000000000040E-002    -4.1049831826261917E-036
   4.6000000000000041E-002    -1.4013051008743441E-036
   4.7000000000000042E-002     2.4614820496499303E-036
   4.8000000000000043E-002     7.2508974278874905E-036
   4.8999999999999988E-002     1.2508182552499601E-035
   4.9999999999999989E-002     1.7547999787279962E-035
   5.0999999999999990E-002     2.1494914350735873E-035
   5.1999999999999991E-002     2.3361096293514275E-035
   5.2999999999999992E-002     2.2166810104290658E-035
   5.3999999999999992E-002     1.7097255387910639E-035
   5.4999999999999993E-002     7.6824776246171565E-036
   5.5999999999999994E-002    -6.0207724362882180E-036
   5.6999999999999995E-002    -2.3273166675802253E-035
   5.7999999999999996E-002    -4.2554700641238163E-035
   5.8999999999999997E-002    -6.1557511005975315E-035
   5.9999999999999998E-002    -7.7295687146525332E-035
   6.0999999999999999E-002    -8.6353944446972404E-035
   6.2000000000000000E-002    -8.5273379300584930E-035
   6.3000000000000000E-002    -7.1059614999072468E-035
   6.4000000000000001E-002    -4.1770807195329825E-035
   6.5000000000000002E-002     2.8802834805821745E-036
   6.6000000000000003E-002     6.0994777523830204E-035
   6.7000000000000004E-002     1.2812424654707336E-034
   6.8000000000000005E-002     1.9718013155406717E-034
   6.9000000000000006E-002     2.5869932993898907E-034
   7.0000000000000007E-002     3.0153333389249549E-034
   7.1000000000000008E-002     3.1397132686226746E-034
   7.2000000000000008E-002     2.8525813246900609E-034
   7.3000000000000009E-002     2.0739621061204462E-034
   7.4000000000000010E-002     7.7049768906969761E-035
   7.5000000000000011E-002    -1.0268037285816243E-034
   7.6000000000000012E-002    -3.2091225366188844E-034
   7.7000000000000013E-002    -5.5835164328142851E-034
   7.8000000000000014E-002    -7.8765459161236287E-034
   7.9000000000000015E-002    -9.7499937111664957E-034
   8.0000000000000016E-002    -1.0829509866599105E-033
   8.1000000000000016E-002    -1.0745776097912172E-033
   8.2000000000000017E-002    -9.1856278530771765E-034
   8.3000000000000018E-002    -5.9489767081299727E-034
   8.4000000000000019E-002    -1.0052732408904939E-034
   8.5000000000000020E-002     5.4578625151961136E-034
   8.6000000000000021E-002     1.3002655456513884E-033
   8.7000000000000022E-002     2.0933414621084459E-033
   8.8000000000000023E-002     2.8320559076277575E-033
   8.9000000000000024E-002     3.4060720233243508E-033
   9.0000000000000024E-002     3.6974223389374857E-033
   9.1000000000000025E-002     3.5935964330591225E-033
   9.2000000000000026E-002     3.0031845588914585E-033
   9.3000000000000027E-002     1.8726965806842947E-033
   9.4000000000000028E-002     2.0267439674158535E-034
   9.5000000000000029E-002    -1.9389358710241229E-033
   9.6000000000000030E-002    -4.4085666664842144E-033
   9.7000000000000031E-002    -6.9860569664849204E-033
   9.8000000000000032E-002    -9.3827209704986340E-033
   9.9000000000000032E-002    -1.1259716554429077E-032
  0.10000000000000003         -1.2256618048530934E-032
  0.10100000000000003         -1.2029386174309355E-032
  0.10200000000000004         -1.0295117645087816E-032
  0.10300000000000004         -6.8801096606453077E-033
  0.10400000000000004         -1.7662706282387064E-033
  0.10500000000000004          4.8697678342675080E-033
  0.10600000000000004          1.2631033570418972E-032
  0.10700000000000004          2.0894159354580734E-032
  0.10800000000000004          2.8827071143181253E-032
  0.10900000000000004          3.5435080310234094E-032
  0.11000000000000004          3.9635300888610628E-032
  0.11100000000000004          4.0357674493285571E-032
  0.11199999999999999          3.6667680176619328E-032
  0.11299999999999999          2.7901525094910185E-032
  0.11399999999999999          1.3802363732503471E-032
  0.11499999999999999         -5.3581166767410576E-033
  0.11599999999999999         -2.8686817034712891E-032
  0.11699999999999999         -5.4624041110889124E-032
  0.11799999999999999         -8.0959064230327127E-032
  0.11899999999999999         -1.0491807825086330E-031
  0.12000000000000000         -1.2333191513785024E-031
  0.12100000000000000         -1.3288218372627539E-031
  0.12200000000000000         -1.3041788912415505E-031
  0.12300000000000000         -1.1332493172930011E-031
  0.12400000000000000         -7.9920973414172457E-032
  0.12500000000000000         -2.9842448469742159E-032
  0.12600000000000000          3.5619747534012399E-032
  0.12700000000000000          1.1327513778859927E-031
  0.12800000000000000          1.9793303017563907E-031
  0.12900000000000000          2.8247547726248462E-031
  0.13000000000000000          3.5814390590598956E-031
  0.13100000000000001          4.1505365463975034E-031
  0.13200000000000001          4.4293031509040476E-031
  0.13300000000000001          4.3205280758540967E-031
  0.13400000000000001          3.7434715513659414E-031
  0.13500000000000001          2.6456237745906096E-031
  0.13600000000000001          1.0143120935801915E-031
  0.13700000000000001         -1.1130194121636547E-031
  0.13800000000000001         -3.6410789404432152E-031
  0.13900000000000001         -6.4129277686228623E-031
  0.14000000000000001         -9.2113411234390020E-031
  0.14100000000000001         -1.1766098479414438E-030
  0.14200000000000002         -1.3768253119881875E-030
  0.14300000000000002         -1.4891088144973766E-030
  0.14400000000000002         -1.4817508781380656E-030
  0.14500000000000002         -1.3272772847055474E-030
  0.14600000000000002         -1.0060349911681985E-030
  0.14700000000000002         -5.0984768199966512E-031
  0.14800000000000002          1.5459344683652796E-031
  0.14900000000000002          9.6298631917102886E-031
  0.15000000000000002          1.8717056124979286E-030
  0.15100000000000002          2.8175373313503454E-030
  0.15200000000000002          3.7191667010299215E-030
  0.15300000000000002          4.4806741348259429E-030
  0.15400000000000003          4.9972029035377156E-030
  0.15500000000000003          5.1626963333312264E-030
  0.15600000000000003          4.8795139137661572E-030
  0.15700000000000003          4.0693372522641705E-030
  0.15800000000000003          2.6848108536057799E-030
  0.15900000000000003          7.2087755301465176E-031
  0.16000000000000003         -1.7751898150524774E-030
  0.16100000000000003         -4.6963335257724340E-030
  0.16200000000000003         -7.8720302560443128E-030
  0.16300000000000003         -1.1069540399885531E-029
  0.16400000000000003         -1.4001036736372953E-029
  0.16500000000000004         -1.6337269504451430E-029
  0.16600000000000004         -1.7727965461700224E-029
  0.16700000000000004         -1.7828557685475231E-029
  0.16800000000000004         -1.6332397503545238E-029
  0.16900000000000004         -1.3006418804616777E-029
  0.17000000000000004         -7.7283107432099534E-030
  0.17100000000000004         -5.2197328238658928E-031
  0.17200000000000004          8.4122528531285479E-030
  0.17300000000000004          1.8676004476824841E-029
  0.17400000000000004          2.9664018607068414E-029
  0.17500000000000004          4.0571525856371062E-029
  0.17600000000000005          5.0419970247786246E-029
  0.17699999999999999          5.8103988363857216E-029
  0.17799999999999999          6.2458389578964156E-029
  0.17899999999999999          6.2346143974392837E-029
  0.17999999999999999          5.6761735563240836E-029
  0.18099999999999999          4.4946372021543888E-029
  0.18200000000000000          2.6506781463923656E-029
  0.18300000000000000          1.5289324942331783E-030
  0.18400000000000000         -2.9324741973240298E-029
  0.18500000000000000         -6.4744967961031130E-029
  0.18600000000000000         -1.0274532919339662E-028
  0.18700000000000000         -1.4068008241850035E-028
  0.18800000000000000         -1.7532221766243105E-028
  0.18900000000000000         -2.0300799024373227E-028
  0.19000000000000000         -2.1984408463157661E-028
  0.19100000000000000         -2.2198162612860339E-028
  0.19200000000000000         -2.0594496118654989E-028
  0.19300000000000000         -1.6899766835511996E-028
  0.19400000000000001         -1.0952862297639860E-028
  0.19500000000000001         -2.7426692874063605E-029
  0.19600000000000001          7.5583331316064738E-029
  0.19700000000000001          1.9568721756150042E-028
  0.19800000000000001          3.2683840046828035E-028
  0.19900000000000001          4.6076525768503547E-028
  0.20000000000000001          5.8716004363053515E-028
  0.20100000000000001          6.9406860743646505E-028
  0.20200000000000001          7.6850064792443048E-028
  0.20300000000000001          7.9723990418531152E-028
  0.20400000000000001          7.6784958730673038E-028
  0.20500000000000002          6.6983458279799186E-028
  0.20600000000000002          4.9588670874387554E-028
  0.20700000000000002          2.4314104805560820E-028
  0.20800000000000002         -8.5644551845882716E-029
  0.20900000000000002         -4.8110760383313399E-028
  0.21000000000000002         -9.2661333338280051E-028
  0.21100000000000002         -1.3980050058324898E-027
  0.21200000000000002         -1.8638780223230346E-027
  0.21300000000000002         -2.2864838670549536E-027
  0.21400000000000002         -2.6233107179938095E-027
  0.21500000000000002         -2.8293640368138554E-027
  0.21600000000000003         -2.8600810786828763E-027
  0.21700000000000003         -2.6748636255591781E-027
  0.21800000000000003         -2.2409976388144047E-027
  0.21900000000000003         -1.5378254012720643E-027
  0.22000000000000003         -5.6084524428014598E-028
  0.22100000000000003          6.7454497410772555E-028
  0.22200000000000003          2.1300821777591772E-027
  0.22300000000000003          3.7426673646474930E-027
  0.22400000000000003          5.4239379541074630E-027
  0.22500000000000003          7.0615862303270620E-027
  0.22600000000000003          8.5227885087616801E-027
  0.22700000000000004          9.6597781996141954E-027
  0.22800000000000004          1.0317657379689409E-026
  0.22900000000000004          1.0344459391167480E-026
  0.23000000000000004          9.6028453993421755E-027
  0.23100000000000004          7.9833347609668376E-027
  0.23200000000000004          5.4180068602507280E-027
  0.23300000000000004          1.8940766038510265E-027
  0.23400000000000004         -2.5337682644964193E-027
  0.23500000000000004         -7.7334507432864380E-027
  0.23600000000000004         -1.3489202545280511E-026
  0.23700000000000004         -1.9499717130690106E-026
  0.23800000000000004         -2.5382485553260473E-026
  0.23900000000000005         -3.0684350363772895E-026
  0.23999999999999999         -3.4899600877430173E-026
  0.24099999999999999         -3.7495172041248984E-026
  0.24199999999999999         -3.7942930723647595E-026
  0.24299999999999999         -3.5757841482967790E-026
  0.24399999999999999         -3.0541378569165320E-026
  0.24500000000000000         -2.2026899292555704E-026
  0.24600000000000000         -1.0125211526298437E-026
  0.24700000000000000          5.0331929610385365E-027
  0.24800000000000000          2.3062909394936086E-026
  0.24900000000000000          4.3298467349850201E-026
  0.25000000000000000          6.4784246580023178E-026
  0.25100000000000000          8.6281821745919539E-026
  0.25200000000000000          1.0629814416191626E-025
  0.25300000000000000          1.2313710741500575E-025
  0.25400000000000000          1.3497392831999210E-025
  0.25500000000000000          1.3995510422434867E-025
  0.25600000000000001          1.3631748170109993E-025
  0.25700000000000001          1.2252678791934922E-025
  0.25800000000000001          9.7425831723871358E-026
  0.25900000000000001          6.0388688964228413E-026
  0.26000000000000001          1.1468362773233873E-026
  0.26100000000000001         -4.8472109907641143E-026
  0.26200000000000001         -1.1765645929812784E-025
  0.26300000000000001         -1.9333173802455977E-025
  0.26400000000000001         -2.7175873615172561E-025
  0.26500000000000001         -3.4826244208815605E-025
  0.26600000000000001         -4.1735736361797705E-025
  0.26700000000000002         -4.7294572920334663E-025
  0.26800000000000002         -5.0859741034629189E-025
  0.26900000000000002         -5.1790384896421704E-025
  0.27000000000000002         -4.9489953098042108E-025
  0.27100000000000002         -4.3453402096825936E-025
  0.27200000000000002         -3.3317848480800536E-025
  0.27300000000000002         -1.8913618130014182E-025
  0.27400000000000002         -3.1284193570903944E-027
  0.27500000000000002          2.2128164689031585E-025
  0.27600000000000002          4.7736137812032124E-025
  0.27700000000000002          7.5502952061686404E-025
  0.27800000000000002          1.0408325446794656E-024
  0.27900000000000003          1.3181562014794597E-024
  0.28000000000000003          1.5676592979502507E-024
  0.28100000000000003          1.7679479263422447E-024
  0.28200000000000003          1.8965346204759853E-024
  0.28300000000000003          1.9310173083650062E-024
  0.28400000000000003          1.8504978813386449E-024
  0.28500000000000003          1.6371509425596880E-024
  0.28600000000000003          1.2779251827817065E-024
  0.28700000000000003          7.6624628452439503E-025
  0.28800000000000003          1.0365878813636977E-025
  0.28900000000000003         -6.9873482869848219E-025
  0.29000000000000004         -1.6191166947978173E-024
  0.29100000000000004         -2.6242615665555370E-024
  0.29200000000000004         -3.6693951781054938E-024
  0.29300000000000004         -4.6986835322979552E-024
  0.29400000000000004         -5.6465330420790202E-024
  0.29500000000000004         -6.4396305247915214E-024
  0.29600000000000004         -6.9999304212078707E-024
  0.29700000000000004         -7.2483387759574413E-024
  0.29800000000000004         -7.1092270996262419E-024
  0.29900000000000004         -6.5155366932441502E-024
  0.30000000000000004         -5.4143365677926467E-024
  0.30100000000000005         -3.7725292751322785E-024
  0.30200000000000005         -1.5824591173931021E-024
  0.30300000000000005          1.1329157851078486E-024
  0.30400000000000005          4.3156895906608909E-024