 -0.23999999999999999          0.0000000000000000     
 -0.23899999999999999          0.0000000000000000     
 -0.23799999999999999          0.0000000000000000     
 -0.23699999999999999          0.0000000000000000     
 -0.23599999999999999          0.0000000000000000     
 -0.23499999999999999          0.0000000000000000     
 -0.23399999999999999          0.0000000000000000     
 -0.23299999999999998          0.0000000000000000     
 -0.23199999999999998          0.0000000000000000     
 -0.23099999999999998          0.0000000000000000     
 -0.22999999999999998          0.0000000000000000     
 -0.22899999999999998          0.0000000000000000     
 -0.22799999999999998          0.0000000000000000     
 -0.22699999999999998          0.0000000000000000     
 -0.22599999999999998          0.0000000000000000     
 -0.22499999999999998          0.0000000000000000     
 -0.22399999999999998          0.0000000000000000     
 -0.22299999999999998          0.0000000000000000     
 -0.22199999999999998          0.0000000000000000     
 -0.22100000000000000          0.0000000000000000     
 -0.22000000000000000          0.0000000000000000     
 -0.21900000000000000          0.0000000000000000     
 -0.21800000000000000          0.0000000000000000     
 -0.21700000000000000          0.0000000000000000     
 -0.21600000000000000          0.0000000000000000     
 -0.21500000000000000          0.0000000000000000     
 -0.21400000000000000          0.0000000000000000     
 -0.21299999999999999          0.0000000000000000     
 -0.21199999999999999          0.0000000000000000     
 -0.21099999999999999          0.0000000000000000     
 -0.20999999999999999          0.0000000000000000     
 -0.20899999999999999          0.0000000000000000     
 -0.20799999999999999          0.0000000000000000     
 -0.20699999999999999          0.0000000000000000     
 -0.20599999999999999          0.0000000000000000     
 -0.20499999999999999          0.0000000000000000     
 -0.20399999999999999          0.0000000000000000     
 -0.20299999999999999          0.0000000000000000     
 -0.20199999999999999          0.0000000000000000     
 -0.20099999999999998          0.0000000000000000     
 -0.19999999999999998          0.0000000000000000     
 -0.19899999999999998          0.0000000000000000     
 -0.19799999999999998          0.0000000000000000     
 -0.19699999999999998          0.0000000000000000     
 -0.19600000000000001          0.0000000000000000     
 -0.19500000000000001          0.0000000000000000     
 -0.19400000000000001          0.0000000000000000     
 -0.19300000000000000          0.0000000000000000     
 -0.19200000000000000          0.0000000000000000     
 -0.19100000000000000          0.0000000000000000     
 -0.19000000000000000          0.0000000000000000     
 -0.18900000000000000          0.0000000000000000     
 -0.18800000000000000          0.0000000000000000     
 -0.18700000000000000          0.0000000000000000     
 -0.18600000000000000          0.0000000000000000     
 -0.18500000000000000          0.0000000000000000     
 -0.18400000000000000          0.0000000000000000     
 -0.18300000000000000          0.0000000000000000     
 -0.18200000000000000          0.0000000000000000     
 -0.18099999999999999          0.0000000000000000     
 -0.17999999999999999          0.0000000000000000     
 -0.17899999999999999          0.0000000000000000     
 -0.17799999999999999          0.0000000000000000     
 -0.17699999999999999          0.0000000000000000     
 -0.17599999999999999          0.0000000000000000     
 -0.17499999999999999          0.0000000000000000     
 -0.17399999999999999          0.0000000000000000     
 -0.17299999999999999          0.0000000000000000     
 -0.17199999999999999          0.0000000000000000     
 -0.17099999999999999          0.0000000000000000     
 -0.16999999999999998          0.0000000000000000     
 -0.16899999999999998          0.0000000000000000     
 -0.16799999999999998          0.0000000000000000     
 -0.16699999999999998          0.0000000000000000     
 -0.16599999999999998          0.0000000000000000     
 -0.16499999999999998          0.0000000000000000     
 -0.16399999999999998          0.0000000000000000     
 -0.16299999999999998          0.0000000000000000     
 -0.16199999999999998          0.0000000000000000     
 -0.16099999999999998          0.0000000000000000     
 -0.15999999999999998          0.0000000000000000     
 -0.15899999999999997          0.0000000000000000     
 -0.15799999999999997          0.0000000000000000     
 -0.15699999999999997          0.0000000000000000     
 -0.15599999999999997          0.0000000000000000     
 -0.15499999999999997          0.0000000000000000     
 -0.15399999999999997          0.0000000000000000     
 -0.15299999999999997          0.0000000000000000     
 -0.15200000000000000          0.0000000000000000     
 -0.15100000000000000          0.0000000000000000     
 -0.14999999999999999          0.0000000000000000     
 -0.14899999999999999          0.0000000000000000     
 -0.14799999999999999          0.0000000000000000     
 -0.14699999999999999          0.0000000000000000     
 -0.14599999999999999          0.0000000000000000     
 -0.14499999999999999          0.0000000000000000     
 -0.14399999999999999          0.0000000000000000     
 -0.14299999999999999          0.0000000000000000     
 -0.14199999999999999          0.0000000000000000     
 -0.14099999999999999          0.0000000000000000     
 -0.13999999999999999          0.0000000000000000     
 -0.13899999999999998          0.0000000000000000     
 -0.13799999999999998          0.0000000000000000     
 -0.13699999999999998          0.0000000000000000     
 -0.13599999999999998          0.0000000000000000     
 -0.13500000000000001          0.0000000000000000     
 -0.13400000000000001          0.0000000000000000     
 -0.13300000000000001          0.0000000000000000     
 -0.13200000000000001          0.0000000000000000     
 -0.13100000000000001          0.0000000000000000     
 -0.13000000000000000          0.0000000000000000     
 -0.12900000000000000          0.0000000000000000     
 -0.12800000000000000          0.0000000000000000     
 -0.12700000000000000          0.0000000000000000     
 -0.12600000000000000          0.0000000000000000     
 -0.12499999999999999          0.0000000000000000     
 -0.12399999999999999          0.0000000000000000     
 -0.12299999999999998          0.0000000000000000     
 -0.12199999999999998          0.0000000000000000     
 -0.12099999999999998          0.0000000000000000     
 -0.12000000000000000          0.0000000000000000     
 -0.11899999999999999          0.0000000000000000     
 -0.11799999999999999          0.0000000000000000     
 -0.11699999999999999          0.0000000000000000     
 -0.11599999999999999          0.0000000000000000     
 -0.11499999999999999          0.0000000000000000     
 -0.11399999999999999          0.0000000000000000     
 -0.11299999999999999          0.0000000000000000     
 -0.11199999999999999          0.0000000000000000     
 -0.11099999999999999          0.0000000000000000     
 -0.10999999999999999          0.0000000000000000     
 -0.10899999999999999          0.0000000000000000     
 -0.10799999999999998          0.0000000000000000     
 -0.10699999999999998          0.0000000000000000     
 -0.10599999999999998          0.0000000000000000     
 -0.10499999999999998          0.0000000000000000     
 -0.10399999999999998          0.0000000000000000     
 -0.10299999999999998          0.0000000000000000     
 -0.10199999999999998          0.0000000000000000     
 -0.10099999999999998          0.0000000000000000     
  -9.9999999999999978E-002     0.0000000000000000     
  -9.8999999999999977E-002     0.0000000000000000     
  -9.7999999999999976E-002     0.0000000000000000     
  -9.6999999999999975E-002     0.0000000000000000     
  -9.5999999999999974E-002     1.4012984643249894E-045
  -9.5000000000000001E-002     1.4012984643249213E-045
  -9.4000000000000000E-002     2.8025969286497387E-045
  -9.2999999999999999E-002     2.8025969286498787E-045
  -9.1999999999999998E-002     2.8025969286498663E-045
  -9.0999999999999998E-002     1.4012984643249126E-045
  -8.9999999999999997E-002    -2.1593785150522646E-059
  -8.8999999999999996E-002    -2.8025969286499322E-045
  -8.7999999999999995E-002    -7.0064923216246280E-045
  -8.6999999999999994E-002    -1.1210387714599453E-044
  -8.5999999999999993E-002    -1.5414283107574446E-044
  -8.4999999999999992E-002    -1.8216880036224225E-044
  -8.3999999999999991E-002    -1.8216880036224193E-044
  -8.2999999999999990E-002    -1.2611686178924534E-044
  -8.1999999999999990E-002    -1.4012984643248874E-045
  -8.0999999999999989E-002     1.6815581571899381E-044
  -7.9999999999999988E-002     4.3440252394073397E-044
  -7.8999999999999987E-002     7.4268818609221916E-044
  -7.7999999999999986E-002     1.0369608636004580E-043
  -7.6999999999999985E-002     1.2471556332491981E-043
  -7.5999999999999984E-002     1.2751816025356945E-043
  -7.4999999999999983E-002     9.8090892502745479E-044
  -7.3999999999999982E-002     2.6624670822173217E-044
  -7.2999999999999982E-002    -9.5288295574097080E-044
  -7.1999999999999981E-002    -2.6344411129309010E-043
  -7.0999999999999980E-002    -4.6663238862020622E-043
  -6.9999999999999979E-002    -6.7122196441164712E-043
  -6.8999999999999978E-002    -8.2676609395171472E-043
  -6.7999999999999977E-002    -8.6880504788146162E-043
  -6.6999999999999976E-002    -7.2026741066301619E-043
  -6.5999999999999975E-002    -3.0968696061580735E-043
  -6.4999999999999974E-002     4.1058045004721306E-043
  -6.4000000000000001E-002     1.4419361197903693E-042
  -6.3000000000000000E-002     2.7087099315401135E-042
  -6.2000000000000000E-002     4.0343382787915039E-042
  -6.0999999999999999E-002     5.1371601702152261E-042
  -5.9999999999999998E-002     5.6304172296575987E-042
  -5.8999999999999997E-002     5.0600887546773414E-042
  -5.7999999999999996E-002     2.9791605351548001E-042
  -5.6999999999999995E-002    -9.4447516495503297E-043
  -5.5999999999999994E-002    -6.7920936565830026E-042
  -5.4999999999999993E-002    -1.4237192397541396E-041
  -5.3999999999999992E-002    -2.2412367638413077E-041
  -5.2999999999999992E-002    -2.9818230022370357E-041
  -5.1999999999999991E-002    -3.4343022763675563E-041
  -5.0999999999999990E-002    -3.3427974866471356E-041
  -4.9999999999999989E-002    -2.4416224442397667E-041
  -4.8999999999999988E-002    -5.1105354993929902E-042
  -4.7999999999999987E-002     2.5500829453785269E-041
  -4.6999999999999986E-002     6.6397725135108558E-041
  -4.5999999999999985E-002     1.1373779115539789E-040
  -4.4999999999999984E-002     1.6028051834948632E-040
  -4.3999999999999984E-002     1.9528215139139458E-040
  -4.2999999999999983E-002     2.0513187829713457E-040
  -4.1999999999999982E-002     1.7492128470475333E-040
  -4.0999999999999981E-002     9.1077393688799459E-041
  -3.9999999999999980E-002    -5.5006569918610774E-041
  -3.8999999999999979E-002    -2.6265377895920848E-040
  -3.7999999999999978E-002    -5.1751213456137767E-040
  -3.6999999999999977E-002    -7.8800898102541333E-040
  -3.5999999999999976E-002    -1.0238124801096925E-039
  -3.4999999999999976E-002    -1.1575888393049377E-039
  -3.3999999999999975E-002    -1.1112324848066055E-039
  -3.2999999999999974E-002    -8.0733008425152913E-040
  -3.1999999999999973E-002    -1.8586962960652858E-040
  -3.1000000000000000E-002     7.7491104427936274E-040
  -2.9999999999999999E-002     2.0360208076363043E-039
  -2.8999999999999998E-002     3.4775071106196174E-039
  -2.7999999999999997E-002     4.8858274815492895E-039
  -2.6999999999999996E-002     5.9548570605058254E-039
  -2.5999999999999995E-002     6.3064708711742477E-039
  -2.4999999999999994E-002     5.5352900834069220E-039
  -2.3999999999999994E-002     3.2791463065021401E-039
  -2.2999999999999993E-002    -6.8765359020427552E-040
  -2.1999999999999992E-002    -6.3471982097413267E-039
  -2.0999999999999991E-002    -1.3332581371299429E-038
  -1.9999999999999990E-002    -2.0846286283772721E-038
  -1.8999999999999989E-002    -2.7629068312060289E-038
  -1.7999999999999988E-002    -3.2007461797603676E-038
  -1.6999999999999987E-002    -3.2044217856322983E-038
  -1.5999999999999986E-002    -2.5805962194392157E-038
  -1.4999999999999986E-002    -1.1745088176124543E-038
  -1.3999999999999985E-002     1.0830939912533904E-038
  -1.2999999999999984E-002     4.1257842139763825E-038
  -1.1999999999999983E-002     7.7064734146793438E-038
  -1.0999999999999982E-002     1.1368521443701634E-037
  -9.9999999999999811E-003     1.4445184326004207E-037
  -8.9999999999999802E-003     1.6099177260842734E-037
  -7.9999999999999793E-003     1.5411208098224287E-037
  -6.9999999999999785E-003     1.1520510759297536E-037
  -5.9999999999999776E-003     3.8117596740942856E-038
  -4.9999999999999767E-003    -7.8683245083475022E-038
  -3.9999999999999758E-003    -2.2993576915708947E-037
  -2.9999999999999749E-003    -4.0180639347384480E-037
  -1.9999999999999740E-003    -5.7099719702820106E-037
  -9.9999999999997313E-004    -7.0525306934755131E-037
   0.0000000000000000         -7.6572194552165369E-037
   1.0000000000000009E-003    -7.1145447646506813E-037
   2.0000000000000018E-003    -5.0604757372613294E-037
   3.0000000000000027E-003    -1.2604211092397168E-037
   4.0000000000000036E-003     4.2977734217743304E-037
   5.0000000000000044E-003     1.1315209323886027E-036
   6.0000000000000053E-003     1.9115307412602681E-036
   7.0000000000000062E-003     2.6619359788890178E-036
   8.0000000000000071E-003     3.2384438886268674E-036
   9.0000000000000080E-003     3.4720066666251484E-036
   1.0000000000000009E-002     3.1892182690241631E-036
   1.1000000000000010E-002     2.2410589222506366E-036
   1.2000000000000011E-002     5.3800233549112256E-037
   1.3000000000000012E-002    -1.9123231811470032E-036
   1.4000000000000012E-002    -4.9705377561693552E-036
   1.5000000000000013E-002    -8.3410593836241842E-036
   1.6000000000000014E-002    -1.1565629655147888E-035
   1.7000000000000015E-002    -1.4042317474694148E-035
   1.8000000000000016E-002    -1.5075749487608289E-035
   1.9000000000000017E-002    -1.3961022971579614E-035
   2.0000000000000018E-002    -1.0098855351921695E-035
   2.1000000000000019E-002    -3.1334687418703037E-036
   2.2000000000000020E-002     6.9020380543225655E-036
   2.3000000000000020E-002     1.9454506122451045E-035
   2.4000000000000021E-002     3.3360320176613748E-035
   2.5000000000000022E-002     4.6824540377641497E-035
   2.6000000000000023E-002     5.7496465009815001E-035
   2.7000000000000024E-002     6.2661505683325902E-035
   2.8000000000000025E-002     5.9556955078238324E-035
   2.9000000000000026E-002     4.5801343717760742E-035
   3.0000000000000027E-002     1.9905686740428030E-035
   3.1000000000000028E-002    -1.8188948413559995E-035
   3.2000000000000028E-002    -6.6624620602275346E-035
   3.3000000000000029E-002    -1.2128447654648067E-034
   3.4000000000000030E-002    -1.7569611262400812E-034
   3.5000000000000031E-002    -2.2127381681960928E-034
   3.6000000000000032E-002    -2.4796940832115658E-034
   3.7000000000000033E-002    -2.4535891546624403E-034
   3.8000000000000034E-002    -2.0413288217383888E-034
   3.9000000000000035E-002    -1.1788612697003122E-034
   4.0000000000000036E-002     1.4976172546107052E-035
   4.1000000000000036E-002     1.8947143704770537E-034
   4.2000000000000037E-002     3.9272370864888361E-034
   4.3000000000000038E-002     6.0343520363112577E-034
   4.4000000000000039E-002     7.9246309819126662E-034
   4.5000000000000040E-002     9.2474698761908214E-034
   4.6000000000000041E-002     9.6270195533271278E-034
   4.7000000000000042E-002     8.7100678381284534E-034
   4.8000000000000043E-002     6.2249318130033341E-034
   4.8999999999999988E-002     2.0458785818068876E-034
   4.9999999999999989E-002    -3.7447149562296841E-034
   5.0999999999999990E-002    -1.0806180895510959E-033
   5.1999999999999991E-002    -1.8512076255964611E-033
   5.2999999999999992E-002    -2.5955807907181080E-033
   5.3999999999999992E-002    -3.1997992133782263E-033
   5.4999999999999993E-002    -3.5360471683790729E-033
   5.5999999999999994E-002    -3.4766773568228582E-033
   5.6999999999999995E-002    -2.9122058879129155E-033
   5.7999999999999996E-002    -1.7718185942328014E-033
   5.8999999999999997E-002    -4.4217752511068394E-035
   5.9999999999999998E-002     2.2039944187713526E-033
   6.0999999999999999E-002     4.8156014219240032E-033
   6.2000000000000000E-002     7.5389962848009401E-033
   6.3000000000000000E-002     1.0036244401678887E-032
   6.4000000000000001E-002     1.1905034300356817E-032
   6.5000000000000002E-002     1.2715203374042873E-032
   6.6000000000000003E-002     1.2058751492562018E-032
   6.7000000000000004E-002     9.6101747192799204E-033
   6.8000000000000005E-002     5.1917651243171134E-033
   6.9000000000000006E-002    -1.1634559111373837E-033
   7.0000000000000007E-002    -9.1600323819436779E-033
   7.1000000000000008E-002    -1.8209183320510323E-032
   7.2000000000000008E-002    -2.7427947808325097E-032
   7.3000000000000009E-002    -3.5675997877438384E-032
   7.4000000000000010E-002    -4.1634693352456400E-032
   7.5000000000000011E-002    -4.3928805759936756E-032
   7.6000000000000012E-002    -4.1285844832698927E-032
   7.7000000000000013E-002    -3.2722195101541127E-032
   7.8000000000000014E-002    -1.7739223617787991E-032
   7.9000000000000015E-002     3.4925468979004346E-033
   8.0000000000000016E-002     2.9986760972459012E-032
   8.1000000000000016E-002     5.9858934755600425E-032
   8.2000000000000017E-002     9.0333602290784168E-032
   8.3000000000000018E-002     1.1786103512475554E-031
   8.4000000000000019E-002     1.3835493277541170E-031
   8.5000000000000020E-002     1.4755061349291249E-031
   8.6000000000000021E-002     1.4146895837006300E-031
   8.7000000000000022E-002     1.1695562235597936E-031
   8.8000000000000023E-002     7.2249562098863987E-032
   8.9000000000000024E-002     7.5214277870455574E-033
   9.0000000000000024E-002    -7.4686814453440853E-032
   9.1000000000000025E-002    -1.6919352160666483E-031
   9.2000000000000026E-002    -2.6814864615423446E-031
   9.3000000000000027E-002    -3.6130090757413902E-031
   9.4000000000000028E-002    -4.3659581113273452E-031
   9.5000000000000029E-002    -4.8111051266448074E-031
   9.6000000000000030E-002    -4.8229541097011074E-031
   9.7000000000000031E-002    -4.2945266110120807E-031
   9.8000000000000032E-002    -3.1534265195981461E-031
   9.9000000000000032E-002    -1.3777032416992198E-031
  0.10000000000000003          9.9021058025701741E-032
  0.10100000000000003          3.8334090943454028E-031
  0.10200000000000004          6.9561495690141664E-031
  0.10300000000000004          1.0086894454915428E-030
  0.10400000000000004          1.2890025303660569E-030
  0.10500000000000004          1.4986842034002207E-030
  0.10600000000000004          1.5985654881918628E-030
  0.10700000000000004          1.5519804589896782E-030
  0.10800000000000004          1.3291404902715106E-030
  0.10900000000000004          9.1175940383686968E-031
  0.11000000000000004          2.9751620959994373E-031
  0.11100000000000004         -4.9612952186627688E-031
  0.11199999999999999         -1.4292819824926205E-030
  0.11299999999999999         -2.4386260372782553E-030
  0.11399999999999999         -3.4385684882460147E-030
  0.11499999999999999         -4.3248419520429227E-030
  0.11599999999999999         -4.9807410925701785E-030
  0.11699999999999999         -5.2859483266086771E-030
  0.11799999999999999         -5.1276413990783485E-030
  0.11899999999999999         -4.4132996886937600E-030
  0.12000000000000000         -3.0843416351455162E-030
  0.12100000000000000         -1.1294600172137343E-030
  0.12200000000000000          1.4036828188367578E-030
  0.12300000000000000          4.3998651988569940E-030
  0.12400000000000000          7.6723188439758813E-030
  0.12500000000000000          1.0964697588538954E-029
  0.12600000000000000          1.3960127276016490E-029
  0.12700000000000000          1.6298000093813481E-029
  0.12800000000000000          1.7598621210343097E-029
  0.12900000000000000          1.7495100971199536E-029
  0.13000000000000000          1.5671096355220548E-029
  0.13100000000000001          1.1902105620834088E-029
  0.13200000000000001          6.0972959685634017E-030
  0.13300000000000001         -1.6619588640965101E-030
  0.13400000000000001         -1.1091079217975395E-029
  0.13500000000000001         -2.1683365149846171E-029
  0.13600000000000001         -3.2707535605531158E-029
  0.13700000000000001         -4.3225505467989308E-029
  0.13800000000000001         -5.2133196276148546E-029
  0.13900000000000001         -5.8225640932506256E-029
  0.14000000000000001         -6.0285645693678527E-029
  0.14100000000000001         -5.7193125815196066E-029
  0.14200000000000002         -4.8049529653708315E-029
  0.14300000000000002         -3.2309403756309355E-029
  0.14400000000000002         -9.9086974106533802E-030
  0.14500000000000002          1.8622516286518987E-029
  0.14600000000000002          5.2076315138946735E-029
  0.14700000000000002          8.8525947672750538E-029
  0.14800000000000002          1.2534056800514014E-028
  0.14900000000000002          1.5926605267970560E-028
  0.15000000000000002          1.8657906152027354E-028
  0.15100000000000002          2.0331616310897826E-028
  0.15200000000000002          2.0557378633803813E-028
  0.15300000000000002          1.8986747856675668E-028
  0.15400000000000003          1.5353208978984189E-028
  0.15500000000000003          9.5135576741551265E-029
  0.15600000000000003          1.4874275942652927E-029
  0.15700000000000003         -8.5089228002018085E-029
  0.15800000000000003         -2.0038685977474927E-028
  0.15900000000000003         -3.2434547674829488E-028
  0.16000000000000003         -4.4806490525980989E-028
  0.16100000000000003         -5.6070455509776150E-028
  0.16200000000000003         -6.4999649325764494E-028
  0.16300000000000003         -7.0299018901441569E-028
  0.16400000000000003         -7.0701254185151857E-028
  0.16500000000000004         -6.5080832087745609E-028
  0.16600000000000004         -5.2580126375337378E-028
  0.16700000000000004         -3.2739610163196310E-028
  0.16800000000000004         -5.6220711749218594E-029
  0.16900000000000004          2.8080816924083546E-028
  0.17000000000000004          6.6971835292590602E-028
  0.17100000000000004          1.0891428502792298E-027
  0.17200000000000004          1.5105219739331131E-027
  0.17300000000000004          1.8989424658557006E-027
  0.17400000000000004          2.2146763394506660E-027
  0.17500000000000004          2.4154350842606196E-027
  0.17600000000000005          2.4593069980217906E-027
  0.17699999999999999          2.3082757643759273E-027
  0.17799999999999999          1.9321537795957175E-027
  0.17899999999999999          1.3127011389568507E-027
  0.17999999999999999          4.4763171546709003E-028
  0.18099999999999999         -6.4583272901435516E-028
  0.18200000000000000         -1.9282416380996478E-027
  0.18300000000000000         -3.3364140132946841E-027
  0.18400000000000000         -4.7835211808384525E-027
  0.18500000000000000         -6.1610756995566049E-027
  0.18600000000000000         -7.3430477953763393E-027
  0.18700000000000000         -8.1922203523638944E-027
  0.18800000000000000         -8.5687388861196686E-027
  0.18900000000000000         -8.3406271212745693E-027
  0.19000000000000000         -7.3958367647800659E-027
  0.19100000000000000         -5.6552117107358470E-027
  0.19200000000000000         -3.0855344824260903E-027
  0.19300000000000000          2.8833121271541353E-028
  0.19400000000000001          4.3733416287006190E-027
  0.19500000000000001          9.0013751665949048E-027
  0.19600000000000001          1.3926733769303728E-026
  0.19700000000000001          1.8829103701824372E-026
  0.19800000000000001          2.3322843685440500E-026
  0.19900000000000001          2.6973135746235785E-026
  0.20000000000000001          2.9319171100508400E-026
  0.20100000000000001          2.9903972794773882E-026
  0.20200000000000001          2.8309949913282450E-026
  0.20300000000000001          2.4198642609095374E-026
  0.20400000000000001          1.7352457776351802E-026
  0.20500000000000002          7.7157391211468424E-027
  0.20600000000000002         -4.5680697090755410E-027
  0.20700000000000002         -1.9126706100550699E-026
  0.20800000000000002         -3.5340457026911279E-026
  0.20900000000000002         -5.2338141559323249E-026
  0.21000000000000002         -6.9010975636155524E-026
  0.21100000000000002         -8.4046553556104739E-026
  0.21200000000000002         -9.5984743087413252E-026
  0.21300000000000002         -1.0329529582239602E-025
  0.21400000000000002         -1.0447602338228582E-025
  0.21500000000000002         -9.8168260769259022E-026
  0.21600000000000003         -8.3284729625815553E-026
  0.21700000000000003         -5.9142794098003004E-026
  0.21800000000000003         -2.5594796988845042E-026
  0.21900000000000003          1.6854578693079404E-026
  0.22000000000000003          6.6954815849671906E-026
  0.22100000000000003          1.2265104583788426E-025
  0.22200000000000003          1.8107156998442276E-025
  0.22300000000000003          2.3857101274245421E-025
  0.22400000000000003          2.9083654828361848E-025
  0.22500000000000003          3.3306207852071101E-025
  0.22600000000000003          3.6019095574745801E-025
  0.22700000000000004          3.6722310837563209E-025
  0.22800000000000004          3.4957744856529136E-025
  0.22900000000000004          3.0349530062209012E-025
  0.23000000000000004          2.2646372348054336E-025
  0.23100000000000004          1.1763410002185937E-025
  0.23200000000000004         -2.1794248496017076E-026
  0.23300000000000004         -1.8825833935001766E-025
  0.23400000000000004         -3.7561791960995851E-025
  0.23500000000000004         -5.7507747984248818E-025
  0.23600000000000004         -7.7527573435704774E-025
  0.23700000000000004         -9.6256561136044199E-025
  0.23800000000000004         -1.1215037288225774E-024
  0.23900000000000005         -1.2355536886253701E-024
  0.23999999999999999         -1.2879955838826589E-024
  0.24099999999999999         -1.2630204448385871E-024
  0.24199999999999999         -1.1469684546659592E-024
  0.24299999999999999         -9.2965679958495497E-025
  0.24399999999999999         -6.0572418366846547E-025
  0.24500000000000000         -1.7590690996390151E-025
  0.24600000000000000          3.5185126616887069E-025
  0.24700000000000000          9.6155823598446649E-025
  0.24800000000000000          1.6287053977085412E-024
  0.24900000000000000          2.3202730306527064E-024
  0.25000000000000000          2.9952920381347574E-024
  0.25100000000000000          3.6060295314635110E-024
  0.25200000000000000          4.0998312145829487E-024
  0.25300000000000000          4.4216229606102872E-024
  0.25400000000000000          4.5170270096268251E-024
  0.25500000000000000          4.3360070977057463E-024
  0.25600000000000001          3.8368987472768949E-024
  0.25700000000000001          2.9906415058832823E-024
  0.25800000000000001          1.7849754889816412E-024
  0.25900000000000001          2.2833512341488562E-025
  0.26000000000000001         -1.6468657646076133E-024
  0.26100000000000001         -3.7818646550850004E-024
  0.26200000000000001         -6.0904203402820157E-024
  0.26300000000000001         -8.4591953004008961E-024
  0.26400000000000001         -1.0749909318504530E-023
  0.26500000000000001         -1.2803431795069912E-023
  0.26600000000000001         -1.4445898575447217E-023
  0.26700000000000002         -1.5496841161488109E-023
  0.26800000000000002         -1.5779166590857701E-023
  0.26900000000000002         -1.5130697683217015E-023
  0.27000000000000002         -1.3416857923578956E-023
  0.27100000000000002         -1.0543885671331657E-023
  0.27200000000000002         -6.4719205737952027E-024
  0.27300000000000002         -1.2270821113643013E-024
  0.27400000000000002          5.0882849728775408E-024
  0.27500000000000002          1.2288225160148112E-023
  0.27600000000000002          2.0099472201105784E-023
  0.27700000000000002          2.8162381648047097E-023
  0.27800000000000002          3.6037169857198531E-023
  0.27900000000000003          4.3215993421327720E-023
  0.28000000000000003          4.9141162390323187E-023
  0.28100000000000003          5.3229481363285840E-023
  0.28200000000000003          5.4902200959378410E-023
  0.28300000000000003          5.3619866537174502E-023
  0.28400000000000003          4.8920912425585656E-023
  0.28500000000000003          4.0462095778419290E-023
  0.28600000000000003          2.8059132377328515E-023
  0.28700000000000003          1.1724871977598483E-023
  0.28800000000000003         -8.2974306943150323E-024
  0.28900000000000003         -3.1508458239843292E-023
  0.29000000000000004         -5.7137618194608326E-023
  0.29100000000000004         -8.4140693011786251E-023
  0.29200000000000004         -1.1121279000272742E-022
  0.29300000000000004         -1.3681810427004950E-022
  0.29400000000000004         -1.5923783411902056E-022
  0.29500000000000004         -1.7663623080343147E-022
  0.29600000000000004         -1.8714409787469171E-022
  0.29700000000000004         -1.8895793522039757E-022
  0.29800000000000004         -1.8045179322980530E-022
  0.29900000000000004         -1.6029715440787566E-022
  0.30000000000000004         -1.2758636170794850E-022
  0.30100000000000005         -8.1952481213125642E-023
  0.30200000000000005         -2.3679080019841476E-023
  0.30300000000000005          4.6208038705190712E-023
  0.30400000000000005          1.2587483646620432E-022