 -0.23999999999999999          0.0000000000000000     
 -0.23899999999999999          0.0000000000000000     
 -0.23799999999999999          0.0000000000000000     
 -0.23699999999999999          0.0000000000000000     
 -0.23599999999999999          0.0000000000000000     
 -0.23499999999999999          0.0000000000000000     
 -0.23399999999999999          0.0000000000000000     
 -0.23299999999999998          0.0000000000000000     
 -0.23199999999999998          0.0000000000000000     
 -0.23099999999999998          0.0000000000000000     
 -0.22999999999999998          0.0000000000000000     
 -0.22899999999999998          0.0000000000000000     
 -0.22799999999999998          0.0000000000000000     
 -0.22699999999999998          0.0000000000000000     
 -0.22599999999999998          0.0000000000000000     
 -0.22499999999999998          0.0000000000000000     
 -0.22399999999999998          0.0000000000000000     
 -0.22299999999999998          0.0000000000000000     
 -0.22199999999999998          0.0000000000000000     
 -0.22100000000000000          0.0000000000000000     
 -0.22000000000000000          0.0000000000000000     
 -0.21900000000000000          0.0000000000000000     
 -0.21800000000000000          0.0000000000000000     
 -0.21700000000000000          0.0000000000000000     
 -0.21600000000000000          0.0000000000000000     
 -0.21500000000000000          0.0000000000000000     
 -0.21400000000000000          0.0000000000000000     
 -0.21299999999999999          0.0000000000000000     
 -0.21199999999999999          0.0000000000000000     
 -0.21099999999999999          0.0000000000000000     
 -0.20999999999999999          0.0000000000000000     
 -0.20899999999999999          0.0000000000000000     
 -0.20799999999999999          0.0000000000000000     
 -0.20699999999999999          0.0000000000000000     
 -0.20599999999999999          0.0000000000000000     
 -0.20499999999999999          0.0000000000000000     
 -0.20399999999999999          0.0000000000000000     
 -0.20299999999999999          0.0000000000000000     
 -0.20199999999999999          0.0000000000000000     
 -0.20099999999999998          0.0000000000000000     
 -0.19999999999999998          0.0000000000000000     
 -0.19899999999999998          0.0000000000000000     
 -0.19799999999999998          0.0000000000000000     
 -0.19699999999999998          0.0000000000000000     
 -0.19600000000000001          0.0000000000000000     
 -0.19500000000000001          0.0000000000000000     
 -0.19400000000000001          0.0000000000000000     
 -0.19300000000000000          0.0000000000000000     
 -0.19200000000000000          0.0000000000000000     
 -0.19100000000000000          0.0000000000000000     
 -0.19000000000000000          0.0000000000000000     
 -0.18900000000000000          0.0000000000000000     
 -0.18800000000000000          0.0000000000000000     
 -0.18700000000000000          0.0000000000000000     
 -0.18600000000000000          0.0000000000000000     
 -0.18500000000000000          0.0000000000000000     
 -0.18400000000000000          0.0000000000000000     
 -0.18300000000000000          0.0000000000000000     
 -0.18200000000000000          0.0000000000000000     
 -0.18099999999999999          0.0000000000000000     
 -0.17999999999999999          0.0000000000000000     
 -0.17899999999999999          0.0000000000000000     
 -0.17799999999999999          0.0000000000000000     
 -0.17699999999999999          0.0000000000000000     
 -0.17599999999999999          0.0000000000000000     
 -0.17499999999999999          0.0000000000000000     
 -0.17399999999999999          0.0000000000000000     
 -0.17299999999999999          0.0000000000000000     
 -0.17199999999999999          0.0000000000000000     
 -0.17099999999999999          0.0000000000000000     
 -0.16999999999999998          0.0000000000000000     
 -0.16899999999999998          0.0000000000000000     
 -0.16799999999999998          0.0000000000000000     
 -0.16699999999999998          0.0000000000000000     
 -0.16599999999999998          0.0000000000000000     
 -0.16499999999999998          0.0000000000000000     
 -0.16399999999999998          0.0000000000000000     
 -0.16299999999999998          0.0000000000000000     
 -0.16199999999999998          0.0000000000000000     
 -0.16099999999999998          0.0000000000000000     
 -0.15999999999999998          0.0000000000000000     
 -0.15899999999999997          0.0000000000000000     
 -0.15799999999999997          0.0000000000000000     
 -0.15699999999999997          0.0000000000000000     
 -0.15599999999999997          0.0000000000000000     
 -0.15499999999999997          0.0000000000000000     
 -0.15399999999999997          0.0000000000000000     
 -0.15299999999999997          0.0000000000000000     
 -0.15200000000000000          0.0000000000000000     
 -0.15100000000000000          0.0000000000000000     
 -0.14999999999999999          0.0000000000000000     
 -0.14899999999999999          0.0000000000000000     
 -0.14799999999999999          0.0000000000000000     
 -0.14699999999999999          0.0000000000000000     
 -0.14599999999999999          0.0000000000000000     
 -0.14499999999999999          0.0000000000000000     
 -0.14399999999999999          0.0000000000000000     
 -0.14299999999999999          0.0000000000000000     
 -0.14199999999999999          0.0000000000000000     
 -0.14099999999999999          0.0000000000000000     
 -0.13999999999999999          0.0000000000000000     
 -0.13899999999999998          0.0000000000000000     
 -0.13799999999999998          0.0000000000000000     
 -0.13699999999999998          0.0000000000000000     
 -0.13599999999999998          0.0000000000000000     
 -0.13500000000000001          0.0000000000000000     
 -0.13400000000000001          0.0000000000000000     
 -0.13300000000000001          0.0000000000000000     
 -0.13200000000000001          0.0000000000000000     
 -0.13100000000000001          0.0000000000000000     
 -0.13000000000000000          0.0000000000000000     
 -0.12900000000000000          0.0000000000000000     
 -0.12800000000000000          0.0000000000000000     
 -0.12700000000000000          0.0000000000000000     
 -0.12600000000000000          0.0000000000000000     
 -0.12499999999999999          0.0000000000000000     
 -0.12399999999999999          0.0000000000000000     
 -0.12299999999999998          0.0000000000000000     
 -0.12199999999999998          0.0000000000000000     
 -0.12099999999999998          0.0000000000000000     
 -0.12000000000000000          0.0000000000000000     
 -0.11899999999999999          0.0000000000000000     
 -0.11799999999999999          0.0000000000000000     
 -0.11699999999999999          0.0000000000000000     
 -0.11599999999999999          0.0000000000000000     
 -0.11499999999999999          0.0000000000000000     
 -0.11399999999999999          0.0000000000000000     
 -0.11299999999999999          0.0000000000000000     
 -0.11199999999999999          0.0000000000000000     
 -0.11099999999999999          0.0000000000000000     
 -0.10999999999999999          0.0000000000000000     
 -0.10899999999999999          0.0000000000000000     
 -0.10799999999999998          0.0000000000000000     
 -0.10699999999999998          0.0000000000000000     
 -0.10599999999999998          0.0000000000000000     
 -0.10499999999999998          0.0000000000000000     
 -0.10399999999999998          0.0000000000000000     
 -0.10299999999999998          0.0000000000000000     
 -0.10199999999999998          0.0000000000000000     
 -0.10099999999999998          0.0000000000000000     
  -9.9999999999999978E-002     0.0000000000000000     
  -9.8999999999999977E-002     0.0000000000000000     
  -9.7999999999999976E-002     0.0000000000000000     
  -9.6999999999999975E-002     0.0000000000000000     
  -9.5999999999999974E-002     0.0000000000000000     
  -9.5000000000000001E-002     0.0000000000000000     
  -9.4000000000000000E-002     0.0000000000000000     
  -9.2999999999999999E-002     0.0000000000000000     
  -9.1999999999999998E-002     0.0000000000000000     
  -9.0999999999999998E-002     0.0000000000000000     
  -8.9999999999999997E-002     0.0000000000000000     
  -8.8999999999999996E-002     0.0000000000000000     
  -8.7999999999999995E-002     0.0000000000000000     
  -8.6999999999999994E-002     0.0000000000000000     
  -8.5999999999999993E-002     0.0000000000000000     
  -8.4999999999999992E-002     0.0000000000000000     
  -8.3999999999999991E-002     0.0000000000000000     
  -8.2999999999999990E-002     0.0000000000000000     
  -8.1999999999999990E-002     0.0000000000000000     
  -8.0999999999999989E-002     0.0000000000000000     
  -7.9999999999999988E-002     0.0000000000000000     
  -7.8999999999999987E-002     0.0000000000000000     
  -7.7999999999999986E-002     0.0000000000000000     
  -7.6999999999999985E-002     3.2058862232584203E-059
  -7.5999999999999984E-002     4.4816043552199543E-059
  -7.4999999999999983E-002     4.4816043552199543E-059
  -7.3999999999999982E-002    -1.0465077082061556E-059
  -7.2999999999999982E-002    -1.4012984643248277E-045
  -7.1999999999999981E-002    -1.4012984643246999E-045
  -7.0999999999999980E-002    -1.4012984643247320E-045
  -6.9999999999999979E-002     6.3454086357093063E-059
  -6.8999999999999978E-002     4.1860301206570416E-059
  -6.7999999999999977E-002     1.4012984643248373E-045
  -6.6999999999999976E-002     2.8025969286497561E-045
  -6.5999999999999975E-002     4.2038953929744431E-045
  -6.4999999999999974E-002     5.6051938572992397E-045
  -6.4000000000000001E-002     5.6051938572992527E-045
  -6.3000000000000000E-002     5.6051938572992645E-045
  -6.2000000000000000E-002     2.8025969286495131E-045
  -6.0999999999999999E-002    -2.8025969286498215E-045
  -5.9999999999999998E-002    -9.8090892502741028E-045
  -5.8999999999999997E-002    -1.9618178500547892E-044
  -5.7999999999999996E-002    -2.9427267750821865E-044
  -5.6999999999999995E-002    -3.7835058536770783E-044
  -5.5999999999999994E-002    -3.9236357001095565E-044
  -5.4999999999999993E-002    -3.0828566215146364E-044
  -5.3999999999999992E-002    -8.4077907859486149E-045
  -5.2999999999999992E-002     2.9427267750822702E-044
  -5.1999999999999991E-002     8.2676609395167612E-044
  -5.0999999999999990E-002     1.4293244336113700E-043
  -4.9999999999999989E-002     1.9898438193413183E-043
  -4.8999999999999988E-002     2.3401684354225377E-043
  -4.7999999999999987E-002     2.2560905275630471E-043
  -4.6999999999999986E-002     1.4993893568276178E-043
  -4.5999999999999985E-002    -8.4077907859490505E-045
  -4.4999999999999984E-002    -2.5643761897145299E-043
  -4.3999999999999984E-002    -5.7453237037320216E-043
  -4.2999999999999983E-002    -9.1925179259712588E-043
  -4.1999999999999982E-002    -1.2163270670340054E-042
  -4.0999999999999981E-002    -1.3578582119308250E-042
  -3.9999999999999980E-002    -1.2233335593556429E-042
  -3.8999999999999979E-002    -6.9784663523381641E-043
  -3.7999999999999978E-002     2.9287137904387749E-043
  -3.6999999999999977E-002     1.7446165880844686E-042
  -3.5999999999999976E-002     3.5354760254916957E-042
  -3.4999999999999976E-002     5.3893938937935600E-042
  -3.3999999999999975E-002     6.8705663705850216E-042
  -3.2999999999999974E-002     7.4170727716717920E-042
  -3.1999999999999973E-002     6.4067365788936091E-042
  -3.1000000000000000E-002     3.2874461973064452E-042
  -2.9999999999999999E-002    -2.2560905275628280E-042
  -2.8999999999999998E-002    -1.0100559330853652E-041
  -2.7999999999999997E-002    -1.9507475921866836E-041
  -2.6999999999999996E-002    -2.8994266525346656E-041
  -2.5999999999999995E-002    -3.6324458792230579E-041
  -2.4999999999999994E-002    -3.8685646704618498E-041
  -2.3999999999999994E-002    -3.3072045056533418E-041
  -2.2999999999999993E-002    -1.6899659479760105E-041
  -2.1999999999999992E-002     1.1192170834561089E-041
  -2.0999999999999991E-002     5.0442540820301929E-041
  -1.9999999999999990E-002     9.7156226427037823E-041
  -1.8999999999999989E-002     1.4418380288978323E-040
  -1.7999999999999988E-002     1.8094686810134942E-040
  -1.6999999999999987E-002     1.9426480870629615E-040
  -1.5999999999999986E-002     1.7012323876290959E-040
  -1.4999999999999986E-002     9.6440162911779730E-041
  -1.3999999999999985E-002    -3.3381732017135979E-041
  -1.2999999999999984E-002    -2.1651742831975956E-040
  -1.1999999999999983E-002    -4.3712945075229182E-040
  -1.0999999999999982E-002    -6.6404171108043277E-040
  -9.9999999999999811E-003    -8.5073110028859557E-040
  -8.9999999999999802E-003    -9.3863875685110536E-040
  -7.9999999999999793E-003    -8.6449325250676190E-040
  -6.9999999999999785E-003    -5.7180544356169605E-040
  -5.9999999999999776E-003    -2.5789496937501837E-041
  -4.9999999999999767E-003     7.6989439577700893E-040
  -3.9999999999999758E-003     1.7575071326577976E-039
  -2.9999999999999749E-003     2.8142725474545751E-039
  -1.9999999999999740E-003     3.7504029800545696E-039
  -9.9999999999997313E-004     4.3201625278583678E-039
   0.0000000000000000          4.2489947827507797E-039
   1.0000000000000009E-003     3.2776819496071119E-039
   2.0000000000000018E-003     1.2213717415059239E-039
   3.0000000000000027E-003    -1.9624904733174257E-039
   4.0000000000000036E-003    -6.1073337477071207E-039
   5.0000000000000044E-003    -1.0785896574696653E-038
   6.0000000000000053E-003    -1.5289469453356777E-038
   7.0000000000000062E-003    -1.8654906317993821E-038
   8.0000000000000071E-003    -1.9752016516877316E-038
   9.0000000000000080E-003    -1.7437884206922232E-038
   1.0000000000000009E-002    -1.0773775342981837E-038
   1.1000000000000010E-002     7.1261491974774617E-040
   1.2000000000000011E-002     1.6754147245923106E-038
   1.3000000000000012E-002     3.6106593314787121E-038
   1.4000000000000012E-002     5.6405917775472845E-038
   1.5000000000000013E-002     7.4183047932817458E-038
   1.6000000000000014E-002     8.5091141937500326E-038
   1.7000000000000015E-002     8.4383861761006340E-038
   1.8000000000000016E-002     6.7646158752562112E-038
   1.9000000000000017E-002     3.1739138365064137E-038
   2.0000000000000018E-002    -2.4140137816352314E-038
   2.1000000000000019E-002    -9.7433066951646015E-038
   2.2000000000000020E-002    -1.8142901566656250E-037
   2.3000000000000020E-002    -2.6493859050009501E-037
   2.4000000000000021E-002    -3.3265675357294797E-037
   2.5000000000000022E-002    -3.6639986364847070E-037
   2.6000000000000023E-002    -3.4730751959406953E-037
   2.7000000000000024E-002    -2.5896051672665699E-037
   2.8000000000000025E-002    -9.1183449561801037E-038
   2.9000000000000026E-002     1.5588994758025847E-037
   3.0000000000000027E-002     4.6812807854905927E-037
   3.1000000000000028E-002     8.1484299462775200E-037
   3.2000000000000028E-002     1.1482310466328861E-036
   3.3000000000000029E-002     1.4055915047210365E-036
   3.4000000000000030E-002     1.5148880317340161E-036
   3.5000000000000031E-002     1.4038599930762427E-036
   3.6000000000000032E-002     1.0123250949251479E-036
   3.7000000000000033E-002     3.0663356489332192E-037
   3.8000000000000034E-002    -7.0540297465195357E-037
   3.9000000000000035E-002    -1.9615627913135285E-036
   4.0000000000000036E-002    -3.3369539599469607E-036
   4.1000000000000036E-002    -4.6435632118173300E-036
   4.2000000000000037E-002    -5.6400802251352513E-036
   4.3000000000000038E-002    -6.0539573363185618E-036
   4.4000000000000039E-002    -5.6158528733052664E-036
   4.5000000000000040E-002    -4.1049734968519206E-036
   4.6000000000000041E-002    -1.4013130826709408E-036
   4.7000000000000042E-002     2.4614284191548778E-036
   4.8000000000000043E-002     7.2508500752100220E-036
   4.8999999999999988E-002     1.2508110806019049E-035
   4.9999999999999989E-002     1.7547963914040742E-035
   5.0999999999999990E-002     2.1494933004823125E-035
   5.1999999999999991E-002     2.3361176649576014E-035
   5.2999999999999992E-002     2.2166919158945208E-035
   5.3999999999999992E-002     1.7097370182283594E-035
   5.4999999999999993E-002     7.6826792322320022E-036
   5.5999999999999994E-002    -6.0206354005077083E-036
   5.6999999999999995E-002    -2.3273185329887947E-035
   5.7999999999999996E-002    -4.2554944579277436E-035
   5.8999999999999997E-002    -6.1557625800350441E-035
   5.9999999999999998E-002    -7.7295721584843640E-035
   6.0999999999999999E-002    -8.6353755036270783E-035
   6.2000000000000000E-002    -8.5273034917484718E-035
   6.3000000000000000E-002    -7.1059442807527532E-035
   6.4000000000000001E-002    -4.1770709620123940E-035
   6.5000000000000002E-002     2.8805299297402883E-036
   6.6000000000000003E-002     6.0994794742985552E-035
   6.7000000000000004E-002     1.2812394808171752E-034
   6.8000000000000005E-002     1.9717951166448273E-034
   6.9000000000000006E-002     2.5869864117279076E-034
   7.0000000000000007E-002     3.0153289767391906E-034
   7.1000000000000008E-002     3.1397151053329536E-034
   7.2000000000000008E-002     2.8525882123526461E-034
   7.3000000000000009E-002     2.0739621061207888E-034
   7.4000000000000010E-002     7.7050532289556966E-035
   7.5000000000000011E-002    -1.0267944302375348E-034
   7.6000000000000012E-002    -3.2091218478527688E-034
   7.7000000000000013E-002    -5.5835251571867810E-034
   7.8000000000000014E-002    -7.8765624465135768E-034
   7.9000000000000015E-002    -9.7500129966215989E-034
   8.0000000000000016E-002    -1.0829534662184200E-033
   8.1000000000000016E-002    -1.0745797220077551E-033
   8.2000000000000017E-002    -9.1856434651127823E-034
   8.3000000000000018E-002    -5.9490001261825766E-034
   8.4000000000000019E-002    -1.0053002175682045E-034
   8.5000000000000020E-002     5.4577908835089641E-034
   8.6000000000000021E-002     1.3002586579892364E-033
   8.7000000000000022E-002     2.0933326459009619E-033
   8.8000000000000023E-002     2.8320474587623498E-033
   8.9000000000000024E-002     3.4060705539567366E-033
   9.0000000000000024E-002     3.6974245429897842E-033
   9.1000000000000025E-002     3.5936056166091632E-033
   9.2000000000000026E-002     3.0032031096620957E-033
   9.3000000000000027E-002     1.8727213762686032E-033
   9.4000000000000028E-002     2.0269797550544081E-034
   9.5000000000000029E-002    -1.9389255854485268E-033
   9.6000000000000030E-002    -4.4085541768569552E-033
   9.7000000000000031E-002    -6.9860496196457273E-033
   9.8000000000000032E-002    -9.3827393375986565E-033
   9.9000000000000032E-002    -1.1259733452161433E-032
  0.10000000000000003         -1.2256642293103194E-032
  0.10100000000000003         -1.2029408214829816E-032
  0.10200000000000004         -1.0295129400032679E-032
  0.10300000000000004         -6.8801206809060002E-033
  0.10400000000000004         -1.7662768730532105E-033
  0.10500000000000004          4.8697744464230452E-033
  0.10600000000000004          1.2631067365882119E-032
  0.10700000000000004          2.0894178456365363E-032
  0.10800000000000004          2.8827100530542371E-032
  0.10900000000000004          3.5435136146218988E-032
  0.11000000000000004          3.9635347908388607E-032
  0.11100000000000004          4.0357665677082335E-032
  0.11199999999999999          3.6667592014547467E-032
  0.11299999999999999          2.7901410484214998E-032
  0.11399999999999999          1.3802202102033252E-032
  0.11499999999999999         -5.3582026347640253E-033
  0.11599999999999999         -2.8686764137467800E-032
  0.11699999999999999         -5.4623994091118365E-032
  0.11799999999999999         -8.0958946680898154E-032
  0.11899999999999999         -1.0491810176075930E-031
  0.12000000000000000         -1.2333200917740984E-031
  0.12100000000000000         -1.3288225425594993E-031
  0.12200000000000000         -1.3041784210439547E-031
  0.12300000000000000         -1.1332480242493557E-031
  0.12400000000000000         -7.9920797090031931E-032
  0.12500000000000000         -2.9841878354990363E-032
  0.12600000000000000          3.5620476340507089E-032
  0.12700000000000000          1.1327594887970568E-031
  0.12800000000000000          1.9793338282395706E-031
  0.12900000000000000          2.8247465441646089E-031
  0.13000000000000000          3.5814287147099171E-031
  0.13100000000000001          4.1505172682905379E-031
  0.13200000000000001          4.4292791708197375E-031
  0.13300000000000001          4.3205017447811121E-031
  0.13400000000000001          3.7434475712816426E-031
  0.13500000000000001          2.6456110792520126E-031
  0.13600000000000001          1.0143162078106894E-031
  0.13700000000000001         -1.1130107135053667E-031
  0.13800000000000001         -3.6410714172795079E-031
  0.13900000000000001         -6.4129272984255310E-031
  0.14000000000000001         -9.2113354810668222E-031
  0.14100000000000001         -1.1766110704556685E-030
  0.14200000000000002         -1.3768259702651503E-030
  0.14300000000000002         -1.4891100370116481E-030
  0.14400000000000002         -1.4817523827709919E-030
  0.14500000000000002         -1.3272806701294328E-030
  0.14600000000000002         -1.0060390348689025E-030
  0.14700000000000002         -5.0985304225400638E-031
  0.14800000000000002          1.5459221256741202E-031
  0.14900000000000002          9.6298575493376429E-031
  0.15000000000000002          1.8717095621590570E-030
  0.15100000000000002          2.8175414690906656E-030
  0.15200000000000002          3.7191715910867250E-030
  0.15300000000000002          4.4806820341483770E-030
  0.15400000000000003          4.9972029035381892E-030
  0.15500000000000003          5.1626982141227111E-030
  0.15600000000000003          4.8795131614503087E-030
  0.15700000000000003          4.0693297291008255E-030
  0.15800000000000003          2.6847978761485560E-030
  0.15900000000000003          7.2086631528891600E-031
  0.16000000000000003         -1.7751913196851988E-030
  0.16100000000000003         -4.6963500767331101E-030
  0.16200000000000003         -7.8720723857623689E-030
  0.16300000000000003         -1.1069610365310144E-029
  0.16400000000000003         -1.4001108958747048E-029
  0.16500000000000004         -1.6337332699029207E-029
  0.16600000000000004         -1.7727992545091771E-029
  0.16700000000000004         -1.7828541134516604E-029
  0.16800000000000004         -1.6332331299705221E-029
  0.16900000000000004         -1.3006311975691817E-029
  0.17000000000000004         -7.7281858586913958E-030
  0.17100000000000004         -5.2184585879966456E-031
  0.17200000000000004          8.4123476449930585E-030
  0.17300000000000004          1.8676069176034905E-029
  0.17400000000000004          2.9664099857240000E-029
  0.17500000000000004          4.0571634189933618E-029
  0.17600000000000005          5.0420262146547730E-029
  0.17699999999999999          5.8104211049512304E-029
  0.17799999999999999          6.2458467819874144E-029
  0.17899999999999999          6.2346023603777691E-029
  0.17999999999999999          5.6761410562569010E-029
  0.18099999999999999          4.4945977807764024E-029
  0.18200000000000000          2.6506405305735715E-029
  0.18300000000000000          1.5285678088681200E-030
  0.18400000000000000         -2.9325244520585453E-029
  0.18500000000000000         -6.4745497591769334E-029
  0.18600000000000000         -1.0274561808289543E-028
  0.18700000000000000         -1.4067995001082768E-028
  0.18800000000000000         -1.7532196488414064E-028
  0.18900000000000000         -2.0300760505776160E-028
  0.19000000000000000         -2.1984355500086271E-028
  0.19100000000000000         -2.2198071131190209E-028
  0.19200000000000000         -2.0594378155448115E-028
  0.19300000000000000         -1.6899648872304924E-028
  0.19400000000000001         -1.0952768408556683E-028
  0.19500000000000001         -2.7426632688762568E-029
  0.19600000000000001          7.5582169739565954E-029
  0.19700000000000001          1.9568530366862778E-028
  0.19800000000000001          3.2683628194536341E-028
  0.19900000000000001          4.6076227249365682E-028
  0.20000000000000001          5.8715686584617543E-028
  0.20100000000000001          6.9406605557934955E-028
  0.20200000000000001          7.6850002199726950E-028
  0.20300000000000001          7.9723879677567108E-028
  0.20400000000000001          7.6784896137957791E-028
  0.20500000000000002          6.6983419761207822E-028
  0.20600000000000002          4.9588675689218809E-028
  0.20700000000000002          2.4314278139260321E-028
  0.20800000000000002         -8.5641849525411135E-029
  0.20900000000000002         -4.8110726679540950E-028
  0.21000000000000002         -9.2661506671980678E-028
  0.21100000000000002         -1.3980108799189213E-027
  0.21200000000000002         -1.8638839927060104E-027
  0.21300000000000002         -2.2864882966940194E-027
  0.21400000000000002         -2.6233180365278324E-027
  0.21500000000000002         -2.8293711627549148E-027
  0.21600000000000003         -2.8600835823920860E-027
  0.21700000000000003         -2.6748597736995702E-027
  0.21800000000000003         -2.2409874313859567E-027
  0.21900000000000003         -1.5378157716225511E-027
  0.22000000000000003         -5.6083859982197112E-028
  0.22100000000000003          6.7455951487877464E-028
  0.22200000000000003          2.1300904592580342E-027
  0.22300000000000003          3.7426673646477362E-027
  0.22400000000000003          5.4239171540644682E-027
  0.22500000000000003          7.0615646599122546E-027
  0.22600000000000003          8.5227777235547205E-027
  0.22700000000000004          9.6597674144073721E-027
  0.22800000000000004          1.0317652757458510E-026
  0.22900000000000004          1.0344464783772343E-026
  0.23000000000000004          9.6028669697585571E-027
  0.23100000000000004          7.9833825240303710E-027
  0.23200000000000004          5.4180719566835801E-027
  0.23300000000000004          1.8941642336639538E-027
  0.23400000000000004         -2.5336956569374251E-027
  0.23500000000000004         -7.7334291728714239E-027
  0.23600000000000004         -1.3489199463793487E-026
  0.23700000000000004         -1.9499786464169562E-026
  0.23800000000000004         -2.5382587242363583E-026
  0.23900000000000005         -3.0684526008586435E-026
  0.23999999999999999         -3.4899748788853007E-026
  0.24099999999999999         -3.7495249078450244E-026
  0.24199999999999999         -3.7942813627110661E-026
  0.24299999999999999         -3.5757591882450665E-026
  0.24399999999999999         -3.0541088909305065E-026
  0.24500000000000000         -2.2026621958646505E-026
  0.24600000000000000         -1.0125013540702033E-026
  0.24700000000000000          5.0333239242741177E-027
  0.24800000000000000          2.3062889365265580E-026
  0.24900000000000000          4.3298347171824403E-026
  0.25000000000000000          6.4784067853729080E-026
  0.25100000000000000          8.6281544412014378E-026
  0.25200000000000000          1.0629800857645706E-025
  0.25300000000000000          1.2313707043716159E-025
  0.25400000000000000          1.3497400227571425E-025
  0.25500000000000000          1.3995536306934647E-025
  0.25600000000000001          1.3631765426443649E-025
  0.25700000000000001          1.2252661535603912E-025
  0.25800000000000001          9.7425449619381687E-026
  0.25900000000000001          6.0388528726865592E-026
  0.26000000000000001          1.1468779544478487E-026
  0.26100000000000001         -4.8470905045868325E-026
  0.26200000000000001         -1.1765435156040316E-025
  0.26300000000000001         -1.9332919887853443E-025
  0.26400000000000001         -2.7175577792335179E-025
  0.26500000000000001         -3.4826051923972786E-025
  0.26600000000000001         -4.1735578589620215E-025
  0.26700000000000002         -4.7294498964628986E-025
  0.26800000000000002         -5.0859854433388989E-025
  0.26900000000000002         -5.1790611693936905E-025
  0.27000000000000002         -4.9490258781647832E-025
  0.27100000000000002         -4.3453717641192653E-025
  0.27200000000000002         -3.3318085139076037E-025
  0.27300000000000002         -1.8913733993962474E-025
  0.27400000000000002         -3.1282207937264460E-027
  0.27500000000000002          2.2128186875745114E-025
  0.27600000000000002          4.7736261071551385E-025
  0.27700000000000002          7.5502927409788469E-025
  0.27800000000000002          1.0408336293632909E-024
  0.27900000000000003          1.3181617235059041E-024
  0.28000000000000003          1.5676630450396844E-024
  0.28100000000000003          1.7679500957098905E-024
  0.28200000000000003          1.8965340288304801E-024
  0.28300000000000003          1.9310159278586057E-024
  0.28400000000000003          1.8504951203256603E-024
  0.28500000000000003          1.6371497592685023E-024
  0.28600000000000003          1.2779241967057223E-024
  0.28700000000000003          7.6624539705598511E-025
  0.28800000000000003          1.0365935513020029E-025
  0.28900000000000003         -6.9872595401331122E-025
  0.29000000000000004         -1.6191086089736321E-024
  0.29100000000000004         -2.6242662997211523E-024
  0.29200000000000004         -3.6694034611452800E-024
  0.29300000000000004         -4.6987012816687040E-024
  0.29400000000000004         -5.6465472415757917E-024
  0.29500000000000004         -6.4396510351756214E-024
  0.29600000000000004         -6.9999359432348406E-024
  0.29700000000000004         -7.2483285207663508E-024
  0.29800000000000004         -7.1092065892433953E-024
  0.29900000000000004         -6.5155197327353506E-024
  0.30000000000000004         -5.4143274958928273E-024
  0.30100000000000005         -3.7725253308282211E-024
  0.30200000000000005         -1.5824565535954555E-024
  0.30300000000000005          1.1329005995353531E-024
  0.30400000000000005          4.3156667136948430E-024