 -0.12000000000000000          0.0000000000000000     
 -0.11950000000000000          0.0000000000000000     
 -0.11899999999999999          0.0000000000000000     
 -0.11849999999999999          0.0000000000000000     
 -0.11799999999999999          0.0000000000000000     
 -0.11749999999999999          0.0000000000000000     
 -0.11699999999999999          0.0000000000000000     
 -0.11649999999999999          0.0000000000000000     
 -0.11599999999999999          0.0000000000000000     
 -0.11549999999999999          0.0000000000000000     
 -0.11499999999999999          0.0000000000000000     
 -0.11449999999999999          0.0000000000000000     
 -0.11399999999999999          0.0000000000000000     
 -0.11349999999999999          0.0000000000000000     
 -0.11299999999999999          0.0000000000000000     
 -0.11249999999999999          0.0000000000000000     
 -0.11199999999999999          0.0000000000000000     
 -0.11149999999999999          0.0000000000000000     
 -0.11099999999999999          0.0000000000000000     
 -0.11050000000000000          0.0000000000000000     
 -0.11000000000000000          0.0000000000000000     
 -0.10950000000000000          0.0000000000000000     
 -0.10900000000000000          0.0000000000000000     
 -0.10850000000000000          0.0000000000000000     
 -0.10800000000000000          0.0000000000000000     
 -0.10750000000000000          0.0000000000000000     
 -0.10700000000000000          0.0000000000000000     
 -0.10650000000000000          0.0000000000000000     
 -0.10600000000000000          0.0000000000000000     
 -0.10550000000000000          0.0000000000000000     
 -0.10500000000000000          0.0000000000000000     
 -0.10450000000000000          0.0000000000000000     
 -0.10400000000000000          0.0000000000000000     
 -0.10349999999999999          0.0000000000000000     
 -0.10299999999999999          0.0000000000000000     
 -0.10249999999999999          0.0000000000000000     
 -0.10199999999999999          0.0000000000000000     
 -0.10149999999999999          0.0000000000000000     
 -0.10099999999999999          0.0000000000000000     
 -0.10049999999999999          0.0000000000000000     
  -9.9999999999999992E-002     0.0000000000000000     
  -9.9499999999999991E-002     0.0000000000000000     
  -9.8999999999999991E-002     0.0000000000000000     
  -9.8499999999999990E-002     0.0000000000000000     
  -9.8000000000000004E-002     0.0000000000000000     
  -9.7500000000000003E-002     0.0000000000000000     
  -9.7000000000000003E-002     0.0000000000000000     
  -9.6500000000000002E-002     0.0000000000000000     
  -9.6000000000000002E-002     0.0000000000000000     
  -9.5500000000000002E-002     0.0000000000000000     
  -9.5000000000000001E-002     0.0000000000000000     
  -9.4500000000000001E-002     0.0000000000000000     
  -9.4000000000000000E-002     0.0000000000000000     
  -9.3500000000000000E-002     0.0000000000000000     
  -9.2999999999999999E-002     0.0000000000000000     
  -9.2499999999999999E-002     0.0000000000000000     
  -9.1999999999999998E-002     0.0000000000000000     
  -9.1499999999999998E-002     0.0000000000000000     
  -9.0999999999999998E-002     0.0000000000000000     
  -9.0499999999999997E-002     0.0000000000000000     
  -8.9999999999999997E-002     0.0000000000000000     
  -8.9499999999999996E-002     0.0000000000000000     
  -8.8999999999999996E-002     0.0000000000000000     
  -8.8499999999999995E-002     0.0000000000000000     
  -8.7999999999999995E-002     0.0000000000000000     
  -8.7499999999999994E-002     0.0000000000000000     
  -8.6999999999999994E-002     0.0000000000000000     
  -8.6499999999999994E-002     0.0000000000000000     
  -8.5999999999999993E-002     0.0000000000000000     
  -8.5499999999999993E-002     0.0000000000000000     
  -8.4999999999999992E-002     0.0000000000000000     
  -8.4499999999999992E-002     0.0000000000000000     
  -8.3999999999999991E-002     0.0000000000000000     
  -8.3499999999999991E-002     0.0000000000000000     
  -8.2999999999999990E-002     0.0000000000000000     
  -8.2499999999999990E-002     0.0000000000000000     
  -8.1999999999999990E-002     0.0000000000000000     
  -8.1499999999999989E-002     0.0000000000000000     
  -8.0999999999999989E-002     0.0000000000000000     
  -8.0499999999999988E-002     0.0000000000000000     
  -7.9999999999999988E-002     0.0000000000000000     
  -7.9499999999999987E-002     0.0000000000000000     
  -7.8999999999999987E-002     0.0000000000000000     
  -7.8499999999999986E-002     0.0000000000000000     
  -7.7999999999999986E-002     0.0000000000000000     
  -7.7499999999999986E-002     0.0000000000000000     
  -7.6999999999999985E-002     0.0000000000000000     
  -7.6499999999999985E-002     0.0000000000000000     
  -7.5999999999999998E-002     0.0000000000000000     
  -7.5499999999999998E-002     0.0000000000000000     
  -7.4999999999999997E-002     0.0000000000000000     
  -7.4499999999999997E-002     0.0000000000000000     
  -7.3999999999999996E-002     0.0000000000000000     
  -7.3499999999999996E-002     0.0000000000000000     
  -7.2999999999999995E-002     0.0000000000000000     
  -7.2499999999999995E-002     0.0000000000000000     
  -7.1999999999999995E-002     0.0000000000000000     
  -7.1499999999999994E-002     0.0000000000000000     
  -7.0999999999999994E-002     0.0000000000000000     
  -7.0499999999999993E-002     0.0000000000000000     
  -6.9999999999999993E-002     0.0000000000000000     
  -6.9499999999999992E-002     0.0000000000000000     
  -6.8999999999999992E-002     0.0000000000000000     
  -6.8499999999999991E-002     0.0000000000000000     
  -6.7999999999999991E-002     0.0000000000000000     
  -6.7500000000000004E-002     0.0000000000000000     
  -6.7000000000000004E-002     0.0000000000000000     
  -6.6500000000000004E-002     0.0000000000000000     
  -6.6000000000000003E-002     0.0000000000000000     
  -6.5500000000000003E-002     0.0000000000000000     
  -6.5000000000000002E-002     0.0000000000000000     
  -6.4500000000000002E-002     0.0000000000000000     
  -6.4000000000000001E-002     0.0000000000000000     
  -6.3500000000000001E-002     0.0000000000000000     
  -6.3000000000000000E-002     0.0000000000000000     
  -6.2499999999999993E-002     0.0000000000000000     
  -6.1999999999999993E-002     0.0000000000000000     
  -6.1499999999999992E-002     0.0000000000000000     
  -6.0999999999999992E-002     0.0000000000000000     
  -6.0499999999999991E-002     0.0000000000000000     
  -5.9999999999999998E-002     0.0000000000000000     
  -5.9499999999999997E-002     0.0000000000000000     
  -5.8999999999999997E-002     0.0000000000000000     
  -5.8499999999999996E-002     0.0000000000000000     
  -5.7999999999999996E-002     0.0000000000000000     
  -5.7499999999999996E-002     0.0000000000000000     
  -5.6999999999999995E-002     0.0000000000000000     
  -5.6499999999999995E-002     0.0000000000000000     
  -5.5999999999999994E-002     0.0000000000000000     
  -5.5499999999999994E-002     0.0000000000000000     
  -5.4999999999999993E-002     0.0000000000000000     
  -5.4499999999999993E-002     0.0000000000000000     
  -5.3999999999999992E-002     0.0000000000000000     
  -5.3499999999999992E-002     0.0000000000000000     
  -5.2999999999999992E-002     0.0000000000000000     
  -5.2499999999999991E-002     0.0000000000000000     
  -5.1999999999999991E-002     0.0000000000000000     
  -5.1499999999999990E-002     0.0000000000000000     
  -5.0999999999999990E-002     0.0000000000000000     
  -5.0499999999999989E-002     0.0000000000000000     
  -4.9999999999999989E-002     0.0000000000000000     
  -4.9499999999999988E-002     0.0000000000000000     
  -4.8999999999999988E-002     0.0000000000000000     
  -4.8499999999999988E-002     0.0000000000000000     
  -4.7999999999999987E-002     0.0000000000000000     
  -4.7500000000000001E-002     0.0000000000000000     
  -4.7000000000000000E-002     0.0000000000000000     
  -4.6500000000000000E-002     0.0000000000000000     
  -4.5999999999999999E-002     0.0000000000000000     
  -4.5499999999999999E-002     0.0000000000000000     
  -4.4999999999999998E-002     0.0000000000000000     
  -4.4499999999999998E-002     0.0000000000000000     
  -4.3999999999999997E-002     0.0000000000000000     
  -4.3499999999999997E-002     0.0000000000000000     
  -4.2999999999999997E-002     0.0000000000000000     
  -4.2499999999999996E-002     0.0000000000000000     
  -4.1999999999999996E-002     0.0000000000000000     
  -4.1499999999999995E-002     0.0000000000000000     
  -4.0999999999999995E-002     0.0000000000000000     
  -4.0499999999999994E-002     0.0000000000000000     
  -3.9999999999999994E-002     0.0000000000000000     
  -3.9499999999999993E-002     0.0000000000000000     
  -3.8999999999999993E-002     0.0000000000000000     
  -3.8499999999999993E-002     0.0000000000000000     
  -3.7999999999999992E-002     0.0000000000000000     
  -3.7499999999999992E-002     0.0000000000000000     
  -3.6999999999999991E-002     0.0000000000000000     
  -3.6499999999999991E-002     0.0000000000000000     
  -3.5999999999999990E-002     0.0000000000000000     
  -3.5499999999999990E-002     0.0000000000000000     
  -3.4999999999999989E-002     0.0000000000000000     
  -3.4499999999999989E-002     0.0000000000000000     
  -3.3999999999999989E-002     0.0000000000000000     
  -3.3499999999999988E-002     0.0000000000000000     
  -3.2999999999999988E-002     0.0000000000000000     
  -3.2499999999999987E-002     0.0000000000000000     
  -3.2000000000000001E-002     0.0000000000000000     
  -3.1500000000000000E-002     0.0000000000000000     
  -3.1000000000000000E-002     0.0000000000000000     
  -3.0499999999999999E-002     0.0000000000000000     
  -2.9999999999999999E-002     0.0000000000000000     
  -2.9499999999999998E-002     0.0000000000000000     
  -2.8999999999999998E-002     0.0000000000000000     
  -2.8499999999999998E-002     0.0000000000000000     
  -2.7999999999999997E-002     0.0000000000000000     
  -2.7499999999999997E-002     0.0000000000000000     
  -2.6999999999999996E-002     0.0000000000000000     
  -2.6499999999999996E-002     0.0000000000000000     
  -2.5999999999999995E-002     0.0000000000000000     
  -2.5499999999999995E-002     0.0000000000000000     
  -2.4999999999999994E-002     0.0000000000000000     
  -2.4499999999999994E-002     0.0000000000000000     
  -2.3999999999999994E-002     0.0000000000000000     
  -2.3499999999999993E-002     0.0000000000000000     
  -2.2999999999999993E-002     0.0000000000000000     
  -2.2499999999999992E-002     0.0000000000000000     
  -2.1999999999999992E-002     0.0000000000000000     
  -2.1499999999999991E-002     0.0000000000000000     
  -2.0999999999999991E-002     0.0000000000000000     
  -2.0499999999999990E-002     0.0000000000000000     
  -1.9999999999999990E-002     0.0000000000000000     
  -1.9499999999999990E-002     0.0000000000000000     
  -1.8999999999999989E-002     0.0000000000000000     
  -1.8499999999999989E-002     0.0000000000000000     
  -1.7999999999999988E-002     0.0000000000000000     
  -1.7499999999999988E-002     0.0000000000000000     
  -1.6999999999999987E-002     0.0000000000000000     
  -1.6499999999999987E-002     0.0000000000000000     
  -1.5999999999999986E-002     0.0000000000000000     
  -1.5500000000000000E-002     0.0000000000000000     
  -1.4999999999999999E-002     0.0000000000000000     
  -1.4499999999999999E-002     0.0000000000000000     
  -1.3999999999999999E-002     0.0000000000000000     
  -1.3499999999999998E-002     0.0000000000000000     
  -1.2999999999999998E-002     0.0000000000000000     
  -1.2499999999999997E-002     0.0000000000000000     
  -1.1999999999999997E-002     0.0000000000000000     
  -1.1499999999999996E-002     0.0000000000000000     
  -1.0999999999999996E-002     0.0000000000000000     
  -1.0499999999999995E-002     0.0000000000000000     
  -9.9999999999999950E-003     0.0000000000000000     
  -9.4999999999999946E-003     0.0000000000000000     
  -8.9999999999999941E-003     0.0000000000000000     
  -8.4999999999999937E-003     0.0000000000000000     
  -7.9999999999999932E-003     0.0000000000000000     
  -7.4999999999999928E-003     0.0000000000000000     
  -6.9999999999999923E-003     0.0000000000000000     
  -6.4999999999999919E-003     0.0000000000000000     
  -5.9999999999999915E-003     0.0000000000000000     
  -5.4999999999999910E-003     0.0000000000000000     
  -4.9999999999999906E-003     0.0000000000000000     
  -4.4999999999999901E-003     0.0000000000000000     
  -3.9999999999999897E-003     0.0000000000000000     
  -3.4999999999999892E-003     0.0000000000000000     
  -2.9999999999999888E-003     0.0000000000000000     
  -2.4999999999999883E-003     0.0000000000000000     
  -1.9999999999999879E-003     0.0000000000000000     
  -1.4999999999999875E-003     0.0000000000000000     
  -9.9999999999998701E-004     0.0000000000000000     
  -4.9999999999998657E-004     0.0000000000000000     
   0.0000000000000000          0.0000000000000000     
   5.0000000000000044E-004     0.0000000000000000     
   1.0000000000000009E-003     0.0000000000000000     
   1.5000000000000013E-003     0.0000000000000000     
   2.0000000000000018E-003     0.0000000000000000     
   2.5000000000000022E-003     0.0000000000000000     
   3.0000000000000027E-003     0.0000000000000000     
   3.5000000000000031E-003     0.0000000000000000     
   4.0000000000000036E-003     0.0000000000000000     
   4.5000000000000040E-003     0.0000000000000000     
   5.0000000000000044E-003     0.0000000000000000     
   5.5000000000000049E-003     0.0000000000000000     
   6.0000000000000053E-003     0.0000000000000000     
   6.5000000000000058E-003     0.0000000000000000     
   7.0000000000000062E-003     0.0000000000000000     
   7.5000000000000067E-003     0.0000000000000000     
   8.0000000000000071E-003     0.0000000000000000     
   8.5000000000000075E-003     0.0000000000000000     
   9.0000000000000080E-003     0.0000000000000000     
   9.5000000000000084E-003     0.0000000000000000     
   1.0000000000000009E-002     0.0000000000000000     
   1.0500000000000009E-002     0.0000000000000000     
   1.1000000000000010E-002     0.0000000000000000     
   1.1500000000000010E-002     0.0000000000000000     
   1.2000000000000011E-002     0.0000000000000000     
   1.2500000000000011E-002     0.0000000000000000     
   1.3000000000000012E-002     0.0000000000000000     
   1.3500000000000012E-002     0.0000000000000000     
   1.4000000000000012E-002     0.0000000000000000     
   1.4500000000000013E-002     0.0000000000000000     
   1.5000000000000013E-002     0.0000000000000000     
   1.5500000000000014E-002     0.0000000000000000     
   1.6000000000000014E-002     0.0000000000000000     
   1.6500000000000015E-002     0.0000000000000000     
   1.7000000000000015E-002     0.0000000000000000     
   1.7500000000000016E-002     0.0000000000000000     
   1.8000000000000016E-002     0.0000000000000000     
   1.8500000000000016E-002     0.0000000000000000     
   1.9000000000000017E-002     0.0000000000000000     
   1.9500000000000017E-002     0.0000000000000000     
   2.0000000000000018E-002     0.0000000000000000     
   2.0500000000000018E-002     0.0000000000000000     
   2.1000000000000019E-002     0.0000000000000000     
   2.1500000000000019E-002     0.0000000000000000     
   2.2000000000000020E-002     0.0000000000000000     
   2.2500000000000020E-002     0.0000000000000000     
   2.3000000000000020E-002     0.0000000000000000     
   2.3500000000000021E-002     0.0000000000000000     
   2.4000000000000021E-002     0.0000000000000000     
   2.4499999999999994E-002     0.0000000000000000     
   2.4999999999999994E-002     0.0000000000000000     
   2.5499999999999995E-002     0.0000000000000000     
   2.5999999999999995E-002     0.0000000000000000     
   2.6499999999999996E-002     0.0000000000000000     
   2.6999999999999996E-002     0.0000000000000000     
   2.7499999999999997E-002     0.0000000000000000     
   2.7999999999999997E-002     0.0000000000000000     
   2.8499999999999998E-002     0.0000000000000000     
   2.8999999999999998E-002     0.0000000000000000     
   2.9499999999999998E-002     0.0000000000000000     
   2.9999999999999999E-002     0.0000000000000000     
   3.0499999999999999E-002     0.0000000000000000     
   3.1000000000000000E-002     0.0000000000000000     
   3.1500000000000000E-002     0.0000000000000000     
   3.2000000000000001E-002     0.0000000000000000     
   3.2500000000000001E-002     0.0000000000000000     
   3.3000000000000002E-002     0.0000000000000000     
   3.3500000000000002E-002     0.0000000000000000     
   3.4000000000000002E-002     0.0000000000000000     
   3.4500000000000003E-002     0.0000000000000000     
   3.5000000000000003E-002     0.0000000000000000     
   3.5500000000000004E-002     0.0000000000000000     
   3.6000000000000004E-002     0.0000000000000000     
   3.6500000000000005E-002     0.0000000000000000     
   3.7000000000000005E-002     0.0000000000000000     
   3.7500000000000006E-002     0.0000000000000000     
   3.8000000000000006E-002     0.0000000000000000     
   3.8500000000000006E-002     0.0000000000000000     
   3.9000000000000007E-002     0.0000000000000000     
   3.9500000000000007E-002     0.0000000000000000     
   4.0000000000000008E-002     0.0000000000000000     
   4.0500000000000008E-002     0.0000000000000000     
   4.1000000000000009E-002     0.0000000000000000     
   4.1500000000000009E-002     0.0000000000000000     
   4.2000000000000010E-002     0.0000000000000000     
   4.2500000000000010E-002     0.0000000000000000     
   4.3000000000000010E-002     0.0000000000000000     
   4.3500000000000011E-002     0.0000000000000000     
   4.4000000000000011E-002     0.0000000000000000     
   4.4500000000000012E-002     0.0000000000000000     
   4.5000000000000012E-002     0.0000000000000000     
   4.5500000000000013E-002     0.0000000000000000     
   4.6000000000000013E-002     0.0000000000000000     
   4.6500000000000014E-002     0.0000000000000000     
   4.7000000000000014E-002     0.0000000000000000     
   4.7500000000000014E-002     0.0000000000000000     
   4.8000000000000015E-002     0.0000000000000000     
   4.8500000000000015E-002     0.0000000000000000     
   4.9000000000000016E-002     0.0000000000000000     
   4.9500000000000016E-002     0.0000000000000000     
   5.0000000000000017E-002     0.0000000000000000     
   5.0500000000000017E-002     0.0000000000000000     
   5.1000000000000018E-002     0.0000000000000000     
   5.1500000000000018E-002     0.0000000000000000     
   5.2000000000000018E-002     0.0000000000000000     
   5.2500000000000019E-002     0.0000000000000000     
   5.3000000000000019E-002     0.0000000000000000     
   5.3500000000000020E-002     0.0000000000000000     
   5.4000000000000020E-002     0.0000000000000000     
   5.4500000000000021E-002     0.0000000000000000     
   5.5000000000000021E-002     0.0000000000000000     
   5.5500000000000022E-002     0.0000000000000000     
   5.5999999999999994E-002     0.0000000000000000     
   5.6499999999999995E-002     0.0000000000000000     
   5.6999999999999995E-002     0.0000000000000000     
   5.7499999999999996E-002     0.0000000000000000     
   5.7999999999999996E-002     0.0000000000000000     
   5.8499999999999996E-002     0.0000000000000000     
   5.8999999999999997E-002     0.0000000000000000     
   5.9499999999999997E-002     0.0000000000000000     
   5.9999999999999998E-002     0.0000000000000000     
   6.0499999999999998E-002     0.0000000000000000     
   6.0999999999999999E-002     0.0000000000000000     
   6.1499999999999999E-002     0.0000000000000000     
   6.2000000000000000E-002     0.0000000000000000     
   6.2500000000000000E-002     0.0000000000000000     
   6.3000000000000000E-002     0.0000000000000000     
   6.3500000000000001E-002     0.0000000000000000     
   6.4000000000000001E-002     0.0000000000000000     
   6.4500000000000002E-002     0.0000000000000000     
   6.5000000000000002E-002     0.0000000000000000     
   6.5500000000000003E-002     0.0000000000000000     
   6.6000000000000003E-002     0.0000000000000000     
   6.6500000000000004E-002     0.0000000000000000     
   6.7000000000000004E-002     0.0000000000000000     
   6.7500000000000004E-002     0.0000000000000000     
   6.8000000000000005E-002     0.0000000000000000     
   6.8500000000000005E-002     0.0000000000000000     
   6.9000000000000006E-002     0.0000000000000000     
   6.9500000000000006E-002     0.0000000000000000     
   7.0000000000000007E-002     0.0000000000000000     
   7.0500000000000007E-002     0.0000000000000000     
   7.1000000000000008E-002     0.0000000000000000     
   7.1500000000000008E-002     0.0000000000000000     
   7.2000000000000008E-002     0.0000000000000000     
   7.2500000000000009E-002     0.0000000000000000     
   7.3000000000000009E-002     0.0000000000000000     
   7.3500000000000010E-002     0.0000000000000000     
   7.4000000000000010E-002     0.0000000000000000     
   7.4500000000000011E-002     0.0000000000000000     
   7.5000000000000011E-002     0.0000000000000000     
   7.5500000000000012E-002     0.0000000000000000     
   7.6000000000000012E-002     0.0000000000000000     
   7.6500000000000012E-002     0.0000000000000000     
   7.7000000000000013E-002     0.0000000000000000     
   7.7500000000000013E-002     0.0000000000000000     
   7.8000000000000014E-002     0.0000000000000000     
   7.8500000000000014E-002     0.0000000000000000     
   7.9000000000000015E-002     0.0000000000000000     
   7.9500000000000015E-002     0.0000000000000000     
   8.0000000000000016E-002     0.0000000000000000     
   8.0500000000000016E-002     0.0000000000000000     
   8.1000000000000016E-002     0.0000000000000000     
   8.1500000000000017E-002     0.0000000000000000     
   8.2000000000000017E-002     0.0000000000000000     
   8.2500000000000018E-002     0.0000000000000000     
   8.3000000000000018E-002     0.0000000000000000     
   8.3500000000000019E-002     0.0000000000000000     
   8.4000000000000019E-002     0.0000000000000000     
   8.4500000000000020E-002     0.0000000000000000     
   8.5000000000000020E-002     0.0000000000000000     
   8.5500000000000020E-002     0.0000000000000000     
   8.6000000000000021E-002     0.0000000000000000     
   8.6500000000000021E-002     0.0000000000000000     
   8.7000000000000022E-002     0.0000000000000000     
   8.7500000000000022E-002     0.0000000000000000     
   8.8000000000000023E-002     0.0000000000000000     
   8.8499999999999995E-002     0.0000000000000000     
   8.8999999999999996E-002     0.0000000000000000     
   8.9499999999999996E-002     0.0000000000000000     
   8.9999999999999997E-002     0.0000000000000000     
   9.0499999999999997E-002     0.0000000000000000     
   9.0999999999999998E-002     0.0000000000000000     
   9.1499999999999998E-002     0.0000000000000000     
   9.1999999999999998E-002     0.0000000000000000     
   9.2499999999999999E-002     0.0000000000000000     
   9.2999999999999999E-002     0.0000000000000000     
   9.3500000000000000E-002     0.0000000000000000     
   9.4000000000000000E-002     0.0000000000000000     
   9.4500000000000001E-002     0.0000000000000000     
   9.5000000000000001E-002     0.0000000000000000     
   9.5500000000000002E-002     0.0000000000000000     
   9.6000000000000002E-002     0.0000000000000000     
   9.6500000000000002E-002     0.0000000000000000     
   9.7000000000000003E-002     0.0000000000000000     
   9.7500000000000003E-002     0.0000000000000000     
   9.8000000000000004E-002     0.0000000000000000     
   9.8500000000000004E-002     0.0000000000000000     
   9.9000000000000005E-002     0.0000000000000000     
   9.9500000000000005E-002     0.0000000000000000     
  0.10000000000000001          0.0000000000000000     
  0.10050000000000001          0.0000000000000000     
  0.10100000000000001          0.0000000000000000     
  0.10150000000000001          0.0000000000000000     
  0.10200000000000001          0.0000000000000000     
  0.10250000000000001          0.0000000000000000     
  0.10300000000000001          0.0000000000000000     
  0.10350000000000001          0.0000000000000000     
  0.10400000000000001          0.0000000000000000     
  0.10450000000000001          0.0000000000000000     
  0.10500000000000001          0.0000000000000000     
  0.10550000000000001          0.0000000000000000     
  0.10600000000000001          0.0000000000000000     
  0.10650000000000001          0.0000000000000000     
  0.10700000000000001          0.0000000000000000     
  0.10750000000000001          0.0000000000000000     
  0.10800000000000001          0.0000000000000000     
  0.10850000000000001          0.0000000000000000     
  0.10900000000000001          0.0000000000000000     
  0.10950000000000001          0.0000000000000000     
  0.11000000000000001          0.0000000000000000     
  0.11050000000000001          0.0000000000000000     
  0.11100000000000002          0.0000000000000000     
  0.11150000000000002          0.0000000000000000     
  0.11200000000000002          0.0000000000000000     
  0.11250000000000002          0.0000000000000000     
  0.11300000000000002          0.0000000000000000     
  0.11350000000000002          0.0000000000000000     
  0.11400000000000002          0.0000000000000000     
  0.11450000000000002          0.0000000000000000     
  0.11500000000000002          0.0000000000000000     
  0.11550000000000002          0.0000000000000000     
  0.11600000000000002          0.0000000000000000     
  0.11650000000000002          0.0000000000000000     
  0.11700000000000002          0.0000000000000000     
  0.11750000000000002          0.0000000000000000     
  0.11800000000000002          0.0000000000000000     
  0.11850000000000002          0.0000000000000000     
  0.11900000000000002          0.0000000000000000     
  0.11950000000000002          0.0000000000000000     
  0.12000000000000000          0.0000000000000000     
  0.12050000000000000          0.0000000000000000     
  0.12100000000000000          0.0000000000000000     
  0.12150000000000000          0.0000000000000000     
  0.12200000000000000          0.0000000000000000     
  0.12250000000000000          0.0000000000000000     
  0.12300000000000000          0.0000000000000000     
  0.12350000000000000          0.0000000000000000     
  0.12400000000000000          0.0000000000000000     
  0.12450000000000000          0.0000000000000000     
  0.12500000000000000          0.0000000000000000     
  0.12550000000000000          0.0000000000000000     
  0.12600000000000000          0.0000000000000000     
  0.12650000000000000          0.0000000000000000     
  0.12700000000000000          0.0000000000000000     
  0.12750000000000000          0.0000000000000000     
  0.12800000000000000          0.0000000000000000     
  0.12850000000000000          0.0000000000000000     
  0.12900000000000000          0.0000000000000000     
  0.12950000000000000          0.0000000000000000     
  0.13000000000000000          0.0000000000000000     
  0.13050000000000000          0.0000000000000000     
  0.13100000000000001          0.0000000000000000     
  0.13150000000000001          0.0000000000000000     
  0.13200000000000001          0.0000000000000000     
  0.13250000000000001          0.0000000000000000     
  0.13300000000000001          0.0000000000000000     
  0.13350000000000001          0.0000000000000000     
  0.13400000000000001          0.0000000000000000     
  0.13450000000000001          0.0000000000000000     
  0.13500000000000001          0.0000000000000000     
  0.13550000000000001          0.0000000000000000     
  0.13600000000000001          0.0000000000000000     
  0.13650000000000001          0.0000000000000000     
  0.13700000000000001          0.0000000000000000     
  0.13750000000000001          0.0000000000000000     
  0.13800000000000001          0.0000000000000000     
  0.13850000000000001          0.0000000000000000     
  0.13900000000000001          0.0000000000000000     
  0.13950000000000001          0.0000000000000000     
  0.14000000000000001          0.0000000000000000     
  0.14050000000000001          0.0000000000000000     
  0.14100000000000001          0.0000000000000000     
  0.14150000000000001          0.0000000000000000     
  0.14200000000000002          0.0000000000000000     
  0.14250000000000002          0.0000000000000000     
  0.14300000000000002          0.0000000000000000     
  0.14350000000000002          0.0000000000000000     
  0.14400000000000002          0.0000000000000000     
  0.14450000000000002          0.0000000000000000     
  0.14500000000000002          0.0000000000000000     
  0.14550000000000002          0.0000000000000000     
  0.14600000000000002          0.0000000000000000     
  0.14650000000000002          0.0000000000000000     
  0.14700000000000002          0.0000000000000000     
  0.14750000000000002          0.0000000000000000     
  0.14800000000000002          0.0000000000000000     
  0.14850000000000002          0.0000000000000000     
  0.14900000000000002          0.0000000000000000     
  0.14950000000000002          0.0000000000000000     
  0.15000000000000002          0.0000000000000000     
  0.15050000000000002          0.0000000000000000     
  0.15100000000000002          0.0000000000000000     
  0.15150000000000002          0.0000000000000000     
  0.15200000000000002          0.0000000000000000     