-0.1200000E+00  0.0000000E+00
-0.1195000E+00  0.0000000E+00
-0.1190000E+00  0.0000000E+00
-0.1185000E+00  0.0000000E+00
-0.1180000E+00  0.0000000E+00
-0.1175000E+00  0.0000000E+00
-0.1170000E+00  0.0000000E+00
-0.1165000E+00  0.0000000E+00
-0.1160000E+00  0.0000000E+00
-0.1155000E+00  0.0000000E+00
-0.1150000E+00  0.0000000E+00
-0.1145000E+00  0.0000000E+00
-0.1140000E+00  0.0000000E+00
-0.1135000E+00  0.0000000E+00
-0.1130000E+00  0.0000000E+00
-0.1125000E+00  0.0000000E+00
-0.1120000E+00  0.0000000E+00
-0.1115000E+00  0.0000000E+00
-0.1110000E+00  0.0000000E+00
-0.1105000E+00  0.0000000E+00
-0.1100000E+00  0.0000000E+00
-0.1095000E+00  0.0000000E+00
-0.1090000E+00  0.0000000E+00
-0.1085000E+00  0.0000000E+00
-0.1080000E+00  0.0000000E+00
-0.1075000E+00  0.0000000E+00
-0.1070000E+00  0.0000000E+00
-0.1065000E+00  0.0000000E+00
-0.1060000E+00  0.0000000E+00
-0.1055000E+00  0.0000000E+00
-0.1050000E+00  0.0000000E+00
-0.1045000E+00  0.0000000E+00
-0.1040000E+00  0.0000000E+00
-0.1035000E+00  0.0000000E+00
-0.1030000E+00  0.0000000E+00
-0.1025000E+00  0.0000000E+00
-0.1020000E+00  0.0000000E+00
-0.1015000E+00  0.0000000E+00
-0.1010000E+00  0.0000000E+00
-0.1005000E+00  0.0000000E+00
-0.1000000E+00  0.0000000E+00
-0.9950000E-01  0.0000000E+00
-0.9900000E-01  0.0000000E+00
-0.9850000E-01  0.0000000E+00
-0.9800000E-01  0.0000000E+00
-0.9750000E-01  0.0000000E+00
-0.9700000E-01  0.0000000E+00
-0.9650000E-01  0.0000000E+00
-0.9600000E-01  0.0000000E+00
-0.9550000E-01  0.0000000E+00
-0.9500000E-01  0.0000000E+00
-0.9450000E-01  0.0000000E+00
-0.9400000E-01  0.0000000E+00
-0.9350000E-01  0.0000000E+00
-0.9300000E-01  0.0000000E+00
-0.9250000E-01  0.0000000E+00
-0.9200000E-01  0.0000000E+00
-0.9150000E-01  0.0000000E+00
-0.9100000E-01  0.0000000E+00
-0.9050000E-01  0.0000000E+00
-0.9000000E-01  0.0000000E+00
-0.8950000E-01  0.0000000E+00
-0.8900000E-01  0.0000000E+00
-0.8850000E-01  0.0000000E+00
-0.8800000E-01  0.0000000E+00
-0.8750000E-01  0.0000000E+00
-0.8700000E-01  0.0000000E+00
-0.8650000E-01  0.0000000E+00
-0.8600000E-01  0.0000000E+00
-0.8550000E-01  0.0000000E+00
-0.8500000E-01  0.0000000E+00
-0.8450000E-01  0.0000000E+00
-0.8400000E-01  0.0000000E+00
-0.8350000E-01  0.0000000E+00
-0.8300000E-01  0.0000000E+00
-0.8250000E-01  0.0000000E+00
-0.8200000E-01  0.0000000E+00
-0.8150000E-01  0.0000000E+00
-0.8100000E-01  0.0000000E+00
-0.8050000E-01  0.0000000E+00
-0.8000000E-01  0.0000000E+00
-0.7950000E-01  0.0000000E+00
-0.7900000E-01  0.0000000E+00
-0.7850000E-01  0.0000000E+00
-0.7800000E-01  0.0000000E+00
-0.7750000E-01  0.0000000E+00
-0.7700000E-01  0.0000000E+00
-0.7650000E-01  0.0000000E+00
-0.7600000E-01  0.0000000E+00
-0.7550000E-01  0.0000000E+00
-0.7500000E-01  0.0000000E+00
-0.7450000E-01  0.0000000E+00
-0.7400000E-01  0.0000000E+00
-0.7350000E-01  0.0000000E+00
-0.7300000E-01  0.0000000E+00
-0.7250000E-01  0.0000000E+00
-0.7200000E-01  0.0000000E+00
-0.7150000E-01  0.0000000E+00
-0.7100000E-01  0.0000000E+00
-0.7050000E-01  0.0000000E+00
-0.7000000E-01  0.0000000E+00
-0.6950000E-01  0.0000000E+00
-0.6900000E-01  0.0000000E+00
-0.6850000E-01  0.0000000E+00
-0.6800000E-01  0.0000000E+00
-0.6750000E-01  0.0000000E+00
-0.6700000E-01  0.0000000E+00
-0.6650000E-01  0.0000000E+00
-0.6600000E-01  0.0000000E+00
-0.6550000E-01  0.0000000E+00
-0.6500000E-01  0.0000000E+00
-0.6450000E-01  0.0000000E+00
-0.6400000E-01  0.0000000E+00
-0.6350000E-01  0.0000000E+00
-0.6300000E-01  0.0000000E+00
-0.6250000E-01  0.0000000E+00
-0.6200000E-01  0.0000000E+00
-0.6150000E-01  0.0000000E+00
-0.6100000E-01  0.0000000E+00
-0.6050000E-01  0.0000000E+00
-0.6000000E-01  0.0000000E+00
-0.5950000E-01  0.0000000E+00
-0.5900000E-01  0.0000000E+00
-0.5850000E-01  0.0000000E+00
-0.5800000E-01  0.0000000E+00
-0.5750000E-01  0.0000000E+00
-0.5700000E-01  0.0000000E+00
-0.5650000E-01  0.0000000E+00
-0.5600000E-01  0.0000000E+00
-0.5550000E-01  0.0000000E+00
-0.5500000E-01  0.0000000E+00
-0.5450000E-01  0.0000000E+00
-0.5400000E-01  0.0000000E+00
-0.5350000E-01  0.0000000E+00
-0.5300000E-01  0.0000000E+00
-0.5250000E-01  0.0000000E+00
-0.5200000E-01  0.0000000E+00
-0.5150000E-01  0.0000000E+00
-0.5100000E-01  0.0000000E+00
-0.5050000E-01  0.0000000E+00
-0.5000000E-01  0.0000000E+00
-0.4950000E-01  0.0000000E+00
-0.4900000E-01  0.0000000E+00
-0.4850000E-01  0.0000000E+00
-0.4800000E-01  0.0000000E+00
-0.4750000E-01  0.0000000E+00
-0.4700000E-01  0.0000000E+00
-0.4650000E-01  0.0000000E+00
-0.4600000E-01  0.0000000E+00
-0.4550000E-01  0.0000000E+00
-0.4500000E-01  0.0000000E+00
-0.4450000E-01  0.0000000E+00
-0.4400000E-01  0.0000000E+00
-0.4350000E-01  0.0000000E+00
-0.4300000E-01  0.0000000E+00
-0.4250000E-01  0.0000000E+00
-0.4200000E-01  0.0000000E+00
-0.4150000E-01  0.0000000E+00
-0.4100000E-01  0.0000000E+00
-0.4050000E-01  0.0000000E+00
-0.4000000E-01  0.0000000E+00
-0.3950000E-01  0.0000000E+00
-0.3900000E-01  0.0000000E+00
-0.3850000E-01  0.0000000E+00
-0.3800000E-01  0.0000000E+00
-0.3750000E-01  0.0000000E+00
-0.3700000E-01  0.0000000E+00
-0.3650000E-01  0.0000000E+00
-0.3600000E-01  0.0000000E+00
-0.3550000E-01  0.0000000E+00
-0.3500000E-01  0.0000000E+00
-0.3450000E-01  0.0000000E+00
-0.3400000E-01  0.0000000E+00
-0.3350000E-01  0.0000000E+00
-0.3300000E-01  0.0000000E+00
-0.3250000E-01  0.0000000E+00
-0.3200000E-01  0.0000000E+00
-0.3150000E-01  0.0000000E+00
-0.3100000E-01  0.0000000E+00
-0.3050000E-01  0.0000000E+00
-0.3000000E-01  0.0000000E+00
-0.2950000E-01  0.0000000E+00
-0.2900000E-01  0.0000000E+00
-0.2850000E-01  0.0000000E+00
-0.2800000E-01  0.0000000E+00
-0.2750000E-01  0.0000000E+00
-0.2700000E-01  0.0000000E+00
-0.2650000E-01  0.0000000E+00
-0.2600000E-01  0.0000000E+00
-0.2550000E-01  0.0000000E+00
-0.2500000E-01  0.0000000E+00
-0.2450000E-01  0.0000000E+00
-0.2400000E-01  0.0000000E+00
-0.2350000E-01  0.0000000E+00
-0.2300000E-01  0.0000000E+00
-0.2250000E-01  0.0000000E+00
-0.2200000E-01  0.0000000E+00
-0.2150000E-01  0.0000000E+00
-0.2100000E-01  0.0000000E+00
-0.2050000E-01  0.0000000E+00
-0.2000000E-01  0.0000000E+00
-0.1950000E-01  0.0000000E+00
-0.1900000E-01  0.0000000E+00
-0.1850000E-01  0.0000000E+00
-0.1800000E-01  0.0000000E+00
-0.1750000E-01  0.0000000E+00
-0.1700000E-01  0.0000000E+00
-0.1650000E-01  0.0000000E+00
-0.1600000E-01  0.0000000E+00
-0.1550000E-01  0.0000000E+00
-0.1500000E-01  0.0000000E+00
-0.1450000E-01  0.0000000E+00
-0.1400000E-01  0.0000000E+00
-0.1350000E-01  0.0000000E+00
-0.1300000E-01  0.0000000E+00
-0.1250000E-01  0.0000000E+00
-0.1200000E-01  0.0000000E+00
-0.1150000E-01  0.0000000E+00
-0.1100000E-01  0.0000000E+00
-0.1050000E-01  0.0000000E+00
-0.1000000E-01  0.0000000E+00
-0.9500000E-02  0.0000000E+00
-0.9000000E-02  0.0000000E+00
-0.8500000E-02  0.0000000E+00
-0.8000000E-02  0.0000000E+00
-0.7500000E-02  0.0000000E+00
-0.7000000E-02  0.0000000E+00
-0.6500000E-02  0.0000000E+00
-0.6000000E-02  0.0000000E+00
-0.5500000E-02  0.0000000E+00
-0.5000000E-02  0.0000000E+00
-0.4500000E-02  0.0000000E+00
-0.4000000E-02  0.0000000E+00
-0.3500000E-02  0.0000000E+00
-0.3000000E-02  0.0000000E+00
-0.2500000E-02  0.0000000E+00
-0.2000000E-02  0.0000000E+00
-0.1500000E-02  0.0000000E+00
-0.1000000E-02  0.0000000E+00
-0.5000000E-03  0.0000000E+00
 0.0000000E+00  0.0000000E+00
 0.5000000E-03  0.0000000E+00
 0.1000000E-02  0.0000000E+00
 0.1500000E-02  0.0000000E+00
 0.2000000E-02  0.0000000E+00
 0.2500000E-02  0.0000000E+00
 0.3000000E-02  0.0000000E+00
 0.3500000E-02  0.0000000E+00
 0.4000000E-02  0.0000000E+00
 0.4500000E-02  0.0000000E+00
 0.5000000E-02  0.0000000E+00
 0.5500000E-02  0.0000000E+00
 0.6000000E-02  0.0000000E+00
 0.6500000E-02  0.0000000E+00
 0.7000000E-02  0.0000000E+00
 0.7500000E-02  0.0000000E+00
 0.8000000E-02  0.0000000E+00
 0.8500000E-02  0.0000000E+00
 0.9000000E-02  0.0000000E+00
 0.9500000E-02  0.0000000E+00
 0.1000000E-01  0.0000000E+00
 0.1050000E-01  0.0000000E+00
 0.1100000E-01  0.0000000E+00
 0.1150000E-01  0.0000000E+00
 0.1200000E-01  0.0000000E+00
 0.1250000E-01  0.0000000E+00
 0.1300000E-01  0.0000000E+00
 0.1350000E-01  0.0000000E+00
 0.1400000E-01  0.0000000E+00
 0.1450000E-01  0.0000000E+00
 0.1500000E-01  0.0000000E+00
 0.1550000E-01  0.0000000E+00
 0.1600000E-01  0.0000000E+00
 0.1650000E-01  0.0000000E+00
 0.1700000E-01  0.0000000E+00
 0.1750000E-01  0.0000000E+00
 0.1800000E-01  0.0000000E+00
 0.1850000E-01  0.0000000E+00
 0.1900000E-01  0.0000000E+00
 0.1950000E-01  0.0000000E+00
 0.2000000E-01  0.0000000E+00
 0.2050000E-01  0.0000000E+00
 0.2100000E-01  0.0000000E+00
 0.2150000E-01  0.0000000E+00
 0.2200000E-01  0.0000000E+00
 0.2250000E-01  0.0000000E+00
 0.2300000E-01  0.0000000E+00
 0.2350000E-01  0.0000000E+00
 0.2400000E-01  0.0000000E+00
 0.2450000E-01  0.0000000E+00
 0.2500000E-01  0.0000000E+00
 0.2550000E-01  0.0000000E+00
 0.2600000E-01  0.0000000E+00
 0.2650000E-01  0.0000000E+00
 0.2700000E-01  0.0000000E+00
 0.2750000E-01  0.0000000E+00
 0.2800000E-01  0.0000000E+00
 0.2850000E-01  0.0000000E+00
 0.2900000E-01  0.0000000E+00
 0.2950000E-01  0.0000000E+00
 0.3000000E-01  0.0000000E+00
 0.3050000E-01  0.0000000E+00
 0.3100000E-01  0.0000000E+00
 0.3150000E-01  0.0000000E+00
 0.3200000E-01  0.0000000E+00
 0.3250000E-01  0.0000000E+00
 0.3300000E-01  0.0000000E+00
 0.3350000E-01  0.0000000E+00
 0.3400000E-01  0.0000000E+00
 0.3450000E-01  0.0000000E+00
 0.3500000E-01  0.0000000E+00
 0.3550000E-01  0.0000000E+00
 0.3600000E-01  0.0000000E+00
 0.3650000E-01  0.0000000E+00
 0.3700000E-01  0.0000000E+00
 0.3750000E-01  0.0000000E+00
 0.3800000E-01  0.0000000E+00
 0.3850000E-01  0.0000000E+00
 0.3900000E-01  0.0000000E+00
 0.3950000E-01  0.0000000E+00
 0.4000000E-01  0.0000000E+00
 0.4050000E-01  0.0000000E+00
 0.4100000E-01  0.0000000E+00
 0.4150000E-01  0.0000000E+00
 0.4200000E-01  0.0000000E+00
 0.4250000E-01  0.0000000E+00
 0.4300000E-01  0.0000000E+00
 0.4350000E-01  0.0000000E+00
 0.4400000E-01  0.0000000E+00
 0.4450000E-01  0.0000000E+00
 0.4500000E-01  0.0000000E+00
 0.4550000E-01  0.0000000E+00
 0.4600000E-01  0.0000000E+00
 0.4650000E-01  0.0000000E+00
 0.4700000E-01  0.0000000E+00
 0.4750000E-01  0.0000000E+00
 0.4800000E-01  0.0000000E+00
 0.4850000E-01  0.0000000E+00
 0.4900000E-01  0.0000000E+00
 0.4950000E-01  0.0000000E+00
 0.5000000E-01  0.0000000E+00
 0.5050000E-01  0.0000000E+00
 0.5100000E-01  0.0000000E+00
 0.5150000E-01  0.0000000E+00
 0.5200000E-01  0.0000000E+00
 0.5250000E-01  0.0000000E+00
 0.5300000E-01  0.0000000E+00
 0.5350000E-01  0.0000000E+00
 0.5400000E-01  0.0000000E+00
 0.5450000E-01  0.0000000E+00
 0.5500000E-01  0.0000000E+00
 0.5550000E-01  0.0000000E+00
 0.5600000E-01  0.0000000E+00
 0.5650000E-01  0.0000000E+00
 0.5700000E-01  0.0000000E+00
 0.5750000E-01  0.0000000E+00
 0.5800000E-01  0.0000000E+00
 0.5850000E-01  0.0000000E+00
 0.5900000E-01  0.0000000E+00
 0.5950000E-01  0.0000000E+00
 0.6000000E-01  0.0000000E+00
 0.6050000E-01  0.0000000E+00
 0.6100000E-01  0.0000000E+00
 0.6150000E-01  0.0000000E+00
 0.6200000E-01  0.0000000E+00
 0.6250000E-01  0.0000000E+00
 0.6300000E-01  0.0000000E+00
 0.6350000E-01  0.0000000E+00
 0.6400000E-01  0.0000000E+00
 0.6450000E-01  0.0000000E+00
 0.6500000E-01  0.0000000E+00
 0.6550000E-01  0.0000000E+00
 0.6600000E-01  0.0000000E+00
 0.6650000E-01  0.0000000E+00
 0.6700000E-01  0.0000000E+00
 0.6750000E-01  0.0000000E+00
 0.6800000E-01  0.0000000E+00
 0.6850000E-01  0.0000000E+00
 0.6900000E-01  0.0000000E+00
 0.6950000E-01  0.0000000E+00
 0.7000000E-01  0.0000000E+00
 0.7050000E-01  0.0000000E+00
 0.7100000E-01  0.0000000E+00
 0.7150000E-01  0.0000000E+00
 0.7200000E-01  0.0000000E+00
 0.7250000E-01  0.0000000E+00
 0.7300000E-01  0.0000000E+00
 0.7350000E-01  0.0000000E+00
 0.7400000E-01  0.0000000E+00
 0.7450000E-01  0.0000000E+00
 0.7500000E-01  0.0000000E+00
 0.7550000E-01  0.0000000E+00
 0.7600000E-01  0.0000000E+00
 0.7650000E-01  0.0000000E+00
 0.7700000E-01  0.0000000E+00
 0.7750000E-01  0.0000000E+00
 0.7800000E-01  0.0000000E+00
 0.7850000E-01  0.0000000E+00
 0.7900000E-01  0.0000000E+00
 0.7950000E-01  0.0000000E+00
 0.8000000E-01  0.0000000E+00
 0.8050000E-01  0.0000000E+00
 0.8100000E-01  0.0000000E+00
 0.8150000E-01  0.0000000E+00
 0.8200000E-01  0.0000000E+00
 0.8250000E-01  0.0000000E+00
 0.8300000E-01  0.0000000E+00
 0.8350000E-01  0.0000000E+00
 0.8400000E-01  0.0000000E+00
 0.8450000E-01  0.0000000E+00
 0.8500000E-01  0.0000000E+00
 0.8550000E-01  0.0000000E+00
 0.8600000E-01  0.0000000E+00
 0.8650000E-01  0.0000000E+00
 0.8700000E-01  0.0000000E+00
 0.8750000E-01  0.0000000E+00
 0.8800000E-01  0.0000000E+00
 0.8850000E-01  0.0000000E+00
 0.8900000E-01  0.0000000E+00
 0.8950000E-01  0.0000000E+00
 0.9000000E-01  0.0000000E+00
 0.9050000E-01  0.0000000E+00
 0.9100000E-01  0.0000000E+00
 0.9150000E-01  0.0000000E+00
 0.9200000E-01  0.0000000E+00
 0.9250000E-01  0.0000000E+00
 0.9300000E-01  0.0000000E+00
 0.9350000E-01  0.0000000E+00
 0.9400000E-01  0.0000000E+00
 0.9450000E-01  0.0000000E+00
 0.9500000E-01  0.0000000E+00
 0.9550000E-01  0.0000000E+00
 0.9600000E-01  0.0000000E+00
 0.9650000E-01  0.0000000E+00
 0.9700000E-01  0.0000000E+00
 0.9750000E-01  0.0000000E+00
 0.9800000E-01  0.0000000E+00
 0.9850000E-01  0.0000000E+00
 0.9900000E-01  0.0000000E+00
 0.9950000E-01  0.0000000E+00
 0.1000000E+00  0.0000000E+00
 0.1005000E+00  0.0000000E+00
 0.1010000E+00  0.0000000E+00
 0.1015000E+00  0.0000000E+00
 0.1020000E+00  0.0000000E+00
 0.1025000E+00  0.0000000E+00
 0.1030000E+00  0.0000000E+00
 0.1035000E+00  0.0000000E+00
 0.1040000E+00  0.0000000E+00
 0.1045000E+00  0.0000000E+00
 0.1050000E+00  0.0000000E+00
 0.1055000E+00  0.0000000E+00
 0.1060000E+00  0.0000000E+00
 0.1065000E+00  0.0000000E+00
 0.1070000E+00  0.0000000E+00
 0.1075000E+00  0.0000000E+00
 0.1080000E+00  0.0000000E+00
 0.1085000E+00  0.0000000E+00
 0.1090000E+00  0.0000000E+00
 0.1095000E+00  0.0000000E+00
 0.1100000E+00  0.0000000E+00
 0.1105000E+00  0.0000000E+00
 0.1110000E+00  0.0000000E+00
 0.1115000E+00  0.0000000E+00
 0.1120000E+00  0.0000000E+00
 0.1125000E+00  0.0000000E+00
 0.1130000E+00  0.0000000E+00
 0.1135000E+00  0.0000000E+00
 0.1140000E+00  0.0000000E+00
 0.1145000E+00  0.0000000E+00
 0.1150000E+00  0.0000000E+00
 0.1155000E+00  0.0000000E+00
 0.1160000E+00  0.0000000E+00
 0.1165000E+00  0.0000000E+00
 0.1170000E+00  0.0000000E+00
 0.1175000E+00  0.0000000E+00
 0.1180000E+00  0.0000000E+00
 0.1185000E+00  0.0000000E+00
 0.1190000E+00  0.0000000E+00
 0.1195000E+00  0.0000000E+00
 0.1200000E+00  0.0000000E+00
 0.1205000E+00  0.0000000E+00
 0.1210000E+00  0.0000000E+00
 0.1215000E+00  0.0000000E+00
 0.1220000E+00  0.0000000E+00
 0.1225000E+00  0.0000000E+00
 0.1230000E+00  0.0000000E+00
 0.1235000E+00  0.0000000E+00
 0.1240000E+00  0.0000000E+00
 0.1245000E+00  0.0000000E+00
 0.1250000E+00  0.0000000E+00
 0.1255000E+00  0.0000000E+00
 0.1260000E+00  0.0000000E+00
 0.1265000E+00  0.0000000E+00
 0.1270000E+00  0.0000000E+00
 0.1275000E+00  0.0000000E+00
 0.1280000E+00  0.0000000E+00
 0.1285000E+00  0.0000000E+00
 0.1290000E+00  0.0000000E+00
 0.1295000E+00  0.0000000E+00
 0.1300000E+00  0.0000000E+00
 0.1305000E+00  0.0000000E+00
 0.1310000E+00  0.0000000E+00
 0.1315000E+00  0.0000000E+00
 0.1320000E+00  0.0000000E+00
 0.1325000E+00  0.0000000E+00
 0.1330000E+00  0.0000000E+00
 0.1335000E+00  0.0000000E+00
 0.1340000E+00  0.0000000E+00
 0.1345000E+00  0.0000000E+00
 0.1350000E+00  0.0000000E+00
 0.1355000E+00  0.0000000E+00
 0.1360000E+00  0.0000000E+00
 0.1365000E+00  0.0000000E+00
 0.1370000E+00  0.0000000E+00
 0.1375000E+00  0.0000000E+00
 0.1380000E+00  0.0000000E+00
 0.1385000E+00  0.0000000E+00
 0.1390000E+00  0.0000000E+00
 0.1395000E+00  0.0000000E+00
 0.1400000E+00  0.0000000E+00
 0.1405000E+00  0.0000000E+00
 0.1410000E+00  0.0000000E+00
 0.1415000E+00  0.0000000E+00
 0.1420000E+00  0.0000000E+00
 0.1425000E+00  0.0000000E+00
 0.1430000E+00  0.0000000E+00
 0.1435000E+00  0.0000000E+00
 0.1440000E+00  0.0000000E+00
 0.1445000E+00  0.0000000E+00
 0.1450000E+00  0.0000000E+00
 0.1455000E+00  0.0000000E+00
 0.1460000E+00  0.0000000E+00
 0.1465000E+00  0.0000000E+00
 0.1470000E+00  0.0000000E+00
 0.1475000E+00  0.0000000E+00
 0.1480000E+00  0.0000000E+00
 0.1485000E+00  0.0000000E+00
 0.1490000E+00  0.0000000E+00
 0.1495000E+00  0.0000000E+00
 0.1500000E+00  0.0000000E+00
 0.1505000E+00  0.0000000E+00
 0.1510000E+00  0.0000000E+00
 0.1515000E+00  0.0000000E+00
 0.1520000E+00  0.0000000E+00
 0.1525000E+00  0.0000000E+00
 0.1530000E+00  0.0000000E+00
 0.1535000E+00  0.0000000E+00
 0.1540000E+00  0.0000000E+00
 0.1545000E+00  0.0000000E+00
 0.1550000E+00  0.0000000E+00
 0.1555000E+00  0.0000000E+00
 0.1560000E+00  0.0000000E+00
 0.1565000E+00  0.0000000E+00
 0.1570000E+00  0.0000000E+00
 0.1575000E+00  0.0000000E+00
 0.1580000E+00  0.0000000E+00
 0.1585000E+00  0.0000000E+00
 0.1590000E+00  0.0000000E+00
 0.1595000E+00  0.0000000E+00
 0.1600000E+00  0.0000000E+00
 0.1605000E+00  0.0000000E+00
 0.1610000E+00  0.0000000E+00
 0.1615000E+00  0.0000000E+00
 0.1620000E+00  0.0000000E+00
 0.1625000E+00  0.0000000E+00
 0.1630000E+00  0.0000000E+00
 0.1635000E+00  0.0000000E+00
 0.1640000E+00  0.0000000E+00
 0.1645000E+00  0.0000000E+00
 0.1650000E+00  0.0000000E+00
 0.1655000E+00  0.0000000E+00
 0.1660000E+00  0.0000000E+00
 0.1665000E+00  0.0000000E+00
 0.1670000E+00  0.0000000E+00
 0.1675000E+00  0.0000000E+00
 0.1680000E+00  0.0000000E+00
 0.1685000E+00  0.0000000E+00
 0.1690000E+00  0.0000000E+00
 0.1695000E+00  0.0000000E+00
 0.1700000E+00  0.0000000E+00
 0.1705000E+00  0.0000000E+00
 0.1710000E+00  0.0000000E+00
 0.1715000E+00  0.0000000E+00
 0.1720000E+00  0.0000000E+00
 0.1725000E+00  0.0000000E+00
 0.1730000E+00  0.0000000E+00
 0.1735000E+00  0.0000000E+00
 0.1740000E+00  0.0000000E+00
 0.1745000E+00  0.0000000E+00
 0.1750000E+00  0.0000000E+00
 0.1755000E+00  0.0000000E+00
 0.1760000E+00  0.0000000E+00
 0.1765000E+00  0.0000000E+00
 0.1770000E+00  0.0000000E+00
 0.1775000E+00  0.0000000E+00
 0.1780000E+00  0.0000000E+00
 0.1785000E+00  0.0000000E+00
 0.1790000E+00  0.0000000E+00
 0.1795000E+00  0.0000000E+00
 0.1800000E+00  0.0000000E+00
 0.1805000E+00  0.0000000E+00
 0.1810000E+00  0.0000000E+00
 0.1815000E+00  0.0000000E+00
 0.1820000E+00  0.0000000E+00
 0.1825000E+00  0.0000000E+00
 0.1830000E+00  0.0000000E+00
 0.1835000E+00  0.0000000E+00
 0.1840000E+00  0.0000000E+00
 0.1845000E+00  0.0000000E+00
 0.1850000E+00  0.0000000E+00
 0.1855000E+00  0.0000000E+00
 0.1860000E+00  0.0000000E+00
 0.1865000E+00  0.0000000E+00
 0.1870000E+00  0.0000000E+00
 0.1875000E+00  0.0000000E+00
 0.1880000E+00  0.0000000E+00
 0.1885000E+00  0.0000000E+00
 0.1890000E+00  0.0000000E+00
 0.1895000E+00  0.0000000E+00
 0.1900000E+00  0.0000000E+00
 0.1905000E+00  0.0000000E+00
 0.1910000E+00  0.0000000E+00
 0.1915000E+00  0.0000000E+00
 0.1920000E+00  0.0000000E+00
 0.1925000E+00  0.0000000E+00
 0.1930000E+00  0.0000000E+00
 0.1935000E+00  0.0000000E+00
 0.1940000E+00  0.0000000E+00
 0.1945000E+00  0.0000000E+00
 0.1950000E+00  0.0000000E+00
 0.1955000E+00  0.0000000E+00
 0.1960000E+00  0.0000000E+00
 0.1965000E+00  0.0000000E+00
 0.1970000E+00  0.0000000E+00
 0.1975000E+00  0.0000000E+00
 0.1980000E+00  0.0000000E+00
 0.1985000E+00  0.0000000E+00
 0.1990000E+00  0.0000000E+00
 0.1995000E+00  0.0000000E+00
 0.2000000E+00  0.0000000E+00
 0.2005000E+00  0.0000000E+00
 0.2010000E+00  0.0000000E+00
 0.2015000E+00  0.0000000E+00
 0.2020000E+00  0.0000000E+00
 0.2025000E+00  0.0000000E+00
 0.2030000E+00  0.0000000E+00
 0.2035000E+00  0.0000000E+00
 0.2040000E+00  0.0000000E+00
 0.2045000E+00  0.0000000E+00
 0.2050000E+00  0.0000000E+00
 0.2055000E+00  0.0000000E+00
 0.2060000E+00  0.0000000E+00
 0.2065000E+00  0.0000000E+00
 0.2070000E+00  0.0000000E+00
 0.2075000E+00  0.0000000E+00
 0.2080000E+00  0.0000000E+00
 0.2085000E+00  0.0000000E+00
 0.2090000E+00  0.0000000E+00
 0.2095000E+00  0.0000000E+00
 0.2100000E+00  0.0000000E+00
 0.2105000E+00  0.0000000E+00
 0.2110000E+00  0.0000000E+00
 0.2115000E+00  0.0000000E+00
 0.2120000E+00  0.0000000E+00
 0.2125000E+00  0.0000000E+00
 0.2130000E+00  0.0000000E+00
 0.2135000E+00  0.0000000E+00
 0.2140000E+00  0.0000000E+00
 0.2145000E+00  0.0000000E+00
 0.2150000E+00  0.0000000E+00
 0.2155000E+00  0.0000000E+00
 0.2160000E+00  0.0000000E+00
 0.2165000E+00  0.0000000E+00
 0.2170000E+00  0.0000000E+00
 0.2175000E+00  0.0000000E+00
 0.2180000E+00  0.0000000E+00
 0.2185000E+00  0.0000000E+00
 0.2190000E+00  0.0000000E+00
 0.2195000E+00  0.0000000E+00
 0.2200000E+00  0.0000000E+00
 0.2205000E+00  0.0000000E+00
 0.2210000E+00  0.0000000E+00
 0.2215000E+00  0.0000000E+00
 0.2220000E+00  0.0000000E+00
 0.2225000E+00  0.0000000E+00
 0.2230000E+00  0.0000000E+00
 0.2235000E+00  0.0000000E+00
 0.2240000E+00  0.0000000E+00
 0.2245000E+00  0.0000000E+00
 0.2250000E+00  0.0000000E+00
 0.2255000E+00  0.0000000E+00
 0.2260000E+00  0.0000000E+00
 0.2265000E+00  0.0000000E+00
 0.2270000E+00  0.0000000E+00
 0.2275000E+00  0.0000000E+00
 0.2280000E+00  0.0000000E+00
 0.2285000E+00  0.0000000E+00
 0.2290000E+00  0.0000000E+00
 0.2295000E+00  0.0000000E+00
 0.2300000E+00  0.0000000E+00
 0.2305000E+00  0.0000000E+00
 0.2310000E+00  0.0000000E+00
 0.2315000E+00  0.0000000E+00
 0.2320000E+00  0.0000000E+00
 0.2325000E+00  0.0000000E+00
 0.2330000E+00  0.0000000E+00
 0.2335000E+00  0.0000000E+00
 0.2340000E+00  0.0000000E+00
 0.2345000E+00  0.0000000E+00
 0.2350000E+00  0.0000000E+00
 0.2355000E+00  0.0000000E+00
 0.2360000E+00  0.0000000E+00
 0.2365000E+00  0.0000000E+00
 0.2370000E+00  0.0000000E+00
 0.2375000E+00  0.0000000E+00
 0.2380000E+00  0.0000000E+00
 0.2385000E+00  0.0000000E+00
 0.2390000E+00  0.0000000E+00
 0.2395000E+00  0.0000000E+00
 0.2400000E+00  0.0000000E+00
 0.2405000E+00  0.0000000E+00
 0.2410000E+00  0.0000000E+00
 0.2415000E+00  0.0000000E+00
 0.2420000E+00  0.0000000E+00
 0.2425000E+00  0.0000000E+00
 0.2430000E+00  0.0000000E+00
 0.2435000E+00  0.0000000E+00
 0.2440000E+00  0.0000000E+00
 0.2445000E+00  0.0000000E+00
 0.2450000E+00  0.0000000E+00
 0.2455000E+00  0.0000000E+00
 0.2460000E+00  0.0000000E+00
 0.2465000E+00  0.0000000E+00
 0.2470000E+00  0.0000000E+00
 0.2475000E+00  0.0000000E+00
 0.2480000E+00  0.0000000E+00
 0.2485000E+00  0.0000000E+00
 0.2490000E+00  0.0000000E+00
 0.2495000E+00  0.0000000E+00
 0.2500000E+00  0.0000000E+00
 0.2505000E+00  0.0000000E+00
 0.2510000E+00  0.0000000E+00
 0.2515000E+00  0.0000000E+00
 0.2520000E+00  0.0000000E+00
 0.2525000E+00  0.0000000E+00
 0.2530000E+00  0.0000000E+00
 0.2535000E+00  0.0000000E+00
 0.2540000E+00  0.0000000E+00
 0.2545000E+00  0.0000000E+00
 0.2550000E+00  0.0000000E+00
 0.2555000E+00  0.0000000E+00
 0.2560000E+00  0.0000000E+00
 0.2565000E+00  0.0000000E+00
 0.2570000E+00  0.0000000E+00
 0.2575000E+00  0.0000000E+00
 0.2580000E+00  0.0000000E+00
 0.2585000E+00  0.0000000E+00
 0.2590000E+00  0.0000000E+00
 0.2595000E+00  0.0000000E+00
 0.2600000E+00  0.0000000E+00
 0.2605000E+00  0.0000000E+00
 0.2610000E+00  0.0000000E+00
 0.2615000E+00  0.0000000E+00
 0.2620000E+00  0.0000000E+00
 0.2625000E+00  0.0000000E+00
 0.2630000E+00  0.0000000E+00
 0.2635000E+00  0.0000000E+00
 0.2640000E+00  0.0000000E+00
 0.2645000E+00  0.0000000E+00
 0.2650000E+00  0.0000000E+00
 0.2655000E+00  0.0000000E+00
 0.2660000E+00  0.0000000E+00
 0.2665000E+00  0.0000000E+00
 0.2670000E+00  0.0000000E+00
 0.2675000E+00  0.0000000E+00
 0.2680000E+00  0.0000000E+00
 0.2685000E+00  0.0000000E+00
 0.2690000E+00  0.0000000E+00
 0.2695000E+00  0.0000000E+00
 0.2700000E+00  0.0000000E+00
 0.2705000E+00  0.0000000E+00
 0.2710000E+00  0.0000000E+00
 0.2715000E+00  0.0000000E+00
 0.2720000E+00  0.0000000E+00
 0.2725000E+00  0.0000000E+00
 0.2730000E+00  0.0000000E+00
 0.2735000E+00  0.0000000E+00
 0.2740000E+00  0.0000000E+00
 0.2745000E+00  0.0000000E+00
 0.2750000E+00  0.0000000E+00
 0.2755000E+00  0.0000000E+00
 0.2760000E+00  0.0000000E+00
 0.2765000E+00  0.0000000E+00
 0.2770000E+00  0.0000000E+00
 0.2775000E+00  0.0000000E+00
 0.2780000E+00  0.0000000E+00
 0.2785000E+00  0.0000000E+00
 0.2790000E+00  0.0000000E+00
 0.2795000E+00  0.0000000E+00
 0.2800000E+00  0.0000000E+00
 0.2805000E+00  0.0000000E+00
 0.2810000E+00  0.0000000E+00
 0.2815000E+00  0.0000000E+00
 0.2820000E+00  0.0000000E+00
 0.2825000E+00  0.0000000E+00
 0.2830000E+00  0.0000000E+00
 0.2835000E+00  0.0000000E+00
 0.2840000E+00  0.0000000E+00
 0.2845000E+00  0.0000000E+00
 0.2850000E+00  0.0000000E+00
 0.2855000E+00  0.0000000E+00
 0.2860000E+00  0.0000000E+00
 0.2865000E+00  0.0000000E+00
 0.2870000E+00  0.0000000E+00
 0.2875000E+00  0.0000000E+00
 0.2880000E+00  0.0000000E+00
 0.2885000E+00  0.0000000E+00
 0.2890000E+00  0.0000000E+00
 0.2895000E+00  0.0000000E+00
 0.2900000E+00  0.0000000E+00
 0.2905000E+00  0.0000000E+00
 0.2910000E+00  0.0000000E+00
 0.2915000E+00  0.0000000E+00
 0.2920000E+00  0.0000000E+00
 0.2925000E+00  0.0000000E+00
 0.2930000E+00  0.0000000E+00
 0.2935000E+00  0.0000000E+00
 0.2940000E+00  0.0000000E+00
 0.2945000E+00  0.0000000E+00
 0.2950000E+00  0.0000000E+00
 0.2955000E+00  0.0000000E+00
 0.2960000E+00  0.0000000E+00
 0.2965000E+00  0.0000000E+00
 0.2970000E+00  0.0000000E+00
 0.2975000E+00  0.0000000E+00
 0.2980000E+00  0.0000000E+00
 0.2985000E+00  0.0000000E+00
 0.2990000E+00  0.0000000E+00
 0.2995000E+00  0.0000000E+00
 0.3000000E+00  0.0000000E+00
 0.3005000E+00  0.0000000E+00
 0.3010000E+00  0.0000000E+00
 0.3015000E+00  0.0000000E+00
 0.3020000E+00  0.0000000E+00
 0.3025000E+00  0.0000000E+00
 0.3030000E+00  0.0000000E+00
 0.3035000E+00  0.0000000E+00
 0.3040000E+00  0.0000000E+00
 0.3045000E+00  0.0000000E+00
 0.3050000E+00  0.0000000E+00
 0.3055000E+00  0.0000000E+00
 0.3060000E+00  0.0000000E+00
 0.3065000E+00  0.0000000E+00
 0.3070000E+00  0.0000000E+00
 0.3075000E+00  0.0000000E+00
 0.3080000E+00  0.0000000E+00
 0.3085000E+00  0.0000000E+00
 0.3090000E+00  0.0000000E+00
 0.3095000E+00  0.0000000E+00
 0.3100000E+00  0.0000000E+00
 0.3105000E+00  0.0000000E+00
 0.3110000E+00  0.0000000E+00
 0.3115000E+00  0.0000000E+00
 0.3120000E+00  0.0000000E+00
 0.3125000E+00  0.0000000E+00
 0.3130000E+00  0.0000000E+00
 0.3135000E+00  0.0000000E+00
 0.3140000E+00  0.0000000E+00
 0.3145000E+00  0.0000000E+00
 0.3150000E+00  0.0000000E+00
 0.3155000E+00  0.0000000E+00
 0.3160000E+00  0.0000000E+00
 0.3165000E+00  0.0000000E+00
 0.3170000E+00  0.0000000E+00
 0.3175000E+00  0.0000000E+00
 0.3180000E+00  0.0000000E+00
 0.3185000E+00  0.0000000E+00
 0.3190000E+00  0.0000000E+00
 0.3195000E+00  0.0000000E+00
 0.3200000E+00  0.0000000E+00
 0.3205000E+00  0.0000000E+00
 0.3210000E+00  0.0000000E+00
 0.3215000E+00  0.0000000E+00
 0.3220000E+00  0.0000000E+00
 0.3225000E+00  0.0000000E+00
 0.3230000E+00  0.0000000E+00
 0.3235000E+00  0.0000000E+00
 0.3240000E+00  0.0000000E+00
 0.3245000E+00  0.0000000E+00
 0.3250000E+00  0.0000000E+00
 0.3255000E+00  0.0000000E+00
 0.3260000E+00  0.0000000E+00
 0.3265000E+00  0.0000000E+00
 0.3270000E+00  0.0000000E+00
 0.3275000E+00  0.0000000E+00
 0.3280000E+00  0.0000000E+00
 0.3285000E+00  0.0000000E+00
 0.3290000E+00  0.0000000E+00
 0.3295000E+00  0.0000000E+00
 0.3300000E+00  0.0000000E+00
 0.3305000E+00  0.0000000E+00
 0.3310000E+00  0.0000000E+00
 0.3315000E+00  0.0000000E+00
 0.3320000E+00  0.0000000E+00
 0.3325000E+00  0.0000000E+00
 0.3330000E+00  0.0000000E+00
 0.3335000E+00  0.0000000E+00
 0.3340000E+00  0.0000000E+00
 0.3345000E+00  0.0000000E+00
 0.3350000E+00  0.0000000E+00
 0.3355000E+00  0.0000000E+00
 0.3360000E+00  0.0000000E+00
 0.3365000E+00  0.0000000E+00
 0.3370000E+00  0.0000000E+00
 0.3375000E+00  0.0000000E+00
 0.3380000E+00  0.0000000E+00
 0.3385000E+00  0.0000000E+00
 0.3390000E+00  0.0000000E+00
 0.3395000E+00  0.0000000E+00
 0.3400000E+00  0.0000000E+00
 0.3405000E+00  0.0000000E+00
 0.3410000E+00  0.0000000E+00
 0.3415000E+00  0.0000000E+00
 0.3420000E+00  0.0000000E+00
 0.3425000E+00  0.0000000E+00
 0.3430000E+00  0.0000000E+00
 0.3435000E+00  0.0000000E+00
 0.3440000E+00  0.0000000E+00
 0.3445000E+00  0.0000000E+00
 0.3450000E+00  0.0000000E+00
 0.3455000E+00  0.0000000E+00
 0.3460000E+00  0.0000000E+00
 0.3465000E+00  0.0000000E+00
 0.3470000E+00  0.0000000E+00
 0.3475000E+00  0.0000000E+00
 0.3480000E+00  0.0000000E+00
 0.3485000E+00  0.0000000E+00
 0.3490000E+00  0.0000000E+00
 0.3495000E+00  0.0000000E+00
 0.3500000E+00  0.0000000E+00
 0.3505000E+00  0.0000000E+00
 0.3510000E+00  0.0000000E+00
 0.3515000E+00  0.0000000E+00
 0.3520000E+00  0.0000000E+00
 0.3525000E+00  0.0000000E+00
 0.3530000E+00  0.0000000E+00
 0.3535000E+00  0.0000000E+00
 0.3540000E+00  0.0000000E+00
 0.3545000E+00  0.0000000E+00
 0.3550000E+00  0.0000000E+00
 0.3555000E+00  0.0000000E+00
 0.3560000E+00  0.0000000E+00
 0.3565000E+00  0.0000000E+00
 0.3570000E+00  0.0000000E+00
 0.3575000E+00  0.0000000E+00
 0.3580000E+00  0.0000000E+00
 0.3585000E+00  0.0000000E+00
 0.3590000E+00  0.0000000E+00
 0.3595000E+00  0.0000000E+00
 0.3600000E+00  0.0000000E+00
 0.3605000E+00  0.0000000E+00
 0.3610000E+00  0.0000000E+00
 0.3615000E+00  0.0000000E+00
 0.3620000E+00  0.0000000E+00
 0.3625000E+00  0.0000000E+00
 0.3630000E+00  0.0000000E+00
 0.3635000E+00  0.0000000E+00
 0.3640000E+00  0.0000000E+00
 0.3645000E+00  0.0000000E+00
 0.3650000E+00  0.0000000E+00
 0.3655000E+00  0.0000000E+00
 0.3660000E+00  0.0000000E+00
 0.3665000E+00  0.0000000E+00
 0.3670000E+00  0.0000000E+00
 0.3675000E+00  0.0000000E+00
 0.3680000E+00  0.0000000E+00
 0.3685000E+00  0.0000000E+00
 0.3690000E+00  0.0000000E+00
 0.3695000E+00  0.0000000E+00
 0.3700000E+00  0.0000000E+00
 0.3705000E+00  0.0000000E+00
 0.3710000E+00  0.0000000E+00
 0.3715000E+00  0.0000000E+00
 0.3720000E+00  0.0000000E+00
 0.3725000E+00  0.0000000E+00
 0.3730000E+00  0.0000000E+00
 0.3735000E+00  0.0000000E+00
 0.3740000E+00  0.0000000E+00
 0.3745000E+00  0.0000000E+00
 0.3750000E+00  0.0000000E+00
 0.3755000E+00  0.0000000E+00
 0.3760000E+00  0.0000000E+00
 0.3765000E+00  0.0000000E+00
 0.3770000E+00  0.0000000E+00
 0.3775000E+00  0.0000000E+00
 0.3780000E+00  0.0000000E+00
 0.3785000E+00  0.0000000E+00
 0.3790000E+00  0.0000000E+00
 0.3795000E+00  0.0000000E+00