 -0.19999999999999998          0.0000000000000000     
 -0.19849999999999998          0.0000000000000000     
 -0.19699999999999998          0.0000000000000000     
 -0.19549999999999998          0.0000000000000000     
 -0.19399999999999998          0.0000000000000000     
 -0.19249999999999998          0.0000000000000000     
 -0.19099999999999998          0.0000000000000000     
 -0.18949999999999997          0.0000000000000000     
 -0.18799999999999997          0.0000000000000000     
 -0.18649999999999997          0.0000000000000000     
 -0.18500000000000000          0.0000000000000000     
 -0.18350000000000000          0.0000000000000000     
 -0.18200000000000000          0.0000000000000000     
 -0.18049999999999999          0.0000000000000000     
 -0.17899999999999999          0.0000000000000000     
 -0.17749999999999999          0.0000000000000000     
 -0.17599999999999999          0.0000000000000000     
 -0.17449999999999999          0.0000000000000000     
 -0.17299999999999999          0.0000000000000000     
 -0.17149999999999999          0.0000000000000000     
 -0.16999999999999998          0.0000000000000000     
 -0.16849999999999998          0.0000000000000000     
 -0.16699999999999998          0.0000000000000000     
 -0.16549999999999998          0.0000000000000000     
 -0.16399999999999998          0.0000000000000000     
 -0.16249999999999998          0.0000000000000000     
 -0.16099999999999998          0.0000000000000000     
 -0.15949999999999998          0.0000000000000000     
 -0.15799999999999997          0.0000000000000000     
 -0.15649999999999997          0.0000000000000000     
 -0.15499999999999997          0.0000000000000000     
 -0.15349999999999997          0.0000000000000000     
 -0.15199999999999997          0.0000000000000000     
 -0.15049999999999997          0.0000000000000000     
 -0.14899999999999997          0.0000000000000000     
 -0.14749999999999999          0.0000000000000000     
 -0.14599999999999999          0.0000000000000000     
 -0.14449999999999999          0.0000000000000000     
 -0.14299999999999999          0.0000000000000000     
 -0.14149999999999999          0.0000000000000000     
 -0.13999999999999999          0.0000000000000000     
 -0.13849999999999998          0.0000000000000000     
 -0.13699999999999998          0.0000000000000000     
 -0.13549999999999998          0.0000000000000000     
 -0.13399999999999998          0.0000000000000000     
 -0.13249999999999998          0.0000000000000000     
 -0.13099999999999998          0.0000000000000000     
 -0.12949999999999998          0.0000000000000000     
 -0.12799999999999997          0.0000000000000000     
 -0.12650000000000000          0.0000000000000000     
 -0.12499999999999999          0.0000000000000000     
 -0.12349999999999998          0.0000000000000000     
 -0.12199999999999998          0.0000000000000000     
 -0.12049999999999998          0.0000000000000000     
 -0.11899999999999998          0.0000000000000000     
 -0.11749999999999998          0.0000000000000000     
 -0.11599999999999998          0.0000000000000000     
 -0.11449999999999998          0.0000000000000000     
 -0.11299999999999998          0.0000000000000000     
 -0.11149999999999999          0.0000000000000000     
 -0.10999999999999999          0.0000000000000000     
 -0.10849999999999999          0.0000000000000000     
 -0.10699999999999998          0.0000000000000000     
 -0.10549999999999998          0.0000000000000000     
 -0.10399999999999998          0.0000000000000000     
 -0.10249999999999998          0.0000000000000000     
 -0.10099999999999998          0.0000000000000000     
  -9.9499999999999977E-002     0.0000000000000000     
  -9.7999999999999976E-002     0.0000000000000000     
  -9.6499999999999975E-002     0.0000000000000000     
  -9.4999999999999987E-002     0.0000000000000000     
  -9.3499999999999986E-002     0.0000000000000000     
  -9.1999999999999985E-002     0.0000000000000000     
  -9.0499999999999983E-002     0.0000000000000000     
  -8.8999999999999982E-002     0.0000000000000000     
  -8.7499999999999981E-002     0.0000000000000000     
  -8.5999999999999979E-002     0.0000000000000000     
  -8.4499999999999978E-002     0.0000000000000000     
  -8.2999999999999977E-002     0.0000000000000000     
  -8.1499999999999975E-002     0.0000000000000000     
  -7.9999999999999988E-002     0.0000000000000000     
  -7.8499999999999986E-002     0.0000000000000000     
  -7.6999999999999985E-002     0.0000000000000000     
  -7.5499999999999984E-002     0.0000000000000000     
  -7.3999999999999982E-002     0.0000000000000000     
  -7.2499999999999981E-002     0.0000000000000000     
  -7.0999999999999980E-002     0.0000000000000000     
  -6.9499999999999978E-002     0.0000000000000000     
  -6.7999999999999977E-002     0.0000000000000000     
  -6.6499999999999976E-002     0.0000000000000000     
  -6.4999999999999974E-002     0.0000000000000000     
  -6.3499999999999973E-002     0.0000000000000000     
  -6.1999999999999972E-002     0.0000000000000000     
  -6.0499999999999970E-002     0.0000000000000000     
  -5.8999999999999969E-002     0.0000000000000000     
  -5.7499999999999968E-002     0.0000000000000000     
  -5.5999999999999966E-002     0.0000000000000000     
  -5.4499999999999993E-002     0.0000000000000000     
  -5.2999999999999992E-002     0.0000000000000000     
  -5.1499999999999990E-002     0.0000000000000000     
  -4.9999999999999989E-002     0.0000000000000000     
  -4.8499999999999988E-002     0.0000000000000000     
  -4.6999999999999986E-002     0.0000000000000000     
  -4.5499999999999985E-002     0.0000000000000000     
  -4.3999999999999984E-002     0.0000000000000000     
  -4.2499999999999982E-002     0.0000000000000000     
  -4.0999999999999981E-002     0.0000000000000000     
  -3.9499999999999980E-002     0.0000000000000000     
  -3.7999999999999978E-002     0.0000000000000000     
  -3.6499999999999977E-002     0.0000000000000000     
  -3.4999999999999976E-002     0.0000000000000000     
  -3.3499999999999974E-002     0.0000000000000000     
  -3.1999999999999973E-002     0.0000000000000000     
  -3.0499999999999972E-002     0.0000000000000000     
  -2.8999999999999970E-002     0.0000000000000000     
  -2.7499999999999969E-002     0.0000000000000000     
  -2.5999999999999968E-002     0.0000000000000000     
  -2.4499999999999966E-002     0.0000000000000000     
  -2.2999999999999993E-002     0.0000000000000000     
  -2.1499999999999991E-002     0.0000000000000000     
  -1.9999999999999990E-002     0.0000000000000000     
  -1.8499999999999989E-002     0.0000000000000000     
  -1.6999999999999987E-002     0.0000000000000000     
  -1.5499999999999986E-002     0.0000000000000000     
  -1.3999999999999985E-002     0.0000000000000000     
  -1.2499999999999983E-002     0.0000000000000000     
  -1.0999999999999982E-002     0.0000000000000000     
  -9.4999999999999807E-003     0.0000000000000000     
  -7.9999999999999793E-003     0.0000000000000000     
  -6.4999999999999780E-003     0.0000000000000000     
  -4.9999999999999767E-003     0.0000000000000000     
  -3.4999999999999754E-003     0.0000000000000000     
  -1.9999999999999740E-003     0.0000000000000000     
  -4.9999999999997269E-004     0.0000000000000000     
   1.0000000000000286E-003     0.0000000000000000     
   2.5000000000000300E-003     0.0000000000000000     
   4.0000000000000313E-003     0.0000000000000000     
   5.5000000000000326E-003     0.0000000000000000     
   7.0000000000000340E-003     0.0000000000000000     
   8.5000000000000075E-003     0.0000000000000000     
   1.0000000000000009E-002     0.0000000000000000     
   1.1500000000000010E-002     0.0000000000000000     
   1.3000000000000012E-002     0.0000000000000000     
   1.4500000000000013E-002     0.0000000000000000     
   1.6000000000000014E-002     0.0000000000000000     
   1.7500000000000016E-002     0.0000000000000000     
   1.9000000000000017E-002     0.0000000000000000     
   2.0500000000000018E-002     0.0000000000000000     
   2.2000000000000020E-002     0.0000000000000000     
   2.3500000000000021E-002     0.0000000000000000     
   2.5000000000000022E-002     0.0000000000000000     
   2.6500000000000024E-002     0.0000000000000000     
   2.8000000000000025E-002     0.0000000000000000     
   2.9500000000000026E-002     0.0000000000000000     
   3.1000000000000028E-002     0.0000000000000000     
   3.2500000000000029E-002     0.0000000000000000     
   3.4000000000000030E-002     0.0000000000000000     
   3.5500000000000032E-002     0.0000000000000000     
   3.7000000000000033E-002     0.0000000000000000     
   3.8500000000000034E-002     0.0000000000000000     
   4.0000000000000008E-002     0.0000000000000000     
   4.1500000000000009E-002     0.0000000000000000     
   4.3000000000000010E-002     0.0000000000000000     
   4.4500000000000012E-002     0.0000000000000000     
   4.6000000000000013E-002     0.0000000000000000     
   4.7500000000000014E-002     0.0000000000000000     
   4.9000000000000016E-002     0.0000000000000000     
   5.0500000000000017E-002     0.0000000000000000     
   5.2000000000000018E-002     0.0000000000000000     
   5.3500000000000020E-002     0.0000000000000000     
   5.5000000000000021E-002     0.0000000000000000     
   5.6500000000000022E-002     0.0000000000000000     
   5.8000000000000024E-002     0.0000000000000000     
   5.9500000000000025E-002     0.0000000000000000     
   6.1000000000000026E-002     0.0000000000000000     
   6.2500000000000028E-002     0.0000000000000000     
   6.4000000000000029E-002     0.0000000000000000     
   6.5500000000000030E-002     0.0000000000000000     
   6.7000000000000032E-002     0.0000000000000000     
   6.8500000000000033E-002     0.0000000000000000     
   7.0000000000000034E-002     0.0000000000000000     
   7.1500000000000036E-002     0.0000000000000000     
   7.3000000000000037E-002     0.0000000000000000     
   7.4500000000000038E-002     0.0000000000000000     
   7.6000000000000040E-002     0.0000000000000000     
   7.7500000000000041E-002     0.0000000000000000     
   7.9000000000000042E-002     0.0000000000000000     
   8.0500000000000044E-002     0.0000000000000000     
   8.2000000000000045E-002     0.0000000000000000     
   8.3500000000000046E-002     0.0000000000000000     
   8.5000000000000048E-002     0.0000000000000000     
   8.6500000000000049E-002     0.0000000000000000     
   8.8000000000000050E-002     0.0000000000000000     
   8.9499999999999996E-002     0.0000000000000000     
   9.0999999999999998E-002     0.0000000000000000     
   9.2499999999999999E-002     0.0000000000000000     
   9.4000000000000000E-002     0.0000000000000000     
   9.5500000000000002E-002     0.0000000000000000     
   9.7000000000000003E-002     0.0000000000000000     
   9.8500000000000004E-002     0.0000000000000000     
  0.10000000000000001          0.0000000000000000     
  0.10150000000000001          0.0000000000000000     
  0.10300000000000001          0.0000000000000000     
  0.10450000000000001          0.0000000000000000     
  0.10600000000000001          0.0000000000000000     
  0.10750000000000001          0.0000000000000000     
  0.10900000000000001          0.0000000000000000     
  0.11050000000000001          0.0000000000000000     
  0.11200000000000002          0.0000000000000000     
  0.11350000000000002          0.0000000000000000     
  0.11500000000000002          0.0000000000000000     
  0.11650000000000002          0.0000000000000000     
  0.11800000000000002          0.0000000000000000     
  0.11950000000000002          0.0000000000000000     
  0.12100000000000002          0.0000000000000000     
  0.12250000000000003          0.0000000000000000     
  0.12400000000000003          0.0000000000000000     
  0.12550000000000003          0.0000000000000000     
  0.12700000000000003          0.0000000000000000     
  0.12850000000000003          0.0000000000000000     
  0.13000000000000003          0.0000000000000000     
  0.13150000000000003          0.0000000000000000     
  0.13300000000000003          0.0000000000000000     
  0.13450000000000004          0.0000000000000000     
  0.13600000000000004          0.0000000000000000     
  0.13750000000000004          0.0000000000000000     
  0.13900000000000004          0.0000000000000000     
  0.14050000000000004          0.0000000000000000     
  0.14200000000000004          0.0000000000000000     
  0.14350000000000004          0.0000000000000000     
  0.14500000000000005          0.0000000000000000     
  0.14650000000000005          0.0000000000000000     
  0.14800000000000005          0.0000000000000000     
  0.14950000000000005          0.0000000000000000     
  0.15100000000000005          0.0000000000000000     
  0.15250000000000000          0.0000000000000000     
  0.15400000000000000          0.0000000000000000     
  0.15550000000000000          0.0000000000000000     
  0.15700000000000000          0.0000000000000000     
  0.15850000000000000          0.0000000000000000     
  0.16000000000000000          0.0000000000000000     
  0.16150000000000000          0.0000000000000000     
  0.16300000000000001          0.0000000000000000     
  0.16450000000000001          0.0000000000000000     
  0.16600000000000001          0.0000000000000000     
  0.16750000000000001          0.0000000000000000     
  0.16900000000000001          0.0000000000000000     
  0.17050000000000001          0.0000000000000000     
  0.17200000000000001          0.0000000000000000     
  0.17350000000000002          0.0000000000000000     
  0.17500000000000002          0.0000000000000000     
  0.17650000000000002          0.0000000000000000     
  0.17800000000000002          0.0000000000000000     
  0.17950000000000002          0.0000000000000000     
  0.18100000000000002          0.0000000000000000     
  0.18250000000000002          0.0000000000000000     
  0.18400000000000002          0.0000000000000000     
  0.18550000000000003          0.0000000000000000     
  0.18700000000000003          0.0000000000000000     
  0.18850000000000003          0.0000000000000000     
  0.19000000000000003          0.0000000000000000     
  0.19150000000000003          0.0000000000000000     
  0.19300000000000003          0.0000000000000000     
  0.19450000000000003          0.0000000000000000     
  0.19600000000000004          0.0000000000000000     
  0.19750000000000004          0.0000000000000000     
  0.19900000000000004          0.0000000000000000     
  0.20050000000000004          0.0000000000000000     
  0.20200000000000004          0.0000000000000000     
  0.20350000000000004          0.0000000000000000     
  0.20500000000000004          0.0000000000000000     
  0.20650000000000004          0.0000000000000000     
  0.20800000000000005          0.0000000000000000     
  0.20950000000000005          0.0000000000000000     
  0.21100000000000005          0.0000000000000000     
  0.21250000000000005          0.0000000000000000     
  0.21400000000000005          0.0000000000000000     
  0.21550000000000005          0.0000000000000000     
  0.21700000000000000          0.0000000000000000     
  0.21850000000000000          1.7743106522662012E-039
  0.22000000000000000          2.7910479620262142E-039
  0.22150000000000000          3.2399891671536803E-039
  0.22300000000000000          2.6665216533095350E-039
  0.22450000000000001          0.0000000000000000     
  0.22600000000000001         -2.2866204975171678E-039
  0.22750000000000001         -6.0250679423522243E-039
  0.22900000000000001          1.9046057164313256E-039
  0.23050000000000001          2.9899309469582640E-039
  0.23200000000000001          3.5874080148305498E-039
  0.23350000000000001         -3.4536484243470779E-039
  0.23500000000000001          6.3184127077585863E-039
  0.23650000000000002          7.2234136933813867E-039
  0.23800000000000002          9.8197340444891668E-039
  0.23950000000000002          7.6509636794326069E-039
  0.24100000000000002          1.6936288808473332E-039
  0.24250000000000002         -1.2430858678315962E-038
  0.24400000000000002         -2.0852578207967202E-038
  0.24550000000000002         -2.9131532726973576E-038
  0.24700000000000003         -3.4002956216645905E-038
  0.24850000000000003         -2.9547517367345655E-038
  0.25000000000000000         -1.2949617591448426E-038
  0.25150000000000006          1.5808839065625495E-038
  0.25300000000000000          5.2683280061359280E-038
  0.25450000000000006          8.9080431967923403E-038
  0.25600000000000001          1.1263167206466699E-037
  0.25750000000000006          1.0961458244443551E-037
  0.25900000000000001          6.8802688231094132E-038
  0.26050000000000006         -1.3704895918730222E-038
  0.26200000000000001         -1.3133661510997766E-037
  0.26350000000000007         -2.5724350471720741E-037
  0.26500000000000001         -3.5928844996503474E-037
  0.26650000000000007         -3.9142696830394530E-037
  0.26800000000000002         -3.1151617442950002E-037
  0.26950000000000007         -9.4494048095788192E-038
  0.27100000000000002          2.5204773052255207E-037
  0.27250000000000008          6.7583585388492321E-037
  0.27400000000000002          1.0767686989926217E-036
  0.27550000000000008          1.3174741108968971E-036
  0.27700000000000002          1.2501550657305696E-036
  0.27850000000000008          7.5834302741546225E-037
  0.28000000000000003         -1.9304030422213095E-037
  0.28149999999999997         -1.5112901766073116E-036
  0.28300000000000003         -2.9490740776836423E-036
  0.28449999999999998         -4.1137094231047928E-036
  0.28600000000000003         -4.5250445668283270E-036
  0.28749999999999998         -3.7248303029605196E-036
  0.28900000000000003         -1.4260386206907228E-036
  0.29049999999999998          2.3262796318303763E-036
  0.29200000000000004          7.0263512198784647E-036
  0.29349999999999998          1.1663414136189344E-035
  0.29500000000000004          1.4810354895276426E-035
  0.29649999999999999          1.4874176137732042E-035
  0.29800000000000004          1.0501114036305062E-035
  0.29949999999999999          1.0804798082263223E-036
  0.30100000000000005         -1.2760690531793376E-035
  0.30250000000000010         -2.8821369916106139E-035
  0.30400000000000005         -4.3312496006851902E-035
  0.30550000000000010         -5.1301487027507304E-035
  0.30700000000000005         -4.7673930261772986E-035
  0.30850000000000011         -2.8545149501562157E-035
  0.31000000000000005          7.1027204074990640E-036
  0.31150000000000011          5.5936934680540657E-035
  0.31300000000000006          1.0943141295747233E-034
  0.31450000000000000          1.5416494430525114E-034
  0.31600000000000006          1.7363605972126826E-034
  0.31750000000000000          1.5169055107302706E-034
  0.31900000000000006          7.7242357746269345E-035
  0.32050000000000001         -5.0523491470186858E-035
  0.32200000000000006         -2.1773099033008092E-034
  0.32350000000000001         -3.9372279960847829E-034
  0.32500000000000007         -5.3280918152168713E-034
  0.32650000000000001         -5.8089240440297160E-034
  0.32800000000000007         -4.8706812606337692E-034
  0.32950000000000002         -2.1897432140089266E-034
  0.33100000000000007          2.2084705734306137E-034
  0.33250000000000002          7.8164688463313761E-034
  0.33400000000000007          1.3590477025630366E-033
  0.33550000000000002          1.8020548805335117E-033
  0.33700000000000008          1.9354544064843743E-033
  0.33850000000000002          1.5975500890546741E-033
  0.34000000000000008          6.8906262473057440E-034
  0.34150000000000003         -7.7556250789102339E-034
  0.34300000000000008         -2.6271795111948319E-033
  0.34450000000000003         -4.5261628161982110E-033
  0.34600000000000009         -5.9856688391701095E-033
  0.34750000000000003         -6.4427797344316224E-033
  0.34900000000000009         -5.3771474866983089E-033
  0.35050000000000003         -2.4641984195219492E-033
  0.35200000000000009          2.2639203322231011E-033
  0.35350000000000004          8.2884767347432912E-033
  0.35500000000000009          1.4550847150081167E-032
  0.35650000000000004          1.9518329793653183E-032
  0.35800000000000010          2.1397081409675013E-032
  0.35950000000000004          1.8492874558836752E-032
  0.36100000000000010          9.6829564638043368E-033
  0.36250000000000004         -5.0793608060313823E-033
  0.36400000000000010         -2.4343186781096389E-032
  0.36550000000000005         -4.4958804654970770E-032
  0.36700000000000010         -6.2229007603538179E-032
  0.36850000000000005         -7.0505567051088563E-032
  0.37000000000000011         -6.4246053348143627E-032
  0.37150000000000005         -3.9437261764685954E-032
  0.37300000000000011          4.8331602276922672E-033
  0.37450000000000006          6.4990557117923175E-032
  0.37600000000000011          1.3218254297772990E-031
  0.37750000000000006          1.9249356132069070E-031
  0.37900000000000000          2.2847797785931029E-031
  0.38050000000000006          2.2211542840033503E-031
  0.38200000000000001          1.5898576872829473E-031
  0.38350000000000006          3.3092965696831334E-032
  0.38500000000000001         -1.4859198647647771E-031
  0.38650000000000007         -3.6305882094320566E-031
  0.38800000000000001         -5.7091837107468977E-031
  0.38950000000000007         -7.1985172556039387E-031
  0.39100000000000001         -7.5237353318840642E-031
  0.39250000000000007         -6.1760464912615875E-031
  0.39400000000000002         -2.8569537159025270E-031
  0.39550000000000007          2.3755616184439756E-031
  0.39700000000000002          8.9924131265941309E-031
  0.39850000000000008          1.5948196308298737E-030
  0.40000000000000002          2.1740133729810829E-030
  0.40150000000000008          2.4593929384314599E-030
  0.40300000000000002          2.2777751352662493E-030
  0.40450000000000008          1.5016735343353358E-030
  0.40600000000000003          9.4762680891555682E-032
  0.40750000000000008         -1.8476057368284919E-030
  0.40900000000000003         -4.0737815646706246E-030
  0.41050000000000009         -6.1781135367784247E-030
  0.41200000000000003         -7.6388600001588451E-030
  0.41350000000000009         -7.8953601495265844E-030
  0.41500000000000004         -6.4605114743853011E-030
  0.41650000000000009         -3.0554629378783551E-030
  0.41800000000000004          2.2559663696004143E-030
  0.41950000000000010          8.9630126215011309E-030
  0.42100000000000004          1.6067047752396523E-029
  0.42250000000000010          2.2134263055836519E-029
  0.42400000000000004          2.5461813422753380E-029
  0.42550000000000010          2.4359002746432732E-029
  0.42700000000000005          1.7520623842854919E-029
  0.42850000000000010          4.4421034607096952E-030
  0.43000000000000005         -1.4199414993856317E-029
  0.43150000000000011         -3.6291350612412390E-029
  0.43300000000000005         -5.8255699156901518E-029
  0.43450000000000011         -7.5322863380592218E-029
  0.43600000000000005         -8.2150419286500163E-029
  0.43750000000000011         -7.3768403109009361E-029
  0.43900000000000006         -4.6757778963377816E-029
  0.44050000000000000         -4.8978043109445832E-031
  0.44200000000000006          6.1814554141460074E-029
  0.44350000000000001          1.3248358152653645E-028
  0.44500000000000006          1.9952696031940082E-028
  0.44650000000000001          2.4770801830177587E-028
  0.44800000000000006          2.6063708402474147E-028
  0.44950000000000001          2.2378120902461479E-028
  0.45100000000000007          1.2806479449279388E-028
  0.45250000000000001         -2.6485300020887414E-029
  0.45400000000000007         -2.2778124801047458E-028
  0.45550000000000002         -4.5021774088230861E-028
  0.45700000000000007         -6.5548817878379235E-028
  0.45850000000000002         -7.9622508038658810E-028
  0.46000000000000008         -8.2262196534732219E-028
  0.46150000000000002         -6.9164930947329839E-028
  0.46300000000000008         -3.7783539132300344E-028
  0.46450000000000002          1.1603014573768755E-028
  0.46600000000000008          7.5042321346712658E-028
  0.46750000000000003          1.4451924946641175E-027
  0.46900000000000008          2.0824415191676154E-027
  0.47050000000000003          2.5177106799075501E-027
  0.47200000000000009          2.5998407666844777E-027
  0.47350000000000003          2.1983425270723047E-027
  0.47500000000000009          1.2352670843218409E-027
  0.47650000000000003         -2.8316366576489588E-028
  0.47800000000000009         -2.2413368028864338E-027
  0.47950000000000004         -4.4022018235565207E-027
  0.48100000000000009         -6.4147192922217523E-027
  0.48250000000000004         -7.8453047577358911E-027
  0.48400000000000010         -8.2346051518268666E-027
  0.48550000000000004         -7.1765717867224319E-027
  0.48700000000000010         -4.4116763442798379E-027
  0.48850000000000005          7.8841636852787147E-029
  0.49000000000000010          5.9950683612202874E-027
  0.49150000000000005          1.2676146686927343E-026
  0.49300000000000010          1.9112232235447225E-026
  0.49450000000000005          2.4024664521206540E-026
  0.49600000000000011          2.6020011967008456E-026
  0.49750000000000005          2.3811811077683716E-026
  0.49900000000000011          1.6489644727484172E-026
  0.50050000000000006          3.8007167640845515E-027
  0.50200000000000011         -1.3603541269313381E-026
  0.50350000000000006         -3.4010583075747246E-026
  0.50500000000000000         -5.4634649737052051E-026
  0.50650000000000006         -7.1794249191927828E-026
  0.50800000000000001         -8.1303558402190465E-026
  0.50950000000000006         -7.9070956434961178E-026
  0.51100000000000001         -6.1859486821696174E-026
  0.51250000000000007         -2.8121963234502879E-026
  0.51400000000000001          2.1214646470760488E-026
  0.51550000000000007          8.2168374117651023E-026
  0.51700000000000002          1.4748656609978352E-025
  0.51850000000000007          2.0694003686313842E-025
  0.52000000000000002          2.4822444482811904E-025
  0.52150000000000007          2.5849052341794618E-025
  0.52300000000000002          2.2642048692736451E-025
  0.52450000000000008          1.4465293591648545E-025
  0.52600000000000002          1.2239441472736285E-026
  0.52750000000000008         -1.6327863448810862E-025
  0.52900000000000003         -3.6463828469353384E-025
  0.53050000000000008         -5.6492349652271203E-025
  0.53200000000000003         -7.2929903363341334E-025
  0.53350000000000009         -8.1859848493617847E-025
  0.53500000000000003         -7.9469779573909579E-025
  0.53650000000000009         -6.2728423463452062E-025
  0.53800000000000003         -3.0129217813683135E-025
  0.53950000000000009          1.7605138803772014E-025
  0.54100000000000004          7.6985064166100880E-025
  0.54250000000000009          1.4152151938669925E-024
  0.54400000000000004          2.0192430626409698E-024
  0.54550000000000010          2.4682202843145772E-024
  0.54700000000000004          2.6403532212942506E-024
  0.54850000000000010          2.4235234687479398E-024
  0.55000000000000004          1.7366007965262518E-024
  0.55150000000000010          5.5185780306071142E-025
  0.55300000000000005         -1.0848520834969009E-024
  0.55450000000000010         -3.0400445042854706E-024
  0.55600000000000005         -5.0887133708429153E-024
  0.55750000000000011         -6.9240962751154417E-024
  0.55900000000000005         -8.1834171045343690E-024
  0.56050000000000011         -8.4900102389156863E-024
  0.56200000000000006         -7.5097388723866832E-024
  0.56350000000000011         -5.0168018285904425E-024
  0.56500000000000006         -9.6114268169224713E-025
  0.56650000000000011          4.4727323350464560E-024
  0.56800000000000006          1.0827157793041141E-023
  0.56950000000000001          1.7364686616197279E-023
  0.57100000000000006          2.3103408179383491E-023
  0.57250000000000001          2.6900435156589274E-023
  0.57400000000000007          2.7584036416083741E-023
  0.57550000000000001          2.4127543279190722E-023
  0.57700000000000007          1.5849914513630354E-023
  0.57850000000000001          2.6195338416056580E-024
  0.58000000000000007         -1.4968965604544103E-023
  0.58150000000000002         -3.5479124095301083E-023
  0.58300000000000007         -5.6612735612801406E-023
  0.58450000000000002         -7.5314780467129895E-023
  0.58600000000000008         -8.8021625055676343E-023
  0.58750000000000002         -9.1054338812041424E-023
  0.58900000000000008         -8.1138184296054381E-023
  0.59050000000000002         -5.6005077540839204E-023
  0.59200000000000008         -1.5012846578801313E-023
  0.59350000000000003          4.0305570611059668E-023
  0.59500000000000008          1.0586205224936435E-022
  0.59650000000000003          1.7490318213924220E-022
  0.59800000000000009          2.3825795577103652E-022
  0.59950000000000003          2.8500281935493374E-022
  0.60100000000000009          3.0355927513019127E-022
  0.60250000000000004          2.8318072847541324E-022
  0.60400000000000009          2.1572023940708664E-022
  0.60550000000000004          9.7501720371084535E-023
  0.60700000000000010         -6.8941803314253462E-023
  0.60850000000000004         -2.7354083205989143E-022
  0.61000000000000010         -4.9806525111614180E-022
  0.61150000000000004         -7.1647090015662484E-022
  0.61300000000000010         -8.9641857921884863E-022
  0.61450000000000005         -1.0020574491118096E-021
  0.61600000000000010         -9.9801481717760716E-022