 -0.19999999999999998          0.0000000000000000     
 -0.19849999999999998          0.0000000000000000     
 -0.19699999999999998          0.0000000000000000     
 -0.19549999999999998          0.0000000000000000     
 -0.19399999999999998          0.0000000000000000     
 -0.19249999999999998          0.0000000000000000     
 -0.19099999999999998          0.0000000000000000     
 -0.18949999999999997          0.0000000000000000     
 -0.18799999999999997          0.0000000000000000     
 -0.18649999999999997          0.0000000000000000     
 -0.18500000000000000          0.0000000000000000     
 -0.18350000000000000          0.0000000000000000     
 -0.18200000000000000          0.0000000000000000     
 -0.18049999999999999          0.0000000000000000     
 -0.17899999999999999          0.0000000000000000     
 -0.17749999999999999          0.0000000000000000     
 -0.17599999999999999          0.0000000000000000     
 -0.17449999999999999          0.0000000000000000     
 -0.17299999999999999          0.0000000000000000     
 -0.17149999999999999          0.0000000000000000     
 -0.16999999999999998          0.0000000000000000     
 -0.16849999999999998          0.0000000000000000     
 -0.16699999999999998          0.0000000000000000     
 -0.16549999999999998          0.0000000000000000     
 -0.16399999999999998          0.0000000000000000     
 -0.16249999999999998          0.0000000000000000     
 -0.16099999999999998          0.0000000000000000     
 -0.15949999999999998          0.0000000000000000     
 -0.15799999999999997          0.0000000000000000     
 -0.15649999999999997          0.0000000000000000     
 -0.15499999999999997          0.0000000000000000     
 -0.15349999999999997          0.0000000000000000     
 -0.15199999999999997          0.0000000000000000     
 -0.15049999999999997          0.0000000000000000     
 -0.14899999999999997          0.0000000000000000     
 -0.14749999999999999          0.0000000000000000     
 -0.14599999999999999          0.0000000000000000     
 -0.14449999999999999          0.0000000000000000     
 -0.14299999999999999          0.0000000000000000     
 -0.14149999999999999          0.0000000000000000     
 -0.13999999999999999          5.0736894363156899E-039
 -0.13849999999999998         -2.4363766984078483E-038
 -0.13699999999999998         -9.7206928236312181E-038
 -0.13549999999999998         -2.0441377393150663E-037
 -0.13399999999999998         -2.0750317419398568E-037
 -0.13249999999999998          2.6364250811018487E-037
 -0.13099999999999998          1.6424579152328306E-036
 -0.12949999999999998          3.4852093447261085E-036
 -0.12799999999999997          3.0036924788182285E-036
 -0.12650000000000000         -5.3719688427689779E-036
 -0.12499999999999999         -2.5771535634140225E-035
 -0.12349999999999998         -4.8723958918072223E-035
 -0.12199999999999998         -3.5696075331641141E-035
 -0.12049999999999998          7.8147897260293709E-035
 -0.11899999999999998          3.2614067064453652E-034
 -0.11749999999999998          5.7848517157150852E-034
 -0.11599999999999998          4.0672974199191468E-034
 -0.11449999999999998         -8.3393006459619183E-034
 -0.11299999999999998         -3.3953976944582861E-033
 -0.11149999999999999         -5.9331944581158130E-033
 -0.10999999999999999         -4.4465356033468202E-033
 -0.10849999999999999          6.7450267421048636E-033
 -0.10699999999999998          2.9704753922262973E-032
 -0.10549999999999998          5.3250970868091016E-032
 -0.10399999999999998          4.5164857445799024E-032
 -0.10249999999999998         -3.9753441397132534E-032
 -0.10099999999999998         -2.2035690495328731E-031
  -9.9499999999999977E-002    -4.2021207275683574E-031
  -9.7999999999999976E-002    -4.1224531663162244E-031
  -9.6499999999999975E-002     1.3073603123487630E-031
  -9.4999999999999987E-002     1.3819489235201620E-030
  -9.3499999999999986E-002     2.9134395564438289E-030
  -9.1999999999999985E-002     3.3164188449708513E-030
  -9.0499999999999983E-002     4.3803720869020351E-031
  -8.8999999999999982E-002    -7.1788554316406939E-030
  -8.7499999999999981E-002    -1.7657071000877765E-029
  -8.5999999999999979E-002    -2.3317041864483727E-029
  -8.4499999999999978E-002    -1.1348280644418461E-029
  -8.2999999999999977E-002     2.9050186226912125E-029
  -8.1499999999999975E-002     9.2529281050951198E-029
  -7.9999999999999988E-002     1.4270397419240109E-028
  -7.8499999999999986E-002     1.1113612870236780E-028
  -7.6999999999999985E-002    -7.2112225658757091E-029
  -7.5499999999999984E-002    -4.1003940261158907E-028
  -7.3999999999999982E-002    -7.5674122759067675E-028
  -7.2499999999999981E-002    -7.8710851801023219E-028
  -7.0999999999999980E-002    -1.0534305632730967E-028
  -6.9499999999999978E-002     1.4588255549919157E-027
  -6.7999999999999977E-002     3.4426822617004338E-027
  -6.6499999999999976E-002     4.4927330177118163E-027
  -6.4999999999999974E-002     2.6497107459896370E-027
  -6.3499999999999973E-002    -3.5239539985166817E-027
  -6.1999999999999972E-002    -1.3131243846222401E-026
  -6.0499999999999970E-002    -2.1362419984420022E-026
  -5.8999999999999969E-002    -1.9759232052689263E-026
  -5.7499999999999968E-002     1.3058608149829936E-028
  -5.5999999999999966E-002     3.9606023262836040E-026
  -5.4499999999999993E-002     8.4929261429199756E-026
  -5.2999999999999992E-002     1.0459190695776182E-025
  -5.1499999999999990E-002     5.8646453562220001E-026
  -4.9999999999999989E-002    -7.6725273569840949E-026
  -4.8499999999999988E-002    -2.7578795250292527E-025
  -4.6999999999999986E-002    -4.3991422947562302E-025
  -4.5499999999999985E-002    -4.1132116613164585E-025
  -4.3999999999999984E-002    -4.4352672189138412E-026
  -4.2499999999999982E-002     6.7297021696602541E-025
  -4.0999999999999981E-002     1.4988463295153254E-024
  -3.9499999999999980E-002     1.9109500480880637E-024
  -3.7999999999999978E-002     1.2671715273325271E-024
  -3.6499999999999977E-002    -8.1844187020546754E-025
  -3.4999999999999976E-002    -3.9941610040825903E-024
  -3.3499999999999974E-002    -6.8528709280465641E-024
  -3.1999999999999973E-002    -7.1297860497988861E-024
  -3.0499999999999972E-002    -2.6563298916821615E-024
  -2.8999999999999970E-002     7.0510420623174671E-024
  -2.7499999999999969E-002     1.9221299424354696E-023
  -2.5999999999999968E-002     2.7380716549831880E-023
  -2.4499999999999966E-002     2.3120811290753091E-023
  -2.2999999999999993E-002     4.1213603440411036E-025
  -2.1499999999999991E-002    -3.8710162816250684E-023
  -1.9999999999999990E-002    -7.9970632147073495E-023
  -1.8499999999999989E-002    -9.7964334732918708E-023
  -1.6999999999999987E-002    -6.5295108635341577E-023
  -1.5499999999999986E-002     3.1019816564595022E-023
  -1.3999999999999985E-002     1.7184921698844219E-022
  -1.2499999999999983E-002     2.9749939143508212E-022
  -1.0999999999999982E-002     3.1967153195057819E-022
  -9.4999999999999807E-003     1.5883687541397510E-022
  -7.9999999999999793E-003    -2.0094694023906039E-022
  -6.4999999999999780E-003    -6.6340740231820605E-022
  -4.9999999999999767E-003    -1.0113085671776326E-021
  -3.4999999999999754E-003    -9.6630356298603235E-022
  -1.9999999999999740E-003    -3.2067549564343829E-022
  -4.9999999999997269E-004     8.9746688056436887E-022
   1.0000000000000286E-003     2.3056323944354787E-021
   2.5000000000000300E-003     3.1915512917561943E-021
   4.0000000000000313E-003     2.7452542263089113E-021
   5.5000000000000326E-003     4.7546410913753338E-022
   7.0000000000000340E-003    -3.3330292836199635E-021
   8.5000000000000075E-003    -7.3636468431689965E-021
   1.0000000000000009E-002    -9.4666146047603549E-021
   1.1500000000000010E-002    -7.4342407025335593E-021
   1.3000000000000012E-002    -2.0935791528976310E-022
   1.4500000000000013E-002     1.0933542104280942E-020
   1.6000000000000014E-002     2.1908241236940218E-020
   1.7500000000000016E-002     2.6651159522232441E-020
   1.9000000000000017E-002     1.9452639080081008E-020
   2.0500000000000018E-002    -1.7691446622044597E-021
   2.2000000000000020E-002    -3.2584348346456711E-020
   2.3500000000000021E-002    -6.1302710658063094E-020
   2.5000000000000022E-002    -7.1759510057892951E-020
   2.6500000000000024E-002    -4.9778439602587359E-020
   2.8000000000000025E-002     8.4444921075000200E-021
   2.9500000000000026E-002     8.9597217061156027E-020
   3.1000000000000028E-002     1.6242028561801847E-019
   3.2500000000000029E-002     1.8582991678969389E-019
   3.4000000000000030E-002     1.2568656485290423E-019
   3.5500000000000032E-002    -2.4713036646065506E-020
   3.7000000000000033E-002    -2.2934331643740714E-019
   3.8500000000000034E-002    -4.0935119184344379E-019
   4.0000000000000008E-002    -4.6453962711878990E-019
   4.1500000000000009E-002    -3.1450226932305716E-019
   4.3000000000000010E-002     5.3206787778593829E-020
   4.4500000000000012E-002     5.4906237945828025E-019
   4.6000000000000013E-002     9.8424736716456791E-019
   4.7500000000000014E-002     1.1231888828283861E-018
   4.9000000000000016E-002     7.7963221007233234E-019
   5.0500000000000017E-002    -7.3851596232739535E-020
   5.2000000000000018E-002    -1.2309971660844382E-018
   5.3500000000000020E-002    -2.2609069686507971E-018
   5.5000000000000021E-002    -2.6280867272214902E-018
   5.6500000000000022E-002    -1.9070809157197553E-018
   5.8000000000000024E-002    -2.4169203747587739E-020
   5.9500000000000025E-002     2.5785737787323537E-018
   6.1000000000000026E-002     4.9620109835173934E-018
   6.2500000000000028E-002     5.9475048113350229E-018
   6.4000000000000029E-002     4.5768923382841250E-018
   6.5500000000000030E-002     6.3149805995866375E-019
   6.7000000000000032E-002    -5.0094343544421189E-018
   6.8500000000000033E-002    -1.0390348480362791E-017
   7.0000000000000034E-002    -1.2998992567134130E-017
   7.1500000000000036E-002    -1.0713041174288952E-017
   7.3000000000000037E-002    -2.8851592856263784E-018
   7.4500000000000038E-002     8.8780811624827875E-018
   7.6000000000000040E-002     2.0692076681214771E-017
   7.7500000000000041E-002     2.7376670952920199E-017
   7.9000000000000042E-002     2.4326119027710077E-017
   8.0500000000000044E-002     9.7158508020336950E-018
   8.2000000000000045E-002    -1.3822575092484968E-017
   8.3500000000000046E-002    -3.8956308261905653E-017
   8.5000000000000048E-002    -5.5376502263298989E-017
   8.6500000000000049E-002    -5.3335641174278145E-017
   8.8000000000000050E-002    -2.8004270196656251E-017
   8.9499999999999996E-002     1.6988523742188059E-017
   9.0999999999999998E-002     6.8586769515906136E-017
   9.2499999999999999E-002     1.0706605082200266E-016
   9.4000000000000000E-002     1.1241041052229456E-016
   9.5500000000000002E-002     7.2632596125536568E-017
   9.7000000000000003E-002    -8.9212110489768769E-018
   9.8500000000000004E-002    -1.1062439305915906E-016
  0.10000000000000001         -1.9640424343891647E-016
  0.10150000000000001         -2.2660563420760820E-016
  0.10300000000000001         -1.7328254112009755E-016
  0.10450000000000001         -3.4804810017970661E-017
  0.10600000000000001          1.5638089587896689E-016
  0.10750000000000001          3.3778356823121153E-016
  0.10900000000000001          4.3410096000266109E-016
  0.11050000000000001          3.8406806327204288E-016
  0.11200000000000002          1.6856301255195001E-016
  0.11350000000000002         -1.7095595999657739E-016
  0.11500000000000002         -5.3341923335947277E-016
  0.11650000000000002         -7.8289922692686238E-016
  0.11800000000000002         -7.9316585709433517E-016
  0.11950000000000002         -4.9932146966102265E-016
  0.12100000000000002          6.1964827034516297E-017
  0.12250000000000003          7.4195026021979174E-016
  0.12400000000000003          1.3100397474438604E-015
  0.12550000000000003          1.5225141400981240E-015
  0.12700000000000003          1.2122488920373336E-015
  0.12850000000000003          3.6997805806486593E-016
  0.13000000000000003         -8.1561283073220190E-016
  0.13150000000000003         -1.9832357954439696E-015
  0.13300000000000003         -2.6946629519054519E-015
  0.13450000000000004         -2.5802635076071877E-015
  0.13600000000000004         -1.4910673317533637E-015
  0.13750000000000004          3.9750277885044679E-016
  0.13900000000000004          2.5786239869786605E-015
  0.14050000000000004          4.3266299762958183E-015
  0.14200000000000004          4.9129627703289199E-015
  0.14350000000000004          3.8685374537244522E-015
  0.14500000000000005          1.2073892004649280E-015
  0.14650000000000005         -2.4764561823015174E-015
  0.14800000000000005         -6.0989088251958984E-015
  0.14950000000000005         -8.3677904445614432E-015
  0.15100000000000005         -8.1952339316804478E-015
  0.15250000000000000         -5.1211121808383380E-015
  0.15400000000000000          3.9839675534114696E-016
  0.15550000000000000          6.9636844686607133E-015
  0.15700000000000000          1.2525777747535882E-014
  0.15850000000000000          1.4961863104010275E-014
  0.16000000000000000          1.2788527755090056E-014
  0.16150000000000000          5.7954412125937020E-015
  0.16300000000000001         -4.6309780249376687E-015
  0.16450000000000001         -1.5662001131935629E-014
  0.16600000000000001         -2.3697201760893087E-014
  0.16750000000000001         -2.5423327789880512E-014
  0.16900000000000001         -1.8980497297378717E-014
  0.17050000000000001         -4.8674708144263317E-015
  0.17200000000000001          1.3763452366823596E-014
  0.17350000000000002          3.1634126658540044E-014
  0.17500000000000002          4.2671621062691295E-014
  0.17650000000000002          4.1856109841136431E-014
  0.17800000000000002          2.7077101773860312E-014
  0.17950000000000002          3.9237287348920986E-016
  0.18100000000000002         -3.1834053477306801E-014
  0.18250000000000002         -6.0171884976077439E-014
  0.18400000000000002         -7.4600068700037205E-014
  0.18550000000000003         -6.7648913818367062E-014
  0.18700000000000003         -3.7317462534207468E-014
  0.18850000000000003          1.1219369473863377E-014
  0.19000000000000003          6.5893372718975941E-014
  0.19150000000000003          1.1029966387652472E-013
  0.19300000000000003          1.2813299721196023E-013
  0.19450000000000003          1.0843243927056573E-013
  0.19600000000000004          5.0106119709478879E-014
  0.19750000000000004         -3.5842777759521439E-014
  0.19900000000000004         -1.2752132007098755E-013
  0.20050000000000004         -1.9702696983059327E-013
  0.20200000000000004         -2.1812352013694045E-013
  0.20350000000000004         -1.7479247421761752E-013
  0.20500000000000004         -6.8129183849587302E-014
  0.20650000000000004          8.0861179132301911E-014
  0.20800000000000005          2.3414436541083327E-013
  0.20950000000000005          3.4528974510765091E-013
  0.21100000000000005          3.7216701414153681E-013
  0.21250000000000005          2.9050747925827197E-013
  0.21400000000000005          1.0437114769678641E-013
  0.21550000000000005         -1.5010582736920145E-013
  0.21700000000000000         -4.0984490002024432E-013
  0.21850000000000000         -5.9870001396084213E-013
  0.22000000000000000         -6.4737885002001446E-013
  0.22150000000000000         -5.1462090499902382E-013
  0.22300000000000000         -2.0385077972076765E-013
  0.22450000000000001          2.2998011527467100E-013
  0.22600000000000001          6.8667960061959163E-013
  0.22750000000000001          1.0404913543858392E-012
  0.22900000000000001          1.1699887769011891E-012
  0.23050000000000001          9.9199984513124453E-013
  0.23200000000000001          4.9151120992670259E-013
  0.23350000000000001         -2.6071818864697709E-013
  0.23500000000000001         -1.1094911239282997E-012
  0.23650000000000002         -1.8387911843259763E-012
  0.23800000000000002         -2.2163914125522057E-012
  0.23950000000000002         -2.0528680594704635E-012
  0.24100000000000002         -1.2633653440661502E-012
  0.24250000000000002          8.3240366218141880E-014
  0.24400000000000002          1.7441722166860229E-012
  0.24550000000000002          3.3251265274985960E-012
  0.24700000000000003          4.3512589804478636E-012
  0.24850000000000003          4.3810811477169597E-012
  0.25000000000000000          3.1432689303017988E-012
  0.25150000000000006          6.6310811487374311E-013
  0.25300000000000000         -2.6623642635340384E-012
  0.25450000000000006         -6.0788285190385931E-012
  0.25600000000000001         -8.6012909748642028E-012
  0.25750000000000006         -9.2469638469651557E-012
  0.25900000000000001         -7.3329712499267072E-012
  0.26050000000000006         -2.7642026456094802E-012
  0.26200000000000001          3.7820373862926338E-012
  0.26350000000000007          1.0861208492355746E-011
  0.26500000000000001          1.6505819747894869E-011
  0.26650000000000007          1.8693982654629981E-011
  0.26800000000000002          1.5951006111553170E-011
  0.26950000000000007          7.9267947143490697E-012
  0.27100000000000002         -4.2387302927847332E-012
  0.27250000000000008         -1.7925907956808564E-011
  0.27400000000000002         -2.9501490231122382E-011
  0.27550000000000008         -3.5192415066391753E-011
  0.27700000000000002         -3.2178649307843228E-011
  0.27850000000000008         -1.9609250718483953E-011
  0.28000000000000003          7.8650197951544231E-013
  0.28149999999999997          2.4752664434719761E-011
  0.28300000000000003          4.6320193815213050E-011
  0.28449999999999998          5.9252877717821444E-011
  0.28600000000000003          5.8780831664710654E-011
  0.28749999999999998          4.3137949995330267E-011
  0.28900000000000003          1.4416962650763801E-011
  0.29049999999999998         -2.1591539689226987E-011
  0.29200000000000004         -5.6631674433540002E-011
  0.29349999999999998         -8.2015670156626998E-011
  0.29500000000000004         -9.0916018291041944E-011
  0.29649999999999999         -8.0253574507824546E-011
  0.29800000000000004         -5.1603787407700112E-011
  0.29949999999999999         -1.0821970909745394E-011
  0.30100000000000005          3.3517996981830685E-011
  0.30250000000000010          7.2397126085857301E-011
  0.30400000000000005          9.8627980849686539E-011
  0.30550000000000010          1.0842775850209818E-010
  0.30700000000000005          1.0183023075376382E-010
  0.30850000000000011          8.1895856241719321E-011
  0.31000000000000005          5.3115045852179325E-011
  0.31150000000000011          1.9688607808237675E-011
  0.31300000000000006         -1.5607931899851234E-011
  0.31450000000000000         -5.1535818890850165E-011
  0.31600000000000006         -8.7501430759698617E-011
  0.31750000000000000         -1.2215628758350282E-010
  0.31900000000000006         -1.5226454765839836E-010
  0.32050000000000001         -1.7255590136366355E-010
  0.32200000000000006         -1.7687301564210440E-010
  0.32350000000000001         -1.6030113715947932E-010
  0.32500000000000007         -1.2139187575783058E-010
  0.32650000000000001         -6.3341366256614624E-011
  0.32800000000000007          6.7603077261388340E-012
  0.32950000000000002          8.0738253530896683E-011
  0.33100000000000007          1.5331668478958062E-010
  0.33250000000000002          2.2552508827698531E-010
  0.33400000000000007          3.0548400468891518E-010
  0.33550000000000002          4.0509644990545179E-010
  0.33700000000000008          5.3257871830148648E-010
  0.33850000000000002          6.8262989317771097E-010
  0.34000000000000008          8.2770565612781921E-010
  0.34150000000000003          9.1459752395198508E-010
  0.34300000000000008          8.6980439857813980E-010
  0.34450000000000003          6.1494339096348731E-010
  0.34600000000000009          9.0182575836857164E-011
  0.34750000000000003         -7.1963236217052740E-010
  0.34900000000000009         -1.7636563994751669E-009
  0.35050000000000003         -2.9160866426783264E-009
  0.35200000000000009         -3.9846965621969335E-009
  0.35350000000000004         -4.7375301276259985E-009
  0.35500000000000009         -4.9431742439657589E-009
  0.35650000000000004         -4.4156713879020856E-009
  0.35800000000000010         -3.0532443321815058E-009
  0.35950000000000004         -8.6147623668460056E-010
  0.36100000000000010          2.0438104704079841E-009
  0.36250000000000004          5.4523262003983102E-009
  0.36400000000000010          9.0860096957884108E-009
  0.36550000000000005          1.2625312011809660E-008
  0.36700000000000010          1.5724104358637104E-008
  0.36850000000000005          1.8006630759133736E-008
  0.37000000000000011          1.9047024980760100E-008
  0.37150000000000005          1.8339147633159087E-008
  0.37300000000000011          1.5269096368149517E-008
  0.37450000000000006          9.1026127363483438E-009
  0.37600000000000011         -1.0055510966705485E-009
  0.37750000000000006         -1.5982115358978837E-008
  0.37900000000000000         -3.6796825269857162E-008
  0.38050000000000006         -6.4432701272597761E-008
  0.38200000000000001         -9.9883199848275679E-008
  0.38350000000000006         -1.4418836149733987E-007
  0.38500000000000001         -1.9851105774786526E-007
  0.38650000000000007         -2.6424208526151680E-007
  0.38800000000000001         -3.4311381516722143E-007
  0.38950000000000007         -4.3730056282898527E-007
  0.39100000000000001         -5.4949046296216401E-007
  0.39250000000000007         -6.8292789202266524E-007
  0.39400000000000002         -8.4144100263630468E-007
  0.39550000000000007         -1.0294813613537543E-006
  0.39700000000000002         -1.2522061014529306E-006
  0.39850000000000008         -1.5156254673511759E-006
  0.40000000000000002         -1.8268188602258468E-006
  0.40150000000000008         -2.1942050370008280E-006
  0.40300000000000002         -2.6278286965028881E-006
  0.40450000000000008         -3.1396259719520005E-006
  0.40600000000000003         -3.7436340263069313E-006
  0.40750000000000008         -4.4561381603212228E-006
  0.40900000000000003         -5.2957741597406475E-006
  0.41050000000000009         -6.2836326914073241E-006
  0.41200000000000003         -7.4434307449559829E-006
  0.41350000000000009         -8.8017964818916466E-006
  0.41500000000000004         -1.0388706759622756E-005
  0.41650000000000009         -1.2238068727684057E-005
  0.41800000000000004         -1.4388396851870866E-005
  0.41950000000000010         -1.6883532296395784E-005
  0.42100000000000004         -1.9773327660683933E-005
  0.42250000000000010         -2.3114253228824072E-005
  0.42400000000000004         -2.6969930773801449E-005
  0.42550000000000010         -3.1411604948357251E-005
  0.42700000000000005         -3.6518659925610230E-005
  0.42850000000000010         -4.2379219971436826E-005
  0.43000000000000005         -4.9090903139982003E-005
  0.43150000000000011         -5.6761731538770614E-005
  0.43300000000000005         -6.5511166591317432E-005
  0.43450000000000011         -7.5471145476318705E-005
  0.43600000000000005         -8.6787098858574573E-005
  0.43750000000000011         -9.9618759478338137E-005
  0.43900000000000006         -1.1414085585939712E-004
  0.44050000000000000         -1.3054359804596556E-004
  0.44200000000000006         -1.4903312301057186E-004
  0.44350000000000001         -1.6983194032071895E-004
  0.44500000000000006         -1.9317941355442972E-004
  0.44650000000000001         -2.1933239169836269E-004
  0.44800000000000006         -2.4856572693852469E-004
  0.44950000000000001         -2.8117288307535465E-004
  0.45100000000000007         -3.1746611427437065E-004
  0.45250000000000001         -3.5777640265139278E-004
  0.45400000000000007         -4.0245291256822008E-004
  0.45550000000000002         -4.5186194813576165E-004
  0.45700000000000007         -5.0638565366423768E-004
  0.45850000000000002         -5.6642035838880311E-004
  0.46000000000000008         -6.3237473972030389E-004
  0.46150000000000002         -7.0466796453820773E-004
  0.46300000000000008         -7.8372749157018182E-004
  0.46450000000000002         -8.6998669462282118E-004
  0.46600000000000008         -9.6388194921663670E-004
  0.46750000000000003         -1.0658489451713521E-003
  0.46900000000000008         -1.1763180860575556E-003
  0.47050000000000003         -1.2957094140850492E-003
  0.47200000000000009         -1.4244269074117771E-003
  0.47350000000000003         -1.5628519209310598E-003
  0.47500000000000009         -1.7113369712791525E-003
  0.47650000000000003         -1.8701984285179173E-003
  0.47800000000000009         -2.0397102612056120E-003
  0.47950000000000004         -2.2200967741971243E-003
  0.48100000000000009         -2.4115256466350323E-003
  0.48250000000000004         -2.6140999959709706E-003
  0.48400000000000010         -2.8278503489018352E-003
  0.48550000000000004         -3.0527254594844028E-003
  0.48700000000000010         -3.2885838801743868E-003
  0.48850000000000005         -3.5351843757768049E-003
  0.49000000000000010         -3.7921778399329763E-003
  0.49150000000000005         -4.0590995067325397E-003
  0.49300000000000010         -4.3353613289806234E-003
  0.49450000000000005         -4.6202469325349674E-003
  0.49600000000000011         -4.9129051021482139E-003
  0.49750000000000005         -5.2123459759214012E-003
  0.49900000000000011         -5.5174366977944200E-003
  0.50050000000000006         -5.8268982402091881E-003
  0.50200000000000011         -6.1393025084182547E-003
  0.50350000000000006         -6.4530728561062491E-003
  0.50500000000000000         -6.7664845628658717E-003
  0.50650000000000006         -7.0776669464886963E-003
  0.50800000000000001         -7.3846109722510885E-003
  0.50950000000000006         -7.6851758507778534E-003
  0.51100000000000001         -7.9770998838406999E-003
  0.51250000000000007         -8.2580107050782073E-003
  0.51400000000000001         -8.5254416841983940E-003
  0.51550000000000007         -8.7768444331156464E-003
  0.51700000000000002         -9.0096042766638629E-003
  0.51850000000000007         -9.2210632947515789E-003
  0.52000000000000002         -9.4085343067549995E-003
  0.52150000000000007         -9.5693285093204419E-003
  0.52300000000000002         -9.7007765103482441E-003
  0.52450000000000008         -9.8002585435072245E-003
  0.52600000000000002         -9.8652305075184674E-003
  0.52750000000000008         -9.8932525591169176E-003
  0.52900000000000003         -9.8820196010356298E-003
  0.53050000000000008         -9.8293874718170665E-003
  0.53200000000000003         -9.7334004097609714E-003
  0.53350000000000009         -9.5923195524496019E-003
  0.53500000000000003         -9.4046466624383290E-003
  0.53650000000000009         -9.1691507835667818E-003
  0.53800000000000003         -8.8848902655288969E-003
  0.53950000000000009         -8.5512400516058462E-003
  0.54100000000000004         -8.1679106761359116E-003
  0.54250000000000009         -7.7349706149525688E-003
  0.54400000000000004         -7.2528569427095235E-003
  0.54550000000000010         -6.7223898166775403E-003
  0.54700000000000004         -6.1447775162701140E-003
  0.54850000000000010         -5.5216193915040568E-003
  0.55000000000000004         -4.8549031271618720E-003
  0.55150000000000010         -4.1469994212092742E-003
  0.55300000000000005         -3.4006543044427934E-003
  0.55450000000000010         -2.6189758692329451E-003
  0.55600000000000005         -1.8054177769374902E-003
  0.55750000000000011         -9.6376072640997484E-004
  0.55900000000000005         -9.8088823338594866E-005
  0.56050000000000011          7.8723987144099089E-004
  0.56200000000000006          1.6876258198334354E-003
  0.56350000000000011          2.5982652186212242E-003
  0.56500000000000006          3.5141906451302378E-003
  0.56650000000000011          4.4303143034815744E-003
  0.56800000000000006          5.3414710589823160E-003
  0.56950000000000001          6.2424643967253579E-003
  0.57100000000000006          7.1281098305040064E-003
  0.57250000000000001          7.9932788748954247E-003
  0.57400000000000007          8.8329441166773819E-003
  0.57550000000000001          9.6422232201643678E-003
  0.57700000000000007          1.0416420067189652E-002
  0.57850000000000001          1.1151069389218463E-002
  0.58000000000000007          1.1841979021774883E-002
  0.58150000000000002          1.2485268600325330E-002
  0.58300000000000007          1.3077406225481928E-002
  0.58450000000000002          1.3615237046881870E-002
  0.58600000000000008          1.4096010343914505E-002
  0.58750000000000002          1.4517400408942473E-002
  0.58900000000000008          1.4877524060631517E-002
  0.59050000000000002          1.5174946593302978E-002
  0.59200000000000008          1.5408694902774356E-002
  0.59350000000000003          1.5578257795421435E-002
  0.59500000000000008          1.5683590206917078E-002
  0.59650000000000003          1.5725098844731944E-002
  0.59800000000000009          1.5703641255232534E-002
  0.59950000000000003          1.5620511023932554E-002
  0.60100000000000009          1.5477412738726465E-002
  0.60250000000000004          1.5276444888265683E-002
  0.60400000000000009          1.5020067468219211E-002
  0.60550000000000004          1.4711072586727075E-002
  0.60700000000000010          1.4352547940978080E-002
  0.60850000000000004          1.3947842589009038E-002
  0.61000000000000010          1.3500531086581516E-002
  0.61150000000000004          1.3014376819235632E-002
  0.61300000000000010          1.2493291702796658E-002
  0.61450000000000005          1.1941302324557965E-002
  0.61600000000000010          1.1362508921495235E-002