 -0.19999999999999998          0.0000000000000000     
 -0.19849999999999998          0.0000000000000000     
 -0.19699999999999998          0.0000000000000000     
 -0.19549999999999998          0.0000000000000000     
 -0.19399999999999998          0.0000000000000000     
 -0.19249999999999998          0.0000000000000000     
 -0.19099999999999998          0.0000000000000000     
 -0.18949999999999997          0.0000000000000000     
 -0.18799999999999997          0.0000000000000000     
 -0.18649999999999997          0.0000000000000000     
 -0.18500000000000000          0.0000000000000000     
 -0.18350000000000000          0.0000000000000000     
 -0.18200000000000000          0.0000000000000000     
 -0.18049999999999999          0.0000000000000000     
 -0.17899999999999999          0.0000000000000000     
 -0.17749999999999999          0.0000000000000000     
 -0.17599999999999999          0.0000000000000000     
 -0.17449999999999999          0.0000000000000000     
 -0.17299999999999999          0.0000000000000000     
 -0.17149999999999999          0.0000000000000000     
 -0.16999999999999998          0.0000000000000000     
 -0.16849999999999998          1.0770745640916731E-038
 -0.16699999999999998          4.7056765655657072E-038
 -0.16549999999999998          8.2416752385015993E-038
 -0.16399999999999998         -1.1132647050209498E-037
 -0.16249999999999998         -1.3324406231619483E-036
 -0.16099999999999998         -5.3444941852448217E-036
 -0.15949999999999998         -1.3851503169059996E-035
 -0.15799999999999997         -2.1341817263382382E-035
 -0.15649999999999997          6.0875674443374560E-036
 -0.15499999999999997          1.6780833048127413E-034
 -0.15349999999999997          6.4146904284010530E-034
 -0.15199999999999997          1.5188946471805405E-033
 -0.15049999999999997          2.1534647700171377E-033
 -0.14899999999999997         -2.4240163088302828E-034
 -0.14749999999999999         -1.2069202614770497E-032
 -0.14599999999999999         -4.1479675903451528E-032
 -0.14449999999999999         -8.5679796509211202E-032
 -0.14299999999999999         -9.9328271855184519E-032
 -0.14149999999999999          4.8709067965844608E-032
 -0.13999999999999999          5.7688603956342628E-031
 -0.13849999999999998          1.6264191301137577E-030
 -0.13699999999999998          2.7803700580242692E-030
 -0.13549999999999998          2.2988208700775049E-030
 -0.13399999999999998         -3.3198100414420339E-030
 -0.13249999999999998         -1.7931433184816977E-029
 -0.13099999999999998         -4.0484350412589285E-029
 -0.12949999999999998         -5.5508454579546644E-029
 -0.12799999999999997         -2.4540937547906331E-029
 -0.12650000000000000          1.0720125752969103E-028
 -0.12499999999999999          3.6827854498453155E-028
 -0.12349999999999998          6.7244935765843850E-028
 -0.12199999999999998          7.1664045184553057E-028
 -0.12049999999999998         -2.7998443394458956E-029
 -0.11899999999999998         -2.0634316909923182E-027
 -0.11749999999999998         -5.2280179587123455E-027
 -0.11599999999999998         -7.8174327458457632E-027
 -0.11449999999999998         -6.0985609544073645E-027
 -0.11299999999999998          4.6652127525251716E-027
 -0.11149999999999999          2.6644892100398604E-026
 -0.10999999999999999          5.3625115866295837E-026
 -0.10849999999999999          6.5970805475124410E-026
 -0.10699999999999998          3.2484777274735061E-026
 -0.10549999999999998         -7.4134550850503676E-026
 -0.10399999999999998         -2.4689596540354705E-025
 -0.10249999999999998         -4.1068898264611698E-025
 -0.10099999999999998         -4.1263132834562036E-025
  -9.9499999999999977E-002    -7.1603163189813274E-026
  -9.7999999999999976E-002     6.9532582257036706E-025
  -9.6499999999999975E-002     1.7028006944491005E-024
  -9.4999999999999987E-002     2.3875899563988413E-024
  -9.3499999999999986E-002     1.9097281566209675E-024
  -9.1999999999999985E-002    -4.2814500074979730E-025
  -9.0499999999999983E-002    -4.5092063333254079E-024
  -8.8999999999999982E-002    -8.8112378032810322E-024
  -8.7499999999999981E-002    -1.0436935037898403E-023
  -8.5999999999999979E-002    -6.2308803862631618E-024
  -8.4499999999999978E-002     5.0752738645064466E-024
  -8.2999999999999977E-002     2.0624546978984475E-023
  -8.1499999999999975E-002     3.2795225154406243E-023
  -7.9999999999999988E-002     3.1757278856541430E-023
  -7.8499999999999986E-002     1.1324574850045128E-023
  -7.6999999999999985E-002    -2.4444694734812571E-023
  -7.5499999999999984E-002    -5.8808809653660258E-023
  -7.3999999999999982E-002    -6.8795792401886181E-023
  -7.2499999999999981E-002    -4.0857042439918788E-023
  -7.0999999999999980E-002     1.1888290913927593E-023
  -6.9499999999999978E-002     4.5446606191525659E-023
  -6.7999999999999977E-002     7.6103154302590449E-024
  -6.6499999999999976E-002    -1.1259748004086007E-022
  -6.4999999999999974E-002    -2.3364250426073616E-022
  -6.3499999999999973E-002    -1.7574778672049017E-022
  -6.1999999999999972E-002     2.5344117175455216E-022
  -6.0499999999999970E-002     1.0790090611297068E-021
  -5.8999999999999969E-002     1.9623261448811639E-021
  -5.7499999999999968E-002     2.1448000251944742E-021
  -5.5999999999999966E-002     7.0037083530617019E-022
  -5.4499999999999993E-002    -2.8509574502197377E-021
  -5.2999999999999992E-002    -7.7631044976965717E-021
  -5.1499999999999990E-002    -1.1591689406713396E-020
  -4.9999999999999989E-002    -1.0625184724672414E-020
  -4.8499999999999988E-002    -1.5760955514223890E-021
  -4.6999999999999986E-002     1.5778367510940172E-020
  -4.5499999999999985E-002     3.6209837961354646E-020
  -4.3999999999999984E-002     4.8734700741397828E-020
  -4.2499999999999982E-002     3.9965526261350191E-020
  -4.0999999999999981E-002     1.1952180066714999E-021
  -3.9499999999999980E-002    -6.3158243923362276E-020
  -3.7999999999999978E-002    -1.3041263797855820E-019
  -3.6499999999999977E-002    -1.6296580105671799E-019
  -3.4999999999999976E-002    -1.2271171857897922E-019
  -3.3499999999999974E-002     6.5332806574530717E-021
  -3.1999999999999973E-002     1.9828094399699342E-019
  -3.0499999999999972E-002     3.7780157316595539E-019
  -2.8999999999999970E-002     4.4241247424540062E-019
  -2.7499999999999969E-002     3.0743561156152769E-019
  -2.5999999999999968E-002    -3.8153935736340216E-020
  -2.4499999999999966E-002    -4.9536772376387318E-019
  -2.2999999999999993E-002    -8.6787038990199392E-019
  -2.1499999999999991E-002    -9.3606304840807267E-019
  -1.9999999999999990E-002    -5.7258619488636508E-019
  -1.8499999999999989E-002     1.5421245857248228E-019
  -1.6999999999999987E-002     9.5618028435799738E-019
  -1.5499999999999986E-002     1.4252954054265864E-018
  -1.3999999999999985E-002     1.2421828807002408E-018
  -1.2499999999999983E-002     4.0282002919146206E-019
  -1.0999999999999982E-002    -6.7513505242520768E-019
  -9.4999999999999807E-003    -1.2842626922993987E-018
  -7.9999999999999793E-003    -8.0991813175476058E-019
  -6.4999999999999780E-003     7.8328372745444714E-019
  -4.9999999999999767E-003     2.6415971761188915E-018
  -3.4999999999999754E-003     3.1818070762345633E-018
  -1.9999999999999740E-003     8.4299928590142191E-019
  -4.9999999999997269E-004    -4.7730918136435847E-018
   1.0000000000000286E-003    -1.1923443240523266E-017
   2.5000000000000300E-003    -1.6618968927442588E-017
   4.0000000000000313E-003    -1.3902862364028401E-017
   5.5000000000000326E-003    -4.1758805265601214E-019
   7.0000000000000340E-003     2.2650922803089138E-017
   8.5000000000000075E-003     4.7804174865416824E-017
   1.0000000000000009E-002     6.2210190946770737E-017
   1.1500000000000010E-002     5.2139843075435005E-017
   1.3000000000000012E-002     9.9539852846302506E-018
   1.4500000000000013E-002    -5.9031519651454177E-017
   1.6000000000000014E-002    -1.3348598558980030E-016
   1.7500000000000016E-002    -1.7992611705775556E-016
   1.9000000000000017E-002    -1.6421074001951270E-016
   2.0500000000000018E-002    -6.7755013342235087E-017
   2.2000000000000020E-002     9.7828228407913602E-017
   2.3500000000000021E-002     2.8528436263246856E-016
   2.5000000000000022E-002     4.2107309109225734E-016
   2.6500000000000024E-002     4.2975431170971653E-016
   2.8000000000000025E-002     2.6659078934114585E-016
   2.9500000000000026E-002    -5.4183850378949572E-017
   3.1000000000000028E-002    -4.4929990993853920E-016
   3.2500000000000029E-002    -7.8361182797585785E-016
   3.4000000000000030E-002    -9.1332108862178251E-016
   3.5500000000000032E-002    -7.4217364532827118E-016
   3.7000000000000033E-002    -2.6910319115259007E-016
   3.8500000000000034E-002     3.9449296314150606E-016
   4.0000000000000008E-002     1.0500842473591366E-015
   4.1500000000000009E-002     1.4754245103880369E-015
   4.3000000000000010E-002     1.5042139435925725E-015
   4.4500000000000012E-002     1.0903401194103674E-015
   4.6000000000000013E-002     3.2853106704382032E-016
   4.7500000000000014E-002    -5.7962693731194027E-016
   4.9000000000000016E-002    -1.4009803005361565E-015
   5.0500000000000017E-002    -1.9535009472360847E-015
   5.2000000000000018E-002    -2.1566781763113887E-015
   5.3500000000000020E-002    -2.0242208511851998E-015
   5.5000000000000021E-002    -1.6039277095700507E-015
   5.6500000000000022E-002    -9.0233489485587760E-016
   5.8000000000000024E-002     1.5066113957578153E-016
   5.9500000000000025E-002     1.6530742780537033E-015
   6.1000000000000026E-002     3.5950570279779572E-015
   6.2500000000000028E-002     5.6900018964954872E-015
   6.4000000000000029E-002     7.2722105633640561E-015
   6.5500000000000030E-002     7.3669190069154943E-015
   6.7000000000000032E-002     4.9884331255044291E-015
   6.8500000000000033E-002    -3.7681087986713112E-016
   7.0000000000000034E-002    -8.2597716725924235E-015
   7.1500000000000036E-002    -1.6907126305999269E-014
   7.3000000000000037E-002    -2.3418841666001931E-014
   7.4500000000000038E-002    -2.4441607260114226E-014
   7.6000000000000040E-002    -1.7331304074990297E-014
   7.7500000000000041E-002    -1.4677093550611892E-015
   7.9000000000000042E-002     2.0760939406239126E-014
   8.0500000000000044E-002     4.3800911455945107E-014
   8.2000000000000045E-002     5.9920294124493682E-014
   8.3500000000000046E-002     6.1305190587267578E-014
   8.5000000000000048E-002     4.2802469572471179E-014
   8.6500000000000049E-002     4.4909911167446170E-015
   8.8000000000000050E-002    -4.6872784984290223E-014
   8.9499999999999996E-002    -9.8312204571467141E-014
   9.0999999999999998E-002    -1.3328206103398331E-013
   9.2499999999999999E-002    -1.3612598999721995E-013
   9.4000000000000000E-002    -9.7278178796038457E-014
   9.5500000000000002E-002    -1.7707659927283508E-014
   9.7000000000000003E-002     8.8925856463954059E-014
   9.8500000000000004E-002     1.9749311456836485E-013
  0.10000000000000001          2.7624766077757048E-013
  0.10150000000000001          2.9454890051935635E-013
  0.10300000000000001          2.3177787564956088E-013
  0.10450000000000001          8.5213389713717208E-014
  0.10600000000000001         -1.2538429687038475E-013
  0.10750000000000001         -3.5818796242965733E-013
  0.10900000000000001         -5.5541936374944481E-013
  0.11050000000000001         -6.5462408559492765E-013
  0.11200000000000002         -6.0333424738188818E-013
  0.11350000000000002         -3.7436613223655176E-013
  0.11500000000000002          2.1547256369603102E-014
  0.11650000000000002          5.2909720838108024E-013
  0.11800000000000002          1.0504343067734250E-012
  0.11950000000000002          1.4574320511320724E-012
  0.12100000000000002          1.6139805309081313E-012
  0.12250000000000003          1.4059808773048896E-012
  0.12400000000000003          7.7444858888586416E-013
  0.12550000000000003         -2.5482664070743696E-013
  0.12700000000000003         -1.5527448038295676E-012
  0.12850000000000003         -2.8869003154500220E-012
  0.13000000000000003         -3.9454858250501826E-012
  0.13150000000000003         -4.3865329087696226E-012
  0.13300000000000003         -3.9085057969775914E-012
  0.13450000000000004         -2.3322303123299443E-012
  0.13600000000000004          3.2125889514391823E-013
  0.13750000000000004          3.7757181676587282E-012
  0.13900000000000004          7.4863202247378024E-012
  0.14050000000000004          1.0682555056143156E-011
  0.14200000000000004          1.2473658344320258E-011
  0.14350000000000004          1.2010875634051724E-011
  0.14500000000000005          8.6870615680568774E-012
  0.14650000000000005          2.3407321228270905E-012
  0.14800000000000005         -6.5782554097490272E-012
  0.14950000000000005         -1.6927804837292377E-011
  0.15100000000000005         -2.6918425439870950E-011
  0.15250000000000000         -3.4308975317556827E-011
  0.15400000000000000         -3.6752646442844613E-011
  0.15550000000000000         -3.2259722443391719E-011
  0.15700000000000000         -1.9709243560032809E-011
  0.15850000000000000          6.8659248753981052E-013
  0.16000000000000000          2.7075498988873921E-011
  0.16150000000000000          5.5918422980446394E-011
  0.16300000000000001          8.2273626814106755E-011
  0.16450000000000001          1.0042675008471168E-010
  0.16600000000000001          1.0481208890993358E-010
  0.16750000000000001          9.1099032075101884E-011
  0.16900000000000001          5.7261713377431390E-011
  0.17050000000000001          4.4242629746804228E-012
  0.17200000000000001         -6.2711257158944026E-011
  0.17350000000000002         -1.3599131912304002E-010
  0.17500000000000002         -2.0454057350275101E-010
  0.17650000000000002         -2.5604019353903057E-010
  0.17800000000000002         -2.7840296381469564E-010
  0.17950000000000002         -2.6162296626433889E-010
  0.18100000000000002         -1.9954538009201267E-010
  0.18250000000000002         -9.1313460628812336E-011
  0.18400000000000002          5.7704724906027913E-011
  0.18550000000000003          2.3563887022963315E-010
  0.18700000000000003          4.2454344034722218E-010
  0.18850000000000003          6.0151502815664775E-010
  0.19000000000000003          7.4042263691920695E-010
  0.19150000000000003          8.1411590110933648E-010
  0.19300000000000003          7.9691665561988611E-010
  0.19450000000000003          6.6713174132621438E-010
  0.19600000000000004          4.0926555625223215E-010
  0.19750000000000004          1.5571004340932689E-011
  0.19900000000000004         -5.1340751028291817E-010
  0.20050000000000004         -1.1695437855898851E-009
  0.20200000000000004         -1.9391547274459124E-009
  0.20350000000000004         -2.8061432163853976E-009
  0.20500000000000004         -3.7557644425350102E-009
  0.20650000000000004         -4.7782889645078663E-009
  0.20800000000000005         -5.8717189642408342E-009
  0.20950000000000005         -7.0428117703734131E-009
  0.21100000000000005         -8.3059572547458980E-009
  0.21250000000000005         -9.6799317894488012E-009
  0.21400000000000005         -1.1183101903507586E-008
  0.21550000000000005         -1.2828149381553285E-008
  0.21700000000000000         -1.4617601327657173E-008
  0.21850000000000000         -1.6541431652674823E-008
  0.22000000000000000         -1.8577559319054446E-008
  0.22150000000000000         -2.0695376676560607E-008
  0.22300000000000000         -2.2861673719470697E-008
  0.22450000000000001         -2.5047456433976532E-008
  0.22600000000000001         -2.7233898632843420E-008
  0.22750000000000001         -2.9415465469472731E-008
  0.22900000000000001         -3.1598747491886736E-008
  0.23050000000000001         -3.3796393173800047E-008
  0.23200000000000001         -3.6016430745022090E-008
  0.23350000000000001         -3.8248190827107834E-008
  0.23500000000000001         -4.0446749477439790E-008
  0.23650000000000002         -4.2517956499610191E-008
  0.23800000000000002         -4.4305289308005070E-008
  0.23950000000000002         -4.5580147623661775E-008
  0.24100000000000002         -4.6034843671570748E-008
  0.24250000000000002         -4.5277610502237921E-008
  0.24400000000000002         -4.2827698428704690E-008
  0.24550000000000002         -3.8108493767252503E-008
  0.24700000000000003         -3.0435847085476500E-008
  0.24850000000000003         -1.9000123169128625E-008
  0.25000000000000000         -2.8413198504222019E-009
  0.25150000000000006          1.9184320317198213E-008
  0.25300000000000000          4.8445332636366901E-008
  0.25450000000000006          8.6581953117809805E-008
  0.25600000000000001          1.3555832948643827E-007
  0.25750000000000006          1.9771874033129876E-007
  0.25900000000000001          2.7584610055923901E-007
  0.26050000000000006          3.7322433722999122E-007
  0.26200000000000001          4.9370405220898242E-007
  0.26350000000000007          6.4177244528390536E-007
  0.26500000000000001          8.2263142821052966E-007
  0.26650000000000007          1.0422844267271162E-006
  0.26800000000000002          1.3076362009145847E-006
  0.26950000000000007          1.6266081404806049E-006
  0.27100000000000002          2.0082637457374777E-006
  0.27250000000000008          2.4629533978034550E-006
  0.27400000000000002          3.0024710317739892E-006
  0.27550000000000008          3.6402191002314667E-006
  0.27700000000000002          4.3913808681471869E-006
  0.27850000000000008          5.2730971940512033E-006
  0.28000000000000003          6.3046434613705911E-006
  0.28149999999999997          7.5076075476836651E-006
  0.28300000000000003          8.9060698767731900E-006
  0.28449999999999998          1.0526793302667488E-005
  0.28600000000000003          1.2399406652393926E-005
  0.28749999999999998          1.4556604290095449E-005
  0.28900000000000003          1.7034349637462296E-005
  0.29049999999999998          1.9872073732304667E-005
  0.29200000000000004          2.3112887989700710E-005
  0.29349999999999998          2.6803780596158086E-005
  0.29500000000000004          3.0995799549447765E-005
  0.29649999999999999          3.5744242330477234E-005
  0.29800000000000004          4.1108835076173833E-005
  0.29949999999999999          4.7153879894002657E-005
  0.30100000000000005          5.3948372010679198E-005
  0.30250000000000010          6.1566067882144038E-005
  0.30400000000000005          7.0085555593194976E-005
  0.30550000000000010          7.9590186753882312E-005
  0.30700000000000005          9.0168015240539497E-005
  0.30850000000000011          1.0191164900868027E-004
  0.31000000000000005          1.1491801449333284E-004
  0.31150000000000011          1.2928805164691323E-004
  0.31300000000000006          1.4512629953878967E-004
  0.31450000000000000          1.6254050951161386E-004
  0.31600000000000006          1.8164113743837935E-004
  0.31750000000000000          2.0254084057868936E-004
  0.31900000000000006          2.2535389288555919E-004
  0.32050000000000001          2.5019545533739034E-004
  0.32200000000000006          2.7718094119499838E-004
  0.32350000000000001          3.0642516336549499E-004
  0.32500000000000007          3.3804137145651558E-004
  0.32650000000000001          3.7214021111530582E-004
  0.32800000000000007          4.0882863183489037E-004
  0.32950000000000002          4.4820849526262048E-004
  0.33100000000000007          4.9037556007145138E-004
  0.33250000000000002          5.3541786868437969E-004
  0.33400000000000007          5.8341424187894448E-004
  0.33550000000000002          6.3443307980779341E-004
  0.33700000000000008          6.8853086656315014E-004
  0.33850000000000002          7.4575068882850367E-004
  0.34000000000000008          8.0612103115912544E-004
  0.34150000000000003          8.6965447102110350E-004
  0.34300000000000008          9.3634654077145909E-004
  0.34450000000000003          1.0061745513587671E-003
  0.34600000000000009          1.0790962913278109E-003
  0.34750000000000003          1.1550494011295072E-003
  0.34900000000000009          1.2339501614087580E-003
  0.35050000000000003          1.3156926267871561E-003
  0.35200000000000009          1.4001484164722412E-003
  0.35350000000000004          1.4871665555500654E-003
  0.35500000000000009          1.5765731274498991E-003
  0.35650000000000004          1.6681713594889850E-003
  0.35800000000000010          1.7617421961032198E-003
  0.35950000000000004          1.8570443952767393E-003
  0.36100000000000010          1.9538159345274678E-003
  0.36250000000000004          2.0517740703681186E-003
  0.36400000000000010          2.1506180206259350E-003
  0.36550000000000005          2.2500300802374019E-003
  0.36700000000000010          2.3496768825435853E-003
  0.36850000000000005          2.4492132065216006E-003
  0.37000000000000011          2.5482828383058282E-003
  0.37150000000000005          2.6465223868890279E-003
  0.37300000000000011          2.7435631672694414E-003
  0.37450000000000006          2.8390339881435647E-003
  0.37600000000000011          2.9325642038597870E-003
  0.37750000000000006          3.0237864954759473E-003
  0.37900000000000000          3.1123394873851188E-003
  0.38050000000000006          3.1978714713580599E-003
  0.38200000000000001          3.2800431208542032E-003
  0.38350000000000006          3.3585311224990436E-003
  0.38500000000000001          3.4330305793243230E-003
  0.38650000000000007          3.5032586264588002E-003
  0.38800000000000001          3.5689572692731552E-003
  0.38950000000000007          3.6298951913401999E-003
  0.39100000000000001          3.6858698670385551E-003
  0.39250000000000007          3.7367088109591488E-003
  0.39400000000000002          3.7822707293753335E-003
  0.39550000000000007          3.8224465670217232E-003
  0.39700000000000002          3.8571593225976575E-003
  0.39850000000000008          3.8863644784040453E-003
  0.40000000000000002          3.9100497058596733E-003
  0.40150000000000008          3.9282349704511423E-003
  0.40300000000000002          3.9409699523263279E-003
  0.40450000000000008          3.9483348646056713E-003
  0.40600000000000003          3.9504376019627377E-003
  0.40750000000000008          3.9474113548557156E-003
  0.40900000000000003          3.9394117991234726E-003
  0.41050000000000009          3.9266142577872414E-003
  0.41200000000000003          3.9092101778003541E-003
  0.41350000000000009          3.8874023282656177E-003
  0.41500000000000004          3.8614027190831367E-003
  0.41650000000000009          3.8314277088157718E-003
  0.41800000000000004          3.7976952739626930E-003
  0.41950000000000010          3.7604213048589661E-003
  0.42100000000000004          3.7198157260091153E-003
  0.42250000000000010          3.6760796199946082E-003
  0.42400000000000004          3.6294018725700327E-003
  0.42550000000000010          3.5799552741845476E-003
  0.42700000000000005          3.5278936472604647E-003
  0.42850000000000010          3.4733499624304137E-003
  0.43000000000000005          3.4164348056322288E-003
  0.43150000000000011          3.3572345915829273E-003
  0.43300000000000005          3.2958105272150959E-003
  0.43450000000000011          3.2321994622183901E-003
  0.43600000000000005          3.1664120990166841E-003
  0.43750000000000011          3.0984352010005704E-003
  0.43900000000000006          3.0282307602944487E-003
  0.44050000000000000          2.9557382906098585E-003
  0.44200000000000006          2.8808763875819154E-003
  0.44350000000000001          2.8035459229833071E-003
  0.44500000000000006          2.7236325252398760E-003
  0.44650000000000001          2.6410111443641322E-003
  0.44800000000000006          2.5555486610797720E-003
  0.44950000000000001          2.4671084820681623E-003
  0.45100000000000007          2.3755543492189734E-003
  0.45250000000000001          2.2807547610930569E-003
  0.45400000000000007          2.1825863449921601E-003
  0.45550000000000002          2.0809385613655071E-003
  0.45700000000000007          1.9757165498357513E-003
  0.45850000000000002          1.8668449130880369E-003
  0.46000000000000008          1.7542715014209958E-003
  0.46150000000000002          1.6379699839371466E-003
  0.46300000000000008          1.5179430218888136E-003
  0.46450000000000002          1.3942243555758915E-003
  0.46600000000000008          1.2668808483894275E-003
  0.46750000000000003          1.1360136747927568E-003
  0.46900000000000008          1.0017589955115204E-003
  0.47050000000000003          8.6428706355043037E-004
  0.47200000000000009          7.2380151813680618E-004
  0.47350000000000003          5.8053790525611367E-004
  0.47500000000000009          4.3476143044005500E-004
  0.47650000000000003          2.8676474260303409E-004
  0.47800000000000009          1.3686490008501346E-004
  0.47950000000000004         -1.4599517553389157E-005
  0.48100000000000009         -1.6727204583620245E-004
  0.48250000000000004         -3.2078244967000341E-004
  0.48400000000000010         -4.7475112539132605E-004
  0.48550000000000004         -6.2879417205562334E-004
  0.48700000000000010         -7.8252863093652416E-004
  0.48850000000000005         -9.3557788284975374E-004
  0.49000000000000010         -1.0875765821129310E-003
  0.49150000000000005         -1.2381758923191227E-003
  0.49300000000000010         -1.3870466962069557E-003
  0.49450000000000005         -1.5338836787822127E-003
  0.49600000000000011         -1.6784080607776908E-003
  0.49750000000000005         -1.8203697738604766E-003
  0.49900000000000011         -1.9595495010392978E-003
  0.50050000000000006         -2.0957619920355872E-003
  0.50200000000000011         -2.2288558639644309E-003
  0.50350000000000006         -2.3587164206849993E-003
  0.50500000000000000         -2.4852649104310370E-003
  0.50650000000000006         -2.6084591459050658E-003
  0.50800000000000001         -2.7282906404786241E-003
  0.50950000000000006         -2.8447825770481728E-003
  0.51100000000000001         -2.9579863698901377E-003
  0.51250000000000007         -3.0679760439639107E-003
  0.51400000000000001         -3.1748452328536278E-003
  0.51550000000000007         -3.2787002923088211E-003
  0.51700000000000002         -3.3796578728412562E-003
  0.51850000000000007         -3.4778384371158180E-003
  0.52000000000000002         -3.5733616602387913E-003
  0.52150000000000007         -3.6663423596781358E-003
  0.52300000000000002         -3.7568853782609778E-003
  0.52450000000000008         -3.8450795874421847E-003
  0.52600000000000002         -3.9309950312471330E-003
  0.52750000000000008         -4.0146749301227785E-003
  0.52900000000000003         -4.0961340003505715E-003
  0.53050000000000008         -4.1753521995227267E-003
  0.53200000000000003         -4.2522736299166267E-003
  0.53350000000000009         -4.3268031727349953E-003
  0.53500000000000003         -4.3988080738485286E-003
  0.53650000000000009         -4.4681194217060811E-003
  0.53800000000000003         -4.5345362610460169E-003
  0.53950000000000009         -4.5978277315796602E-003
  0.54100000000000004         -4.6577403796928818E-003
  0.54250000000000009         -4.7140024060178670E-003
  0.54400000000000004         -4.7663307127789913E-003
  0.54550000000000010         -4.8144400400597469E-003
  0.54700000000000004         -4.8580508777024030E-003
  0.54850000000000010         -4.8968998859674345E-003
  0.55000000000000004         -4.9307537317413788E-003
  0.55150000000000010         -4.9594221529115183E-003
  0.55300000000000005         -4.9827731154329993E-003
  0.55450000000000010         -5.0007474459909766E-003
  0.55600000000000005         -5.0133769362188420E-003
  0.55750000000000011         -5.0207979308133713E-003
  0.55900000000000005         -5.0232684284472126E-003
  0.56050000000000011         -5.0211811960147318E-003
  0.56200000000000006         -5.0150797216861193E-003
  0.56350000000000011         -5.0056708540077953E-003
  0.56500000000000006         -4.9938396286813500E-003
  0.56650000000000011         -4.9806609715825519E-003
  0.56800000000000006         -4.9674100065173095E-003
  0.56950000000000001         -4.9555743059825560E-003
  0.57100000000000006         -4.9468575439414429E-003
  0.57250000000000001         -4.9431872805220413E-003
  0.57400000000000007         -4.9467143679872115E-003
  0.57550000000000001         -4.9598098366563231E-003
  0.57700000000000007         -4.9850610915911295E-003
  0.57850000000000001         -5.0252630846442936E-003
  0.58000000000000007         -5.0834074437063614E-003
  0.58150000000000002         -5.1626679142491722E-003
  0.58300000000000007         -5.2663817374886644E-003
  0.58450000000000002         -5.3980273412676839E-003
  0.58600000000000008         -5.5611997099302320E-003
  0.58750000000000002         -5.7595791777063921E-003
  0.58900000000000008         -5.9968978808812509E-003
  0.59050000000000002         -6.2768986591448285E-003
  0.59200000000000008         -6.6032950480886705E-003
  0.59350000000000003         -6.9797233760157534E-003
  0.59500000000000008         -7.4096921745867503E-003
  0.59650000000000003         -7.8965332691491308E-003
  0.59800000000000009         -8.4433473564487597E-003
  0.59950000000000003         -9.0529509975911145E-003
  0.60100000000000009         -9.7278185177128856E-003
  0.60250000000000004         -1.0470028458108394E-002
  0.60400000000000009         -1.1281204859954923E-002
  0.60550000000000004         -1.2162459961344518E-002
  0.60700000000000010         -1.3114337117507861E-002
  0.60850000000000004         -1.4136750877516549E-002
  0.61000000000000010         -1.5228938670653273E-002
  0.61150000000000004         -1.6389405143511518E-002
  0.61300000000000010         -1.7615885977487825E-002
  0.61450000000000005         -1.8905303050181330E-002
  0.61600000000000010         -2.0253729048881147E-002