 -0.19999999999999998          0.0000000000000000     
 -0.19849999999999998          0.0000000000000000     
 -0.19699999999999998          0.0000000000000000     
 -0.19549999999999998          0.0000000000000000     
 -0.19399999999999998          0.0000000000000000     
 -0.19249999999999998          0.0000000000000000     
 -0.19099999999999998          0.0000000000000000     
 -0.18949999999999997          0.0000000000000000     
 -0.18799999999999997          0.0000000000000000     
 -0.18649999999999997          0.0000000000000000     
 -0.18500000000000000          0.0000000000000000     
 -0.18350000000000000          0.0000000000000000     
 -0.18200000000000000          0.0000000000000000     
 -0.18049999999999999          0.0000000000000000     
 -0.17899999999999999          0.0000000000000000     
 -0.17749999999999999          0.0000000000000000     
 -0.17599999999999999          0.0000000000000000     
 -0.17449999999999999          0.0000000000000000     
 -0.17299999999999999          0.0000000000000000     
 -0.17149999999999999          0.0000000000000000     
 -0.16999999999999998          0.0000000000000000     
 -0.16849999999999998          1.4051079932234900E-039
 -0.16699999999999998          6.4771236607974434E-039
 -0.16549999999999998          9.2113391781880835E-038
 -0.16399999999999998          5.4875925811376811E-037
 -0.16249999999999998          1.8104301915889688E-036
 -0.16099999999999998          3.3524973953704353E-036
 -0.15949999999999998          5.2828710036363665E-037
 -0.15799999999999997         -2.0123524873825632E-035
 -0.15649999999999997         -7.9903066810561733E-035
 -0.15499999999999997         -1.8263733941056973E-034
 -0.15349999999999997         -2.4345149905059202E-034
 -0.15199999999999997          2.0684520180493087E-035
 -0.15049999999999997          1.1555071958686703E-033
 -0.14899999999999997          3.8109485509239057E-033
 -0.14749999999999999          8.1074947623802835E-033
 -0.14599999999999999          1.2144808039796433E-032
 -0.14449999999999999          8.8897980057559689E-033
 -0.14299999999999999         -1.9474621670751806E-032
 -0.14149999999999999         -1.0755424858462638E-031
 -0.13999999999999999         -2.9812100827228770E-031
 -0.13849999999999998         -5.7834797370151346E-031
 -0.13699999999999998         -7.0367847578649350E-031
 -0.13549999999999998          8.2762223075576142E-032
 -0.13399999999999998          3.1698121662935460E-030
 -0.13249999999999998          9.8073909572984361E-030
 -0.13099999999999998          1.8408819886326029E-029
 -0.12949999999999998          1.9723382207319930E-029
 -0.12799999999999997         -7.0887964794031687E-030
 -0.12650000000000000         -8.8837447209211273E-029
 -0.12499999999999999         -2.3051141979911102E-028
 -0.12349999999999998         -3.5996986627677596E-028
 -0.12199999999999998         -2.6972224862673933E-028
 -0.12049999999999998          3.6739579671781887E-028
 -0.11899999999999998          1.7902424602314981E-027
 -0.11749999999999998          3.6751530060658892E-027
 -0.11599999999999998          4.5394067831094614E-027
 -0.11449999999999998          1.5614008879219185E-027
 -0.11299999999999998         -8.2848342216312983E-027
 -0.11149999999999999         -2.5053608216731031E-026
 -0.10999999999999999         -4.1162973177971832E-026
 -0.10849999999999999         -3.8291788780042935E-026
 -0.10699999999999998          8.5303512478793297E-027
 -0.10549999999999998          1.1408598173457369E-025
 -0.10399999999999998          2.5395328713328549E-025
 -0.10249999999999998          3.3723726895733945E-025
 -0.10099999999999998          2.1063215331448891E-025
  -9.9499999999999977E-002    -2.7180463090129106E-025
  -9.7999999999999976E-002    -1.1022877250697237E-024
  -9.6499999999999975E-002    -1.9462973445523839E-024
  -9.4999999999999987E-002    -2.0737067171060841E-024
  -9.3499999999999986E-002    -5.7073627757857282E-025
  -9.1999999999999985E-002     3.0586742881995278E-024
  -9.0499999999999983E-002     8.0293589279854617E-024
  -8.8999999999999982E-002     1.1634280448285900E-023
  -8.7499999999999981E-002     9.5922277356743885E-024
  -8.5999999999999979E-002    -1.9649442151405909E-024
  -8.4499999999999978E-002    -2.2987344019585731E-023
  -8.2999999999999977E-002    -4.5971588965812720E-023
  -8.1499999999999975E-002    -5.5214654951744906E-023
  -7.9999999999999988E-002    -3.1846816295373278E-023
  -7.8499999999999986E-002     3.4463036974830696E-023
  -7.6999999999999985E-002     1.3074820887040101E-022
  -7.5499999999999984E-002     2.1179475231380194E-022
  -7.3999999999999982E-002     2.0827378954425279E-022
  -7.2499999999999981E-002     5.8783688194039419E-023
  -7.0999999999999980E-002    -2.4029572758847364E-022
  -6.9499999999999978E-002    -5.9087306299644365E-022
  -6.7999999999999977E-002    -7.9118351221177786E-022
  -6.6499999999999976E-002    -6.0590217408326328E-022
  -6.4999999999999974E-002     9.3624714099506007E-023
  -6.3499999999999973E-002     1.1727107241989421E-021
  -6.1999999999999972E-002     2.1600043621640442E-021
  -6.0499999999999970E-002     2.3605829931960656E-021
  -5.8999999999999969E-002     1.1900678995748783E-021
  -5.7499999999999968E-002    -1.3702121003554351E-021
  -5.5999999999999966E-002    -4.4405724258121198E-021
  -5.4499999999999993E-002    -6.3317326107702107E-021
  -5.2999999999999992E-002    -5.2304512418614835E-021
  -5.1499999999999990E-002    -3.4110655467454103E-022
  -4.9999999999999989E-002     7.0517456111017019E-021
  -4.8499999999999988E-002     1.3371547066747074E-020
  -4.6999999999999986E-002     1.3986880772386961E-020
  -4.5499999999999985E-002     5.8114362865378858E-021
  -4.3999999999999984E-002    -9.8100641912255338E-021
  -4.2499999999999982E-002    -2.5774589403107312E-020
  -4.0999999999999981E-002    -3.1187880384024564E-020
  -3.9499999999999980E-002    -1.6990372227280461E-020
  -3.7999999999999978E-002     1.6736872418878511E-020
  -3.6499999999999977E-002     5.5967488194746093E-020
  -3.4999999999999976E-002     7.5079194738637141E-020
  -3.3499999999999974E-002     4.8536873056658773E-020
  -3.1999999999999973E-002    -3.1152515461633822E-020
  -3.0499999999999972E-002    -1.3814423209155449E-019
  -2.8999999999999970E-002    -2.1241244662637126E-019
  -2.7499999999999969E-002    -1.8159162816039230E-019
  -2.5999999999999968E-002    -2.9144267977002065E-021
  -2.4499999999999966E-002     2.9187725017540310E-019
  -2.2999999999999993E-002     5.7636701871296762E-019
  -2.1499999999999991E-002     6.5968154357936050E-019
  -1.9999999999999990E-002     3.7329794992954464E-019
  -1.8499999999999989E-002    -3.1193801678796173E-019
  -1.6999999999999987E-002    -1.1963290504552810E-018
  -1.5499999999999986E-002    -1.8572532003305859E-018
  -1.3999999999999985E-002    -1.7916166935488934E-018
  -1.2499999999999983E-002    -6.7249429161711760E-019
  -1.0999999999999982E-002     1.3799890948365306E-018
  -9.4999999999999807E-003     3.6648714680341872E-018
  -7.9999999999999793E-003     5.0390051379971096E-018
  -6.4999999999999780E-003     4.3624428010250621E-018
  -4.9999999999999767E-003     1.1239607459073078E-018
  -3.4999999999999754E-003    -4.0308843027732410E-018
  -1.9999999999999740E-003    -9.1979022355996495E-018
  -4.9999999999997269E-004    -1.1752748651894088E-017
   1.0000000000000286E-003    -9.4685647575618023E-018
   2.5000000000000300E-003    -1.8131731452070033E-018
   4.0000000000000313E-003     9.2085209833353216E-018
   5.5000000000000326E-003     1.9267176331371286E-017
   7.0000000000000340E-003     2.3203793648401428E-017
   8.5000000000000075E-003     1.7416339908201662E-017
   1.0000000000000009E-002     2.1467240697837190E-018
   1.1500000000000010E-002    -1.7574774079689607E-017
   1.3000000000000012E-002    -3.3225912494447944E-017
   1.4500000000000013E-002    -3.6291610052720733E-017
   1.6000000000000014E-002    -2.2728538865143438E-017
   1.7500000000000016E-002     3.7324608879985977E-018
   1.9000000000000017E-002     3.1577278072445332E-017
   2.0500000000000018E-002     4.5770847586302441E-017
   2.2000000000000020E-002     3.5231769208553070E-017
   2.3500000000000021E-002     3.7197206094482880E-019
   2.5000000000000022E-002    -4.3473770267048306E-017
   2.6500000000000024E-002    -6.9992530217184863E-017
   2.8000000000000025E-002    -5.3510431543613710E-017
   2.9500000000000026E-002     1.5500223861994942E-017
   3.1000000000000028E-002     1.1819621393026627E-016
   3.2500000000000029E-002     2.0629359759645145E-016
   3.4000000000000030E-002     2.1682950720414374E-016
   3.5500000000000032E-002     1.0076034647190679E-016
   3.7000000000000033E-002    -1.4443894632751646E-016
   3.8500000000000034E-002    -4.5343602611769191E-016
   4.0000000000000008E-002    -6.9780273310518403E-016
   4.1500000000000009E-002    -7.2388130357034689E-016
   4.3000000000000010E-002    -4.1707973701193897E-016
   4.4500000000000012E-002     2.2878671023048397E-016
   4.6000000000000013E-002     1.0676113589484237E-015
   4.7500000000000014E-002     1.8108058952446032E-015
   4.9000000000000016E-002     2.1033113070042861E-015
   5.0500000000000017E-002     1.6526653295896572E-015
   5.2000000000000018E-002     3.7127199555673844E-016
   5.3500000000000020E-002    -1.5242658460661540E-015
   5.5000000000000021E-002    -3.5091914057286253E-015
   5.6500000000000022E-002    -4.8678244002581526E-015
   5.8000000000000024E-002    -4.9144735906603575E-015
   5.9500000000000025E-002    -3.2552792986609982E-015
   6.1000000000000026E-002     5.7892930393901230E-019
   6.2500000000000028E-002     4.1693710088392819E-015
   6.4000000000000029E-002     8.1119214722391525E-015
   6.5500000000000030E-002     1.0530274036910748E-014
   6.7000000000000032E-002     1.0361141466234992E-014
   6.8500000000000033E-002     7.1406308009327950E-015
   7.0000000000000034E-002     1.2137475928971273E-015
   7.1500000000000036E-002    -6.2902248528616590E-015
   7.3000000000000037E-002    -1.3714265548341994E-014
   7.4500000000000038E-002    -1.9276287183804348E-014
   7.6000000000000040E-002    -2.1481384871860877E-014
   7.7500000000000041E-002    -1.9413397914730668E-014
   7.9000000000000042E-002    -1.2839228147842633E-014
   8.0500000000000044E-002    -2.1541685870191955E-015
   8.2000000000000045E-002     1.1722789793980924E-014
   8.3500000000000046E-002     2.7373261446013651E-014
   8.5000000000000048E-002     4.2753636892169318E-014
   8.6500000000000049E-002     5.4977842724233539E-014
   8.8000000000000050E-002     6.0210462614055231E-014
   8.9499999999999996E-002     5.3954682254539151E-014
   9.0999999999999998E-002     3.1974969459712640E-014
   9.2499999999999999E-002    -8.1027235701843901E-015
   9.4000000000000000E-002    -6.4783034762338113E-014
   9.5500000000000002E-002    -1.3088455593781732E-013
   9.7000000000000003E-002    -1.9272679952979629E-013
   9.8500000000000004E-002    -2.3110807366411579E-013
  0.10000000000000001         -2.2453874127385559E-013
  0.10150000000000001         -1.5460676091928204E-013
  0.10300000000000001         -1.2632697137773389E-014
  0.10450000000000001          1.9388649751116055E-013
  0.10600000000000001          4.3693194680746184E-013
  0.10750000000000001          6.6756772352575660E-013
  0.10900000000000001          8.2083971054642739E-013
  0.11050000000000001          8.2638050362583095E-013
  0.11200000000000002          6.2393273252905540E-013
  0.11350000000000002          1.8172551227585799E-013
  0.11500000000000002         -4.8551603413696299E-013
  0.11650000000000002         -1.3029908844030952E-012
  0.11800000000000002         -2.1310904224039787E-012
  0.11950000000000002         -2.7736268688052302E-012
  0.12100000000000002         -3.0019493828689201E-012
  0.12250000000000003         -2.5956430039743942E-012
  0.12400000000000003         -1.3971748340430298E-012
  0.12550000000000003          6.2642033558810274E-013
  0.12700000000000003          3.3262854619383159E-012
  0.12850000000000003          6.3342570296940206E-012
  0.13000000000000003          9.0622222885776300E-012
  0.13150000000000003          1.0753505508020887E-011
  0.13300000000000003          1.0594837226110331E-011
  0.13450000000000004          7.8858760275073149E-012
  0.13600000000000004          2.2477622958056412E-012
  0.13750000000000004         -6.1645488780182893E-012
  0.13900000000000004         -1.6495505813422677E-011
  0.14050000000000004         -2.7123860106416726E-011
  0.14200000000000004         -3.5750894749879768E-011
  0.14350000000000004         -3.9674924082791929E-011
  0.14500000000000005         -3.6252799189962426E-011
  0.14650000000000005         -2.3506485810323953E-011
  0.14800000000000005         -7.8707279435733070E-013
  0.14950000000000005          3.0630974164853873E-011
  0.15100000000000005          6.7175159161268229E-011
  0.15250000000000000          1.0296626274264116E-010
  0.15400000000000000          1.3028648554944459E-010
  0.15550000000000000          1.4056747462987124E-010
  0.15700000000000000          1.2584703766916084E-010
  0.15850000000000000          8.0535716567891915E-011
  0.16000000000000000          3.2319103840579184E-012
  0.16150000000000000         -1.0175217608624557E-010
  0.16300000000000001         -2.2352097790704822E-010
  0.16450000000000001         -3.4471600152701645E-010
  0.16600000000000001         -4.4285643127438204E-010
  0.16750000000000001         -4.9296179716702146E-010
  0.16900000000000001         -4.7130334357595060E-010
  0.17050000000000001         -3.5989864088341195E-010
  0.17200000000000001         -1.5115498411128616E-010
  0.17350000000000002          1.4808011574422656E-010
  0.17500000000000002          5.1384850519184727E-010
  0.17650000000000002          9.0450381541146617E-010
  0.17800000000000002          1.2627373964819631E-009
  0.17950000000000002          1.5204094699433415E-009
  0.18100000000000002          1.6060095377433003E-009
  0.18250000000000002          1.4541743544065287E-009
  0.18400000000000002          1.0163465772626343E-009
  0.18550000000000003          2.7141380234178592E-010
  0.18700000000000003         -7.6492802668149891E-010
  0.18850000000000003         -2.0332640635555134E-009
  0.19000000000000003         -3.4269270663604014E-009
  0.19150000000000003         -4.7923613470211425E-009
  0.19300000000000003         -5.9334019907242762E-009
  0.19450000000000003         -6.6189192112049045E-009
  0.19600000000000004         -6.5927628165833950E-009
  0.19750000000000004         -5.5844843376138706E-009
  0.19900000000000004         -3.3190639340460785E-009
  0.20050000000000004          4.7621420947948904E-010
  0.20200000000000004          6.0693693644408901E-009
  0.20350000000000004          1.3727084017743512E-008
  0.20500000000000004          2.3724409353375590E-008
  0.20650000000000004          3.6360705395978624E-008
  0.20800000000000005          5.1980919912112783E-008
  0.20950000000000005          7.1000817720800024E-008
  0.21100000000000005          9.3934350933084479E-008
  0.21250000000000005          1.2142143502631938E-007
  0.21400000000000005          1.5425471645721843E-007
  0.21550000000000005          1.9340479332446015E-007
  0.21700000000000000          2.4004427271688963E-007
  0.21850000000000000          2.9557160260243194E-007
  0.22000000000000000          3.6163706015922571E-007
  0.22150000000000000          4.4017328562573226E-007
  0.22300000000000000          5.3343298925370751E-007
  0.22450000000000001          6.4403526085376485E-007
  0.22600000000000001          7.7502270463885001E-007
  0.22750000000000001          9.2992903532674482E-007
  0.22900000000000001          1.1128565281980988E-006
  0.23050000000000001          1.3285631488320778E-006
  0.23200000000000001          1.5825561268702342E-006
  0.23350000000000001          1.8811937457961537E-006
  0.23500000000000001          2.2317905171996378E-006
  0.23650000000000002          2.6427306609309959E-006
  0.23800000000000002          3.1235869819023528E-006
  0.23950000000000002          3.6852497433456780E-006
  0.24100000000000002          4.3400679027906468E-006
  0.24250000000000002          5.1020037417397430E-006
  0.24400000000000002          5.9868077474335693E-006
  0.24550000000000002          7.0122094131015818E-006
  0.24700000000000003          8.1981349059684104E-006
  0.24850000000000003          9.5669386783052738E-006
  0.25000000000000000          1.1143660747773693E-005
  0.25150000000000006          1.2956301655493108E-005
  0.25300000000000000          1.5036106624783048E-005
  0.25450000000000006          1.7417865602562629E-005
  0.25600000000000001          2.0140212383633053E-005
  0.25750000000000006          2.3245927802821793E-005
  0.25900000000000001          2.6782235762069537E-005
  0.26050000000000006          3.0801101235907263E-005
  0.26200000000000001          3.5359509561508926E-005
  0.26350000000000007          4.0519746138925204E-005
  0.26500000000000001          4.6349656501041734E-005
  0.26650000000000007          5.2922905756565107E-005
  0.26800000000000002          6.0319210815700999E-005
  0.26950000000000007          6.8624577197824894E-005
  0.27100000000000002          7.7931490764137441E-005
  0.27250000000000008          8.8339085287140789E-005
  0.27400000000000002          9.9953252961420375E-005
  0.27550000000000008          1.1288670658174161E-004
  0.27700000000000002          1.2725897667040324E-004
  0.27850000000000008          1.4319630421454727E-004
  0.28000000000000003          1.6083148527978799E-004
  0.28149999999999997          1.8030355325211820E-004
  0.28300000000000003          2.0175733443258048E-004
  0.28449999999999998          2.2534292978072150E-004
  0.28600000000000003          2.5121505685984165E-004
  0.28749999999999998          2.7953217120325999E-004
  0.28900000000000003          3.1045556578177826E-004
  0.29049999999999998          3.4414820455613187E-004
  0.29200000000000004          3.8077351150403644E-004
  0.29349999999999998          4.2049382652425884E-004
  0.29500000000000004          4.6346888900215084E-004
  0.29649999999999999          5.0985401175733872E-004
  0.29800000000000004          5.5979800953906075E-004
  0.29949999999999999          6.1344115326652984E-004
  0.30100000000000005          6.7091268512766864E-004
  0.30250000000000010          7.3232862599727656E-004
  0.30400000000000005          7.9778898601592322E-004
  0.30550000000000010          8.6737504734926306E-004
  0.30700000000000005          9.4114639561516901E-004
  0.30850000000000011          1.0191378773414177E-003
  0.31000000000000005          1.1013566508729271E-003
  0.31150000000000011          1.1877789504591797E-003
  0.31300000000000006          1.2783473165891559E-003
  0.31450000000000000          1.3729678562937791E-003
  0.31600000000000006          1.4715071320185380E-003
  0.31750000000000000          1.5737896995160856E-003
  0.31900000000000006          1.6795947285755709E-003
  0.32050000000000001          1.7886543313575072E-003
  0.32200000000000006          1.9006511077204165E-003
  0.32350000000000001          2.0152164803320148E-003
  0.32500000000000007          2.1319300433793121E-003
  0.32650000000000001          2.2503171086371843E-003
  0.32800000000000007          2.3698489882790202E-003
  0.32950000000000002          2.4899430656261483E-003
  0.33100000000000007          2.6099630478700325E-003
  0.33250000000000002          2.7292200354127032E-003
  0.33400000000000007          2.8469745476051508E-003
  0.33550000000000002          2.9624390488235987E-003
  0.33700000000000008          3.0747823902837600E-003
  0.33850000000000002          3.1831322451757842E-003
  0.34000000000000008          3.2865815203486654E-003
  0.34150000000000003          3.3841920303368089E-003
  0.34300000000000008          3.4750014818586156E-003
  0.34450000000000003          3.5580301694548531E-003
  0.34600000000000009          3.6322875389120154E-003
  0.34750000000000003          3.6967813525915997E-003
  0.34900000000000009          3.7505256444076481E-003
  0.35050000000000003          3.7925493486200765E-003
  0.35200000000000009          3.8219047722026292E-003
  0.35350000000000004          3.8376777554330020E-003
  0.35500000000000009          3.8389964876616653E-003
  0.35650000000000004          3.8250419981220012E-003
  0.35800000000000010          3.7950571401785607E-003
  0.35950000000000004          3.7483572486840065E-003
  0.36100000000000010          3.6843391788236451E-003
  0.36250000000000004          3.6024891724589590E-003
  0.36400000000000010          3.5023920595809895E-003
  0.36550000000000005          3.3837377617494200E-003
  0.36700000000000010          3.2463287616371975E-003
  0.36850000000000005          3.0900848302079457E-003
  0.37000000000000011          2.9150499052718187E-003
  0.37150000000000005          2.7213952445833411E-003
  0.37300000000000011          2.5094217930248727E-003
  0.37450000000000006          2.2795606903371866E-003
  0.37600000000000011          2.0323724387847257E-003
  0.37750000000000006          1.7685471610110002E-003
  0.37900000000000000          1.4889016796889830E-003
  0.38050000000000006          1.1943762137978306E-003
  0.38200000000000001          8.8602992546770289E-004
  0.38350000000000006          5.6503364669635038E-004
  0.38500000000000001          2.3266195046353232E-004
  0.38650000000000007         -1.0971593396267567E-004
  0.38800000000000001         -4.6064640536329924E-004
  0.38950000000000007         -8.1860238088789965E-004
  0.39100000000000001         -1.1819938717341466E-003
  0.39250000000000007         -1.5491809191078708E-003
  0.39400000000000002         -1.9184857188377655E-003
  0.39550000000000007         -2.2882074447383659E-003
  0.39700000000000002         -2.6566347458357982E-003
  0.39850000000000008         -3.0220598197389838E-003
  0.40000000000000002         -3.3827913764702729E-003
  0.40150000000000008         -3.7371681858400195E-003
  0.40300000000000002         -4.0835695447304435E-003
  0.40450000000000008         -4.4204295065317818E-003
  0.40600000000000003         -4.7462469511296984E-003
  0.40750000000000008         -5.0595951805860774E-003
  0.40900000000000003         -5.3591352193904408E-003
  0.41050000000000009         -5.6436223131376001E-003
  0.41200000000000003         -5.9119124996715837E-003
  0.41350000000000009         -6.1629701480093411E-003
  0.41500000000000004         -6.3958702969014944E-003
  0.41650000000000009         -6.6098031206557467E-003
  0.41800000000000004         -6.8040772362574602E-003
  0.41950000000000010         -6.9781204946834617E-003
  0.42100000000000004         -7.1314794999047908E-003
  0.42250000000000010         -7.2638190592193598E-003
  0.42400000000000004         -7.3749179891871644E-003
  0.42550000000000010         -7.4646668610146363E-003
  0.42700000000000005         -7.5330628808470274E-003
  0.42850000000000010         -7.5802043737938710E-003
  0.43000000000000005         -7.6062867184579011E-003
  0.43150000000000011         -7.6115962153350432E-003
  0.43300000000000005         -7.5965035490831653E-003
  0.43450000000000011         -7.5614550150032989E-003
  0.43600000000000005         -7.5069662032666296E-003
  0.43750000000000011         -7.4336140691616745E-003
  0.43900000000000006         -7.3420304789774127E-003
  0.44050000000000000         -7.2328942072823824E-003
  0.44200000000000006         -7.1069270999179410E-003
  0.44350000000000001         -6.9648849929117504E-003
  0.44500000000000006         -6.8075517928727590E-003
  0.44650000000000001         -6.6357343112037580E-003
  0.44800000000000006         -6.4502536918378123E-003
  0.44950000000000001         -6.2519433173886321E-003
  0.45100000000000007         -6.0416442888176491E-003
  0.45250000000000001         -5.8202020078263715E-003
  0.45400000000000007         -5.5884637674362761E-003
  0.45550000000000002         -5.3472764969897391E-003
  0.45700000000000007         -5.0974823631018372E-003
  0.45850000000000002         -4.8399150688589881E-003
  0.46000000000000008         -4.5753994982360227E-003
  0.46150000000000002         -4.3047523904411328E-003
  0.46300000000000008         -4.0287781670791372E-003
  0.46450000000000002         -3.7482698445845848E-003
  0.46600000000000008         -3.4640074126946249E-003
  0.46750000000000003         -3.1767566233227244E-003
  0.46900000000000008         -2.8872649942836785E-003
  0.47050000000000003         -2.5962608324660279E-003
  0.47200000000000009         -2.3044516261808163E-003
  0.47350000000000003         -2.0125222151001895E-003
  0.47500000000000009         -1.7211341107679044E-003
  0.47650000000000003         -1.4309233229598275E-003
  0.47800000000000009         -1.1424975171951028E-003
  0.47950000000000004         -8.5643228985392479E-004
  0.48100000000000009         -5.7326764356729692E-004
  0.48250000000000004         -2.9350466387637595E-004
  0.48400000000000010         -1.7602993979008285E-005
  0.48550000000000004          2.5402084318423184E-004
  0.48700000000000010          5.2099579477145113E-004
  0.48850000000000005          7.8299915874013729E-004
  0.49000000000000010          1.0397600015289883E-003
  0.49150000000000005          1.2910625596973466E-003
  0.49300000000000010          1.5367478711035337E-003
  0.49450000000000005          1.7767150268814496E-003
  0.49600000000000011          2.0109197961741599E-003
  0.49750000000000005          2.2393737041095946E-003
  0.49900000000000011          2.4621424328826530E-003
  0.50050000000000006          2.6793446548705403E-003
  0.50200000000000011          2.8911502617904490E-003
  0.50350000000000006          3.0977788021473145E-003
  0.50500000000000000          3.2994934885962231E-003
  0.50650000000000006          3.4965950659116719E-003
  0.50800000000000001          3.6894145421492754E-003
  0.50950000000000006          3.8783041577090654E-003
  0.51100000000000001          4.0636289512099386E-003
  0.51250000000000007          4.2457600990448811E-003
  0.51400000000000001          4.4250647454412775E-003
  0.51550000000000007          4.6018969022695796E-003
  0.51700000000000002          4.7765837877721783E-003
  0.51850000000000007          4.9494153011407586E-003
  0.52000000000000002          5.1206311883403802E-003
  0.52150000000000007          5.2904096127314049E-003
  0.52300000000000002          5.4588560649198037E-003
  0.52450000000000008          5.6259943766535474E-003
  0.52600000000000002          5.7917558354359001E-003
  0.52750000000000008          5.9559702917790017E-003
  0.52900000000000003          6.1183562437823712E-003
  0.53050000000000008          6.2785127781100035E-003
  0.53200000000000003          6.4359105174450655E-003
  0.53350000000000009          6.5898900664713503E-003
  0.53500000000000003          6.7396582045460528E-003
  0.53650000000000009          6.8842857757488926E-003
  0.53800000000000003          7.0227110341684815E-003
  0.53950000000000009          7.1537393439085051E-003
  0.54100000000000004          7.2760501420436642E-003
  0.54250000000000009          7.3881973653336548E-003
  0.54400000000000004          7.4886226462718558E-003
  0.54550000000000010          7.5756640366904694E-003
  0.54700000000000004          7.6475698599379610E-003
  0.54850000000000010          7.7025143856376682E-003
  0.55000000000000004          7.7386114454132092E-003
  0.55150000000000010          7.7539373050970022E-003
  0.55300000000000005          7.7465459121405927E-003
  0.55450000000000010          7.7144901683225270E-003
  0.55600000000000005          7.6558464123036053E-003
  0.55750000000000011          7.5687331246662402E-003
  0.55900000000000005          7.4513413074947209E-003
  0.56050000000000011          7.3019556354077739E-003
  0.56200000000000006          7.1189809130673791E-003
  0.56350000000000011          6.9009613676287128E-003
  0.56500000000000006          6.6466078557600623E-003
  0.56650000000000011          6.3548179431675324E-003
  0.56800000000000006          6.0246987750797419E-003
  0.56950000000000001          5.6555861626519897E-003
  0.57100000000000006          5.2470671730216190E-003
  0.57250000000000001          4.7989934249750791E-003
  0.57400000000000007          4.3114974512298981E-003
  0.57550000000000001          3.7850025338001725E-003
  0.57700000000000007          3.2202307692402463E-003
  0.57850000000000001          2.6182082357565084E-003
  0.58000000000000007          1.9802693275798935E-003
  0.58150000000000002          1.3080576717205755E-003
  0.58300000000000007          6.0352368363924061E-004
  0.58450000000000002         -1.3108183742187134E-004
  0.58600000000000008         -8.9321648722611065E-004
  0.58750000000000002         -1.6800594799108188E-003
  0.58900000000000008         -2.4885264459483603E-003
  0.59050000000000002         -3.3152868770109280E-003
  0.59200000000000008         -4.1567829384899883E-003
  0.59350000000000003         -5.0092536577380159E-003
  0.59500000000000008         -5.8687592421603017E-003
  0.59650000000000003         -6.7312080086523582E-003
  0.59800000000000009         -7.5923857287019253E-003
  0.59950000000000003         -8.4479845011092847E-003
  0.60100000000000009         -9.2936337474503611E-003
  0.60250000000000004         -1.0124929205404174E-002
  0.60400000000000009         -1.0937463641122013E-002
  0.60550000000000004         -1.1726860871835261E-002
  0.60700000000000010         -1.2488804447369769E-002
  0.60850000000000004         -1.3219068128926106E-002
  0.61000000000000010         -1.3913548212484854E-002
  0.61150000000000004         -1.4568290484510527E-002
  0.61300000000000010         -1.5179515727746964E-002
  0.61450000000000005         -1.5743642086407224E-002
  0.61600000000000010         -1.6257310321636208E-002