 -0.19999999999999998          0.0000000000000000     
 -0.19849999999999998          0.0000000000000000     
 -0.19699999999999998          0.0000000000000000     
 -0.19549999999999998          0.0000000000000000     
 -0.19399999999999998          0.0000000000000000     
 -0.19249999999999998          0.0000000000000000     
 -0.19099999999999998          0.0000000000000000     
 -0.18949999999999997          0.0000000000000000     
 -0.18799999999999997          0.0000000000000000     
 -0.18649999999999997          0.0000000000000000     
 -0.18500000000000000          0.0000000000000000     
 -0.18350000000000000          0.0000000000000000     
 -0.18200000000000000          0.0000000000000000     
 -0.18049999999999999          0.0000000000000000     
 -0.17899999999999999          0.0000000000000000     
 -0.17749999999999999          0.0000000000000000     
 -0.17599999999999999          0.0000000000000000     
 -0.17449999999999999          0.0000000000000000     
 -0.17299999999999999          0.0000000000000000     
 -0.17149999999999999          0.0000000000000000     
 -0.16999999999999998          0.0000000000000000     
 -0.16849999999999998          0.0000000000000000     
 -0.16699999999999998          0.0000000000000000     
 -0.16549999999999998          0.0000000000000000     
 -0.16399999999999998          0.0000000000000000     
 -0.16249999999999998          0.0000000000000000     
 -0.16099999999999998          0.0000000000000000     
 -0.15949999999999998          0.0000000000000000     
 -0.15799999999999997          0.0000000000000000     
 -0.15649999999999997          0.0000000000000000     
 -0.15499999999999997          0.0000000000000000     
 -0.15349999999999997          0.0000000000000000     
 -0.15199999999999997          0.0000000000000000     
 -0.15049999999999997          0.0000000000000000     
 -0.14899999999999997          0.0000000000000000     
 -0.14749999999999999          0.0000000000000000     
 -0.14599999999999999          0.0000000000000000     
 -0.14449999999999999          0.0000000000000000     
 -0.14299999999999999          0.0000000000000000     
 -0.14149999999999999          0.0000000000000000     
 -0.13999999999999999          0.0000000000000000     
 -0.13849999999999998          0.0000000000000000     
 -0.13699999999999998          0.0000000000000000     
 -0.13549999999999998          0.0000000000000000     
 -0.13399999999999998          0.0000000000000000     
 -0.13249999999999998          0.0000000000000000     
 -0.13099999999999998          0.0000000000000000     
 -0.12949999999999998          0.0000000000000000     
 -0.12799999999999997          0.0000000000000000     
 -0.12650000000000000          0.0000000000000000     
 -0.12499999999999999          0.0000000000000000     
 -0.12349999999999998          0.0000000000000000     
 -0.12199999999999998          0.0000000000000000     
 -0.12049999999999998          0.0000000000000000     
 -0.11899999999999998          0.0000000000000000     
 -0.11749999999999998          0.0000000000000000     
 -0.11599999999999998          0.0000000000000000     
 -0.11449999999999998          0.0000000000000000     
 -0.11299999999999998          0.0000000000000000     
 -0.11149999999999999          0.0000000000000000     
 -0.10999999999999999          0.0000000000000000     
 -0.10849999999999999          0.0000000000000000     
 -0.10699999999999998          0.0000000000000000     
 -0.10549999999999998          0.0000000000000000     
 -0.10399999999999998          0.0000000000000000     
 -0.10249999999999998          0.0000000000000000     
 -0.10099999999999998          0.0000000000000000     
  -9.9499999999999977E-002     0.0000000000000000     
  -9.7999999999999976E-002     0.0000000000000000     
  -9.6499999999999975E-002     0.0000000000000000     
  -9.4999999999999987E-002     0.0000000000000000     
  -9.3499999999999986E-002     0.0000000000000000     
  -9.1999999999999985E-002     0.0000000000000000     
  -9.0499999999999983E-002     0.0000000000000000     
  -8.8999999999999982E-002     0.0000000000000000     
  -8.7499999999999981E-002     0.0000000000000000     
  -8.5999999999999979E-002     0.0000000000000000     
  -8.4499999999999978E-002     0.0000000000000000     
  -8.2999999999999977E-002     0.0000000000000000     
  -8.1499999999999975E-002     0.0000000000000000     
  -7.9999999999999988E-002     0.0000000000000000     
  -7.8499999999999986E-002     0.0000000000000000     
  -7.6999999999999985E-002     0.0000000000000000     
  -7.5499999999999984E-002     0.0000000000000000     
  -7.3999999999999982E-002     0.0000000000000000     
  -7.2499999999999981E-002     0.0000000000000000     
  -7.0999999999999980E-002     0.0000000000000000     
  -6.9499999999999978E-002     0.0000000000000000     
  -6.7999999999999977E-002     0.0000000000000000     
  -6.6499999999999976E-002     0.0000000000000000     
  -6.4999999999999974E-002     0.0000000000000000     
  -6.3499999999999973E-002     0.0000000000000000     
  -6.1999999999999972E-002     0.0000000000000000     
  -6.0499999999999970E-002     0.0000000000000000     
  -5.8999999999999969E-002     0.0000000000000000     
  -5.7499999999999968E-002     0.0000000000000000     
  -5.5999999999999966E-002     0.0000000000000000     
  -5.4499999999999993E-002     0.0000000000000000     
  -5.2999999999999992E-002     0.0000000000000000     
  -5.1499999999999990E-002     0.0000000000000000     
  -4.9999999999999989E-002     0.0000000000000000     
  -4.8499999999999988E-002     0.0000000000000000     
  -4.6999999999999986E-002     0.0000000000000000     
  -4.5499999999999985E-002     0.0000000000000000     
  -4.3999999999999984E-002     0.0000000000000000     
  -4.2499999999999982E-002     0.0000000000000000     
  -4.0999999999999981E-002     0.0000000000000000     
  -3.9499999999999980E-002     0.0000000000000000     
  -3.7999999999999978E-002     0.0000000000000000     
  -3.6499999999999977E-002     0.0000000000000000     
  -3.4999999999999976E-002     0.0000000000000000     
  -3.3499999999999974E-002     0.0000000000000000     
  -3.1999999999999973E-002     0.0000000000000000     
  -3.0499999999999972E-002     0.0000000000000000     
  -2.8999999999999970E-002     0.0000000000000000     
  -2.7499999999999969E-002     0.0000000000000000     
  -2.5999999999999968E-002     0.0000000000000000     
  -2.4499999999999966E-002     0.0000000000000000     
  -2.2999999999999993E-002     0.0000000000000000     
  -2.1499999999999991E-002     0.0000000000000000     
  -1.9999999999999990E-002     0.0000000000000000     
  -1.8499999999999989E-002     0.0000000000000000     
  -1.6999999999999987E-002     0.0000000000000000     
  -1.5499999999999986E-002     0.0000000000000000     
  -1.3999999999999985E-002     0.0000000000000000     
  -1.2499999999999983E-002     0.0000000000000000     
  -1.0999999999999982E-002     0.0000000000000000     
  -9.4999999999999807E-003     0.0000000000000000     
  -7.9999999999999793E-003     0.0000000000000000     
  -6.4999999999999780E-003     0.0000000000000000     
  -4.9999999999999767E-003     0.0000000000000000     
  -3.4999999999999754E-003     0.0000000000000000     
  -1.9999999999999740E-003     0.0000000000000000     
  -4.9999999999997269E-004     0.0000000000000000     
   1.0000000000000286E-003     0.0000000000000000     
   2.5000000000000300E-003     0.0000000000000000     
   4.0000000000000313E-003     0.0000000000000000     
   5.5000000000000326E-003     0.0000000000000000     
   7.0000000000000340E-003     0.0000000000000000     
   8.5000000000000075E-003     0.0000000000000000     
   1.0000000000000009E-002     0.0000000000000000     
   1.1500000000000010E-002     0.0000000000000000     
   1.3000000000000012E-002     0.0000000000000000     
   1.4500000000000013E-002     0.0000000000000000     
   1.6000000000000014E-002     0.0000000000000000     
   1.7500000000000016E-002     0.0000000000000000     
   1.9000000000000017E-002     0.0000000000000000     
   2.0500000000000018E-002     0.0000000000000000     
   2.2000000000000020E-002     0.0000000000000000     
   2.3500000000000021E-002     0.0000000000000000     
   2.5000000000000022E-002     0.0000000000000000     
   2.6500000000000024E-002     0.0000000000000000     
   2.8000000000000025E-002     0.0000000000000000     
   2.9500000000000026E-002     0.0000000000000000     
   3.1000000000000028E-002     2.3998972942239530E-040
   3.2500000000000029E-002     2.8351137092670864E-040
   3.4000000000000030E-002     0.0000000000000000     
   3.5500000000000032E-002     0.0000000000000000     
   3.7000000000000033E-002    -4.0555186084634032E-040
   3.8500000000000034E-002    -7.1243802249574433E-040
   4.0000000000000008E-002    -7.8869782494654656E-040
   4.1500000000000009E-002    -4.7471042570169276E-040
   4.3000000000000010E-002     2.5645992263332669E-040
   4.4500000000000012E-002     1.2313246829091964E-039
   4.6000000000000013E-002     2.0557006671033886E-039
   4.7500000000000014E-002     2.2288378145229931E-039
   4.9000000000000016E-002     1.3389153970717383E-039
   5.0500000000000017E-002    -6.7586135010627384E-040
   5.2000000000000018E-002     9.5658271876919190E-039
   5.3500000000000020E-002    -5.6037215717680196E-039
   5.5000000000000021E-002    -6.1536690363109615E-039
   5.6500000000000022E-002    -1.6274035505574108E-038
   5.8000000000000024E-002    -2.6044345148322316E-038
   5.9500000000000025E-002    -2.7729121126884062E-038
   6.1000000000000026E-002    -1.6644336142650933E-038
   6.2500000000000028E-002     1.6573894532692464E-038
   6.4000000000000029E-002     3.9501171532868805E-038
   6.5500000000000030E-002     6.6783620906034104E-038
   6.7000000000000032E-002     7.4663811367710941E-038
   6.8500000000000033E-002     5.0118702716730358E-038
   7.0000000000000034E-002    -9.4334231668615440E-039
   7.1500000000000036E-002    -9.0753440872031755E-038
   7.3000000000000037E-002    -1.6601587562514027E-037
   7.4500000000000038E-002    -1.9698790404127373E-037
   7.6000000000000040E-002    -1.5027186413045436E-037
   7.7500000000000041E-002    -1.4357273081870067E-038
   7.9000000000000042E-002     1.8563470932853196E-037
   8.0500000000000044E-002     3.8676193060319677E-037
   8.2000000000000045E-002     4.9816045235264843E-037
   8.3500000000000046E-002     4.3395307451487861E-037
   8.5000000000000048E-002     1.5210589608912172E-037
   8.6500000000000049E-002    -3.0998464109306733E-037
   8.8000000000000050E-002    -8.2133834949208861E-037
   8.9499999999999996E-002    -1.1805605805542034E-036
   9.0999999999999998E-002    -1.1759363727171119E-036
   9.2499999999999999E-002    -6.7318023359455708E-037
   9.4000000000000000E-002     3.0011375081494025E-037
   9.5500000000000002E-002     1.5095376487404340E-036
   9.7000000000000003E-002     2.5409879909161634E-036
   9.8500000000000004E-002     2.9118120364527513E-036
  0.10000000000000001          2.2462256954299181E-036
  0.10150000000000001          4.6225864349660286E-037
  0.10300000000000001         -2.1035113689608666E-036
  0.10450000000000001         -4.7028149605180045E-036
  0.10600000000000001         -6.3486960654474524E-036
  0.10750000000000001         -6.1316142092039564E-036
  0.10900000000000001         -3.5898776013343812E-036
  0.11050000000000001          9.9814542333458704E-037
  0.11200000000000002          6.5343242077389107E-036
  0.11350000000000002          1.1313688315152069E-035
  0.11500000000000002          1.3510602908778014E-035
  0.11650000000000002          1.1804974087079705E-035
  0.11800000000000002          5.9327285468450541E-036
  0.11950000000000002         -3.0638527274618157E-036
  0.12100000000000002         -1.3024825282143863E-035
  0.12250000000000003         -2.1277120551293045E-035
  0.12400000000000003         -2.5450136459234657E-035
  0.12550000000000003         -2.4177680374368054E-035
  0.12700000000000003         -1.7375840872283844E-035
  0.12850000000000003         -5.9628633080779593E-036
  0.13000000000000003          8.8207954472705860E-036
  0.13150000000000003          2.6047702280316919E-035
  0.13300000000000003          4.5130917735153265E-035
  0.13450000000000004          6.4865960347070720E-035
  0.13600000000000004          8.1628515656215013E-035
  0.13750000000000004          8.7585348306089108E-035
  0.13900000000000004          7.0382719226168212E-035
  0.14050000000000004          1.5876015109998376E-035
  0.14200000000000004         -8.5280596962982500E-035
  0.14350000000000004         -2.2802998767584490E-034
  0.14500000000000005         -3.8337995371094401E-034
  0.14650000000000005         -4.9404250608113441E-034
  0.14800000000000005         -4.8100441925961891E-034
  0.14950000000000005         -2.6504302612742912E-034
  0.15100000000000005          1.9746681168612734E-034
  0.15250000000000000          8.7212466276953674E-034
  0.15400000000000000          1.6125936988099402E-033
  0.15550000000000000          2.1551934983328545E-033
  0.15700000000000000          2.1607229785208475E-033
  0.15850000000000000          1.3122630724881669E-033
  0.16000000000000000         -5.4125093133602687E-034
  0.16150000000000000         -3.2304480247980785E-033
  0.16300000000000001         -6.1575049165632352E-033
  0.16450000000000001         -8.3031523575774515E-033
  0.16600000000000001         -8.4059063104670536E-033
  0.16750000000000001         -5.3308846875848821E-033
  0.16900000000000001          1.4206735883352678E-033
  0.17050000000000001          1.1189566925044792E-032
  0.17200000000000001          2.1820778361055970E-032
  0.17350000000000002          2.9730621974791268E-032
  0.17500000000000002          3.0551655114651206E-032
  0.17650000000000002          2.0391349411852061E-032
  0.17800000000000002         -2.4740036733758434E-033
  0.17950000000000002         -3.5895996623511032E-032
  0.18100000000000002         -7.2770406450933433E-032
  0.18250000000000002         -1.0126556073248824E-031
  0.18400000000000002         -1.0689302324833463E-031
  0.18550000000000003         -7.6521755279415291E-032
  0.18700000000000003         -3.7768922892197269E-033
  0.18850000000000003          1.0548845245107910E-031
  0.19000000000000003          2.2957835945631031E-031
  0.19150000000000003          3.3132938979938594E-031
  0.19300000000000003          3.6414521418157798E-031
  0.19450000000000003          2.8410504441604059E-031
  0.19600000000000004          6.6610103828663129E-032
  0.19750000000000004         -2.7622492771539115E-031
  0.19900000000000004         -6.8314744140524335E-031
  0.20050000000000004         -1.0427947515188417E-030
  0.20200000000000004         -1.2095348638935141E-030
  0.20350000000000004         -1.0380468532613844E-030
  0.20500000000000004         -4.3302521116159480E-031
  0.20650000000000004          5.9628362716954550E-031
  0.20800000000000005          1.8930148890393255E-030
  0.20950000000000005          3.1404805159769905E-030
  0.21100000000000005          3.8981235092242820E-030
  0.21250000000000005          3.6942423131019953E-030
  0.21400000000000005          2.1689336066646835E-030
  0.21550000000000005         -7.5854252066871019E-031
  0.21700000000000000         -4.7425644279001782E-030
  0.21850000000000000         -8.9406644716747327E-030
  0.22000000000000000         -1.2074853036961062E-029
  0.22150000000000000         -1.2660024267180538E-029
  0.22300000000000000         -9.3954759665660254E-030
  0.22450000000000001         -1.6617503433924827E-030
  0.22600000000000001          9.9923399610948685E-030
  0.22750000000000001          2.3531409029273661E-029
  0.22900000000000001          3.5454089195827133E-029
  0.23050000000000001          4.1285131100175631E-029
  0.23200000000000001          3.6577207825213878E-029
  0.23350000000000001          1.8317095686394446E-029
  0.23500000000000001         -1.3537164452184899E-029
  0.23650000000000002         -5.4811634999453895E-029
  0.23800000000000002         -9.6666683901305102E-029
  0.23950000000000002         -1.2640032253430084E-028
  0.24100000000000002         -1.2976189099326363E-028
  0.24250000000000002         -9.4675550865597703E-029
  0.24400000000000002         -1.5805651372452033E-029
  0.24550000000000002          1.0108119050756940E-028
  0.24700000000000003          2.3635091161647560E-028
  0.24850000000000003          3.5679489650899577E-028
  0.25000000000000000          4.2009939796746928E-028
  0.25150000000000006          3.8380511605055984E-028
  0.25300000000000000          2.1786332247503340E-028
  0.25450000000000006         -8.1507473912151810E-029
  0.25600000000000001         -4.8022980786639527E-028
  0.25750000000000006         -9.0131123571058450E-028
  0.25900000000000001         -1.2303310343224369E-027
  0.26050000000000006         -1.3339536696545310E-027
  0.26200000000000001         -1.0911341048895119E-027
  0.26350000000000007         -4.3291240923472035E-028
  0.26500000000000001          6.1732762003721180E-028
  0.26650000000000007          1.9144577519252508E-027
  0.26800000000000002          3.1855620111841611E-027
  0.26950000000000007          4.0578466174007126E-027
  0.27100000000000002          4.1254760025421826E-027
  0.27250000000000008          3.0512546319442934E-027
  0.27400000000000002          6.8780417549105792E-028
  0.27550000000000008         -2.8082598856396810E-027
  0.27700000000000002         -6.9034985654115731E-027
  0.27850000000000008         -1.0691764041702148E-026
  0.28000000000000003         -1.3002793286820574E-026
  0.28149999999999997         -1.2624223115497256E-026
  0.28300000000000003         -8.6182873530097012E-027
  0.28449999999999998         -6.8181229197680386E-028
  0.28600000000000003          1.0532268097110782E-026
  0.28749999999999998          2.3232999036741420E-026
  0.28900000000000003          3.4549151478245303E-026
  0.29049999999999998          4.0898598694292873E-026
  0.29200000000000004          3.8683869262103685E-026
  0.29349999999999998          2.5247046979268211E-026
  0.29500000000000004         -7.5686884909790618E-029
  0.29649999999999999         -3.5042483017926070E-026
  0.29800000000000004         -7.4028792231697565E-026
  0.29949999999999999         -1.0826558823569478E-025
  0.30100000000000005         -1.2698617192678747E-025
  0.30250000000000010         -1.1950700473380915E-025
  0.30400000000000005         -7.8034501717508288E-026
  0.30550000000000010         -7.3010376748584337E-028
  0.30700000000000005          1.0566392537431235E-025
  0.30850000000000011          2.2446579554891854E-025
  0.31000000000000005          3.2975400328487782E-025
  0.31150000000000011          3.8966828271164937E-025
  0.31300000000000006          3.7238177597327895E-025
  0.31450000000000000          2.5416600507134226E-025
  0.31600000000000006          2.8245593271823567E-026
  0.31750000000000000         -2.8750394117496457E-025
  0.31900000000000006         -6.4633436883513632E-025
  0.32050000000000001         -9.7412390106083570E-025
  0.32200000000000006         -1.1781849515325023E-024
  0.32350000000000001         -1.1636998743862146E-024
  0.32500000000000007         -8.5634070611642852E-025
  0.32650000000000001         -2.2762736077830109E-025
  0.32800000000000007          6.8223874457267683E-025
  0.32950000000000002          1.7504668478856457E-024
  0.33100000000000007          2.7730679413396269E-024
  0.33250000000000002          3.4863269795877900E-024
  0.33400000000000007          3.6099047953358743E-024
  0.33550000000000002          2.9084330810744594E-024
  0.33700000000000008          1.2630496409836791E-024
  0.33850000000000002         -1.2608599435272177E-024
  0.34000000000000008         -4.3670001591000460E-024
  0.34150000000000003         -7.5205306440617748E-024
  0.34300000000000008         -9.9940165102427532E-024
  0.34450000000000003         -1.0973690485977236E-023
  0.34600000000000009         -9.7208495763769602E-024
  0.34750000000000003         -5.7687273172127398E-024
  0.34900000000000009          8.7930794135386153E-025
  0.35050000000000003          9.5955183702257012E-024
  0.35200000000000009          1.9067089159447520E-023
  0.35350000000000004          2.7372767972082953E-023
  0.35500000000000009          3.2223124760943960E-023
  0.35650000000000004          3.1361706859292996E-023
  0.35800000000000010          2.3087245621547540E-023
  0.35950000000000004          6.8171517454074280E-024
  0.36100000000000010         -1.6421286956094881E-023
  0.36250000000000004         -4.3704734992683537E-023
  0.36400000000000010         -7.0260399338997249E-023
  0.36550000000000005         -8.9938440303760210E-023
  0.36700000000000010         -9.6137473231946704E-023
  0.36850000000000005         -8.3118763329215895E-023
  0.37000000000000011         -4.7539882061099664E-023
  0.37150000000000005          1.0060979018524329E-023
  0.37300000000000011          8.4168519516457838E-023
  0.37450000000000006          1.6393799467126092E-022
  0.37600000000000011          2.3388862657334294E-022
  0.37750000000000006          2.7580836430563565E-022
  0.37900000000000000          2.7182537881168319E-022
  0.38050000000000006          2.0833731366382121E-022
  0.38200000000000001          8.0216892341669925E-023
  0.38350000000000006         -1.0551719176757441E-022
  0.38500000000000001         -3.2749967326870295E-022
  0.38650000000000007         -5.5018384741243607E-022
  0.38800000000000001         -7.2703327494442755E-022
  0.38950000000000007         -8.0695580274288993E-022
  0.39100000000000001         -7.4358262206009320E-022
  0.39250000000000007         -5.0629244887569722E-022
  0.39400000000000002         -9.1202811613590082E-023
  0.39550000000000007          4.7014187146290002E-022
  0.39700000000000002          1.1068277970182689E-021
  0.39850000000000008          1.7115307668236444E-021
  0.40000000000000002          2.1517326884949127E-021
  0.40150000000000008          2.2892517370237650E-021
  0.40300000000000002          2.0064804905135794E-021
  0.40450000000000008          1.2359289273863392E-021
  0.40600000000000003         -1.1919483617140704E-023
  0.40750000000000008         -1.6284703193094192E-021
  0.40900000000000003         -3.4007258016314337E-021
  0.41050000000000009         -5.0238866275193396E-021
  0.41200000000000003         -6.1355253026449633E-021
  0.41350000000000009         -6.3704956206127113E-021
  0.41500000000000004         -5.4314505652818727E-021
  0.41650000000000009         -3.1654410626836087E-021
  0.41800000000000004          3.6662347399954201E-022
  0.41950000000000010          4.8429715756113252E-021
  0.42100000000000004          9.6714150425176659E-021
  0.42250000000000010          1.4028965616805371E-020
  0.42400000000000004          1.6955967531928269E-020
  0.42550000000000010          1.7501104967881752E-020
  0.42700000000000005          1.4903094448874556E-020
  0.42850000000000010          8.7843241083855705E-021
  0.43000000000000005         -6.7680894958037215E-022
  0.43150000000000011         -1.2632405528925259E-020
  0.43300000000000005         -2.5546551489902728E-020
  0.43450000000000011         -3.7299094165738149E-020
  0.43600000000000005         -4.5423402191239226E-020
  0.43750000000000011         -4.7467826135552691E-020
  0.43900000000000006         -4.1445778836476990E-020
  0.44050000000000000         -2.6314243226030746E-020
  0.44200000000000006         -2.4013171999464208E-021
  0.44350000000000001          2.8306673993223071E-020
  0.44500000000000006          6.2103965701313292E-020
  0.44650000000000001          9.3795241186520248E-020
  0.44800000000000006          1.1724538534530062E-019
  0.44950000000000001          1.2622793548867065E-019
  0.45100000000000007          1.1549329838537609E-019
  0.45250000000000001          8.1921353563735249E-020
  0.45400000000000007          2.5577407670437695E-020
  0.45550000000000002         -4.9533926921453106E-020
  0.45700000000000007         -1.3521622141925083E-019
  0.45850000000000002         -2.1948726879252132E-019
  0.46000000000000008         -2.8772307996538210E-019
  0.46150000000000002         -3.2451175029193052E-019
  0.46300000000000008         -3.1606045768154289E-019
  0.46450000000000002         -2.5287498426710823E-019
  0.46600000000000008         -1.3232246022407362E-019
  0.46750000000000003          3.9373802507552391E-020
  0.46900000000000008          2.4615904998596704E-019
  0.47050000000000003          4.6257004630977366E-019
  0.47200000000000009          6.5578317357812933E-019
  0.47350000000000003          7.8929477663917552E-019
  0.47500000000000009          8.2798085885128960E-019
  0.47650000000000003          7.4400510728117243E-019
  0.47800000000000009          5.2280743377650657E-019
  0.47950000000000004          1.6823688595835313E-019
  0.48100000000000009         -2.9415181475643726E-019
  0.48250000000000004         -8.1651776701296106E-019
  0.48400000000000010         -1.3314961835444088E-018
  0.48550000000000004         -1.7585227398742754E-018
  0.48700000000000010         -2.0134372724952692E-018
  0.48850000000000005         -2.0205213133387967E-018
  0.49000000000000010         -1.7256033768081578E-018
  0.49150000000000005         -1.1084574761646631E-018
  0.49300000000000010         -1.9251094113310236E-019
  0.49450000000000005          9.5006910459890250E-019
  0.49600000000000011          2.1994939344661745E-018
  0.49750000000000005          3.3966108403526166E-018
  0.49900000000000011          4.3583606599249138E-018
  0.50050000000000006          4.8994603792687805E-018
  0.50200000000000011          4.8582734997263104E-018
  0.50350000000000006          4.1239348401254067E-018
  0.50500000000000000          2.6611105385325572E-018
  0.50650000000000006          5.2857716510052916E-019
  0.50800000000000001         -2.1119474104337176E-018
  0.50950000000000006         -4.9994866322382279E-018
  0.51100000000000001         -7.7914883584512819E-018
  0.51250000000000007         -1.0095314177400459E-017
  0.51400000000000001         -1.1511502327213713E-017
  0.51550000000000007         -1.1684906862544916E-017
  0.51700000000000002         -1.0358303712137048E-017
  0.51850000000000007         -7.4219155840168109E-018
  0.52000000000000002         -2.9520498586426678E-018
  0.52150000000000007          2.7675690686078002E-018
  0.52300000000000002          9.2468333826922209E-018
  0.52450000000000008          1.5815720529491008E-017
  0.52600000000000002          2.1676437569112143E-017
  0.52750000000000008          2.5978712916250678E-017
  0.52900000000000003          2.7912521455789592E-017
  0.53050000000000008          2.6810024344641573E-017
  0.53200000000000003          2.2246400126658695E-017
  0.53350000000000009          1.4128165687281969E-017
  0.53500000000000003          2.7577111515968642E-018
  0.53650000000000009         -1.1136163486888265E-017
  0.53800000000000003         -2.6409550382669900E-017
  0.53950000000000009         -4.1561162616064462E-017
  0.54100000000000004         -5.4836848938294573E-017
  0.54250000000000009         -6.4377178390034252E-017
  0.54400000000000004         -6.8399307287054395E-017
  0.54550000000000010         -6.5400354063463653E-017
  0.54700000000000004         -5.4365747280695347E-017
  0.54850000000000010         -3.4963098930439269E-017
  0.55000000000000004         -7.7006703533468434E-018
  0.55150000000000010          2.5970884781434041E-017
  0.55300000000000005          6.3632628779952302E-017
  0.55450000000000010          1.0196388692665449E-016
  0.55600000000000005          1.3691173459105633E-016
  0.55750000000000011          1.6396711096711370E-016
  0.55900000000000005          1.7854163473547097E-016
  0.56050000000000011          1.7642883866759700E-016
  0.56200000000000006          1.5432214433349206E-016
  0.56350000000000011          1.1034983545447480E-016
  0.56500000000000006          4.4577339666258065E-017
  0.56650000000000011         -4.0582385318107026E-017
  0.56800000000000006         -1.4011195385759968E-016
  0.56950000000000001         -2.4634691926768909E-016
  0.57100000000000006         -3.4920361893664718E-016
  0.57250000000000001         -4.3671183027490700E-016
  0.57400000000000007         -4.9586845754383739E-016
  0.57550000000000001         -5.1379622440022035E-016
  0.57700000000000007         -4.7915070695373648E-016
  0.57850000000000001         -3.8368689517391794E-016
  0.58000000000000007         -2.2384962567611454E-016
  0.58150000000000002         -2.2255768424544273E-018
  0.58300000000000007          2.7133434661980638E-016
  0.58450000000000002          5.7911594602085018E-016
  0.58600000000000008          8.9564759429396546E-016
  0.58750000000000002          1.1886617001508708E-015
  0.58900000000000008          1.4210010904090017E-015
  0.59050000000000002          1.5534680209504959E-015
  0.59200000000000008          1.5485308070026950E-015
  0.59350000000000003          1.3746768019258046E-015
  0.59500000000000008          1.0110912357429044E-015
  0.59650000000000003          4.5224889986278761E-016
  0.59800000000000009         -2.8809093198435574E-016
  0.59950000000000003         -1.1740269976564743E-015
  0.60100000000000009         -2.1463218475366519E-015
  0.60250000000000004         -3.1233595345757782E-015
  0.60400000000000009         -4.0045764956452313E-015
  0.60550000000000004         -4.6765659667553174E-015
  0.60700000000000010         -5.0217526217813129E-015
  0.60850000000000004         -4.9293210340067492E-015
  0.61000000000000010         -4.3077288383083411E-015
  0.61150000000000004         -3.0979580725530796E-015
  0.61300000000000010         -1.2862883487040064E-015
  0.61450000000000005          1.0846980210486383E-015
  0.61600000000000010          3.9082935078940068E-015