 -0.19999999999999998          0.0000000000000000     
 -0.19849999999999998          0.0000000000000000     
 -0.19699999999999998          0.0000000000000000     
 -0.19549999999999998          0.0000000000000000     
 -0.19399999999999998          0.0000000000000000     
 -0.19249999999999998          0.0000000000000000     
 -0.19099999999999998          0.0000000000000000     
 -0.18949999999999997          0.0000000000000000     
 -0.18799999999999997          0.0000000000000000     
 -0.18649999999999997          0.0000000000000000     
 -0.18500000000000000          0.0000000000000000     
 -0.18350000000000000          0.0000000000000000     
 -0.18200000000000000          0.0000000000000000     
 -0.18049999999999999          0.0000000000000000     
 -0.17899999999999999          0.0000000000000000     
 -0.17749999999999999          0.0000000000000000     
 -0.17599999999999999          0.0000000000000000     
 -0.17449999999999999          0.0000000000000000     
 -0.17299999999999999          0.0000000000000000     
 -0.17149999999999999          0.0000000000000000     
 -0.16999999999999998          0.0000000000000000     
 -0.16849999999999998          0.0000000000000000     
 -0.16699999999999998          0.0000000000000000     
 -0.16549999999999998          0.0000000000000000     
 -0.16399999999999998          0.0000000000000000     
 -0.16249999999999998          0.0000000000000000     
 -0.16099999999999998          0.0000000000000000     
 -0.15949999999999998          0.0000000000000000     
 -0.15799999999999997          0.0000000000000000     
 -0.15649999999999997          0.0000000000000000     
 -0.15499999999999997          0.0000000000000000     
 -0.15349999999999997          0.0000000000000000     
 -0.15199999999999997          0.0000000000000000     
 -0.15049999999999997          0.0000000000000000     
 -0.14899999999999997          0.0000000000000000     
 -0.14749999999999999          0.0000000000000000     
 -0.14599999999999999          0.0000000000000000     
 -0.14449999999999999          0.0000000000000000     
 -0.14299999999999999          0.0000000000000000     
 -0.14149999999999999          0.0000000000000000     
 -0.13999999999999999          0.0000000000000000     
 -0.13849999999999998          0.0000000000000000     
 -0.13699999999999998          0.0000000000000000     
 -0.13549999999999998          0.0000000000000000     
 -0.13399999999999998          0.0000000000000000     
 -0.13249999999999998          0.0000000000000000     
 -0.13099999999999998          0.0000000000000000     
 -0.12949999999999998          0.0000000000000000     
 -0.12799999999999997          0.0000000000000000     
 -0.12650000000000000          0.0000000000000000     
 -0.12499999999999999          0.0000000000000000     
 -0.12349999999999998          0.0000000000000000     
 -0.12199999999999998          0.0000000000000000     
 -0.12049999999999998          0.0000000000000000     
 -0.11899999999999998          0.0000000000000000     
 -0.11749999999999998          0.0000000000000000     
 -0.11599999999999998          0.0000000000000000     
 -0.11449999999999998          0.0000000000000000     
 -0.11299999999999998          0.0000000000000000     
 -0.11149999999999999          0.0000000000000000     
 -0.10999999999999999          0.0000000000000000     
 -0.10849999999999999          0.0000000000000000     
 -0.10699999999999998          0.0000000000000000     
 -0.10549999999999998          0.0000000000000000     
 -0.10399999999999998          0.0000000000000000     
 -0.10249999999999998          0.0000000000000000     
 -0.10099999999999998          0.0000000000000000     
  -9.9499999999999977E-002     0.0000000000000000     
  -9.7999999999999976E-002     0.0000000000000000     
  -9.6499999999999975E-002     0.0000000000000000     
  -9.4999999999999987E-002     0.0000000000000000     
  -9.3499999999999986E-002     0.0000000000000000     
  -9.1999999999999985E-002     0.0000000000000000     
  -9.0499999999999983E-002     0.0000000000000000     
  -8.8999999999999982E-002     0.0000000000000000     
  -8.7499999999999981E-002     0.0000000000000000     
  -8.5999999999999979E-002     0.0000000000000000     
  -8.4499999999999978E-002     0.0000000000000000     
  -8.2999999999999977E-002     0.0000000000000000     
  -8.1499999999999975E-002     0.0000000000000000     
  -7.9999999999999988E-002     0.0000000000000000     
  -7.8499999999999986E-002     0.0000000000000000     
  -7.6999999999999985E-002     0.0000000000000000     
  -7.5499999999999984E-002     0.0000000000000000     
  -7.3999999999999982E-002     0.0000000000000000     
  -7.2499999999999981E-002     0.0000000000000000     
  -7.0999999999999980E-002     0.0000000000000000     
  -6.9499999999999978E-002     0.0000000000000000     
  -6.7999999999999977E-002     0.0000000000000000     
  -6.6499999999999976E-002     0.0000000000000000     
  -6.4999999999999974E-002     0.0000000000000000     
  -6.3499999999999973E-002     0.0000000000000000     
  -6.1999999999999972E-002     0.0000000000000000     
  -6.0499999999999970E-002     0.0000000000000000     
  -5.8999999999999969E-002     0.0000000000000000     
  -5.7499999999999968E-002     0.0000000000000000     
  -5.5999999999999966E-002     0.0000000000000000     
  -5.4499999999999993E-002     0.0000000000000000     
  -5.2999999999999992E-002     0.0000000000000000     
  -5.1499999999999990E-002     0.0000000000000000     
  -4.9999999999999989E-002     0.0000000000000000     
  -4.8499999999999988E-002     0.0000000000000000     
  -4.6999999999999986E-002     0.0000000000000000     
  -4.5499999999999985E-002     0.0000000000000000     
  -4.3999999999999984E-002     0.0000000000000000     
  -4.2499999999999982E-002     0.0000000000000000     
  -4.0999999999999981E-002     0.0000000000000000     
  -3.9499999999999980E-002     0.0000000000000000     
  -3.7999999999999978E-002     0.0000000000000000     
  -3.6499999999999977E-002     0.0000000000000000     
  -3.4999999999999976E-002     0.0000000000000000     
  -3.3499999999999974E-002     0.0000000000000000     
  -3.1999999999999973E-002     0.0000000000000000     
  -3.0499999999999972E-002     0.0000000000000000     
  -2.8999999999999970E-002     0.0000000000000000     
  -2.7499999999999969E-002     0.0000000000000000     
  -2.5999999999999968E-002     0.0000000000000000     
  -2.4499999999999966E-002     0.0000000000000000     
  -2.2999999999999993E-002     0.0000000000000000     
  -2.1499999999999991E-002     0.0000000000000000     
  -1.9999999999999990E-002     0.0000000000000000     
  -1.8499999999999989E-002     0.0000000000000000     
  -1.6999999999999987E-002     0.0000000000000000     
  -1.5499999999999986E-002     0.0000000000000000     
  -1.3999999999999985E-002     0.0000000000000000     
  -1.2499999999999983E-002     0.0000000000000000     
  -1.0999999999999982E-002     0.0000000000000000     
  -9.4999999999999807E-003     0.0000000000000000     
  -7.9999999999999793E-003     0.0000000000000000     
  -6.4999999999999780E-003     0.0000000000000000     
  -4.9999999999999767E-003     0.0000000000000000     
  -3.4999999999999754E-003     0.0000000000000000     
  -1.9999999999999740E-003     0.0000000000000000     
  -4.9999999999997269E-004     0.0000000000000000     
   1.0000000000000286E-003     0.0000000000000000     
   2.5000000000000300E-003     0.0000000000000000     
   4.0000000000000313E-003     0.0000000000000000     
   5.5000000000000326E-003     0.0000000000000000     
   7.0000000000000340E-003     0.0000000000000000     
   8.5000000000000075E-003     0.0000000000000000     
   1.0000000000000009E-002     0.0000000000000000     
   1.1500000000000010E-002     0.0000000000000000     
   1.3000000000000012E-002     0.0000000000000000     
   1.4500000000000013E-002     0.0000000000000000     
   1.6000000000000014E-002     0.0000000000000000     
   1.7500000000000016E-002     0.0000000000000000     
   1.9000000000000017E-002     0.0000000000000000     
   2.0500000000000018E-002     0.0000000000000000     
   2.2000000000000020E-002     0.0000000000000000     
   2.3500000000000021E-002     0.0000000000000000     
   2.5000000000000022E-002     0.0000000000000000     
   2.6500000000000024E-002     0.0000000000000000     
   2.8000000000000025E-002     0.0000000000000000     
   2.9500000000000026E-002     0.0000000000000000     
   3.1000000000000028E-002     0.0000000000000000     
   3.2500000000000029E-002     0.0000000000000000     
   3.4000000000000030E-002     0.0000000000000000     
   3.5500000000000032E-002     0.0000000000000000     
   3.7000000000000033E-002     0.0000000000000000     
   3.8500000000000034E-002     0.0000000000000000     
   4.0000000000000008E-002     0.0000000000000000     
   4.1500000000000009E-002     0.0000000000000000     
   4.3000000000000010E-002     0.0000000000000000     
   4.4500000000000012E-002     0.0000000000000000     
   4.6000000000000013E-002     0.0000000000000000     
   4.7500000000000014E-002     0.0000000000000000     
   4.9000000000000016E-002     0.0000000000000000     
   5.0500000000000017E-002     0.0000000000000000     
   5.2000000000000018E-002     0.0000000000000000     
   5.3500000000000020E-002     0.0000000000000000     
   5.5000000000000021E-002     0.0000000000000000     
   5.6500000000000022E-002     0.0000000000000000     
   5.8000000000000024E-002     0.0000000000000000     
   5.9500000000000025E-002     0.0000000000000000     
   6.1000000000000026E-002     0.0000000000000000     
   6.2500000000000028E-002     0.0000000000000000     
   6.4000000000000029E-002     0.0000000000000000     
   6.5500000000000030E-002     0.0000000000000000     
   6.7000000000000032E-002     0.0000000000000000     
   6.8500000000000033E-002     0.0000000000000000     
   7.0000000000000034E-002     0.0000000000000000     
   7.1500000000000036E-002     0.0000000000000000     
   7.3000000000000037E-002     0.0000000000000000     
   7.4500000000000038E-002     0.0000000000000000     
   7.6000000000000040E-002     0.0000000000000000     
   7.7500000000000041E-002     0.0000000000000000     
   7.9000000000000042E-002     0.0000000000000000     
   8.0500000000000044E-002     0.0000000000000000     
   8.2000000000000045E-002     0.0000000000000000     
   8.3500000000000046E-002     0.0000000000000000     
   8.5000000000000048E-002     0.0000000000000000     
   8.6500000000000049E-002     0.0000000000000000     
   8.8000000000000050E-002     0.0000000000000000     
   8.9499999999999996E-002     0.0000000000000000     
   9.0999999999999998E-002     0.0000000000000000     
   9.2499999999999999E-002     0.0000000000000000     
   9.4000000000000000E-002     0.0000000000000000     
   9.5500000000000002E-002     0.0000000000000000     
   9.7000000000000003E-002     0.0000000000000000     
   9.8500000000000004E-002     0.0000000000000000     
  0.10000000000000001          0.0000000000000000     
  0.10150000000000001          0.0000000000000000     
  0.10300000000000001          0.0000000000000000     
  0.10450000000000001          0.0000000000000000     
  0.10600000000000001          0.0000000000000000     
  0.10750000000000001          0.0000000000000000     
  0.10900000000000001          0.0000000000000000     
  0.11050000000000001          0.0000000000000000     
  0.11200000000000002          0.0000000000000000     
  0.11350000000000002          0.0000000000000000     
  0.11500000000000002          0.0000000000000000     
  0.11650000000000002          0.0000000000000000     
  0.11800000000000002          0.0000000000000000     
  0.11950000000000002          0.0000000000000000     
  0.12100000000000002          0.0000000000000000     
  0.12250000000000003          0.0000000000000000     
  0.12400000000000003          0.0000000000000000     
  0.12550000000000003          0.0000000000000000     
  0.12700000000000003          0.0000000000000000     
  0.12850000000000003          0.0000000000000000     
  0.13000000000000003          0.0000000000000000     
  0.13150000000000003          0.0000000000000000     
  0.13300000000000003          0.0000000000000000     
  0.13450000000000004          0.0000000000000000     
  0.13600000000000004          0.0000000000000000     
  0.13750000000000004          0.0000000000000000     
  0.13900000000000004          0.0000000000000000     
  0.14050000000000004          0.0000000000000000     
  0.14200000000000004          0.0000000000000000     
  0.14350000000000004          0.0000000000000000     
  0.14500000000000005          0.0000000000000000     
  0.14650000000000005          0.0000000000000000     
  0.14800000000000005          0.0000000000000000     
  0.14950000000000005          0.0000000000000000     
  0.15100000000000005          0.0000000000000000     
  0.15250000000000000          0.0000000000000000     
  0.15400000000000000          0.0000000000000000     
  0.15550000000000000          0.0000000000000000     
  0.15700000000000000          0.0000000000000000     
  0.15850000000000000          0.0000000000000000     
  0.16000000000000000          0.0000000000000000     
  0.16150000000000000          0.0000000000000000     
  0.16300000000000001          0.0000000000000000     
  0.16450000000000001          0.0000000000000000     
  0.16600000000000001          0.0000000000000000     
  0.16750000000000001          0.0000000000000000     
  0.16900000000000001          0.0000000000000000     
  0.17050000000000001          0.0000000000000000     
  0.17200000000000001          0.0000000000000000     
  0.17350000000000002          0.0000000000000000     
  0.17500000000000002          0.0000000000000000     
  0.17650000000000002          0.0000000000000000     
  0.17800000000000002          0.0000000000000000     
  0.17950000000000002          0.0000000000000000     
  0.18100000000000002          0.0000000000000000     
  0.18250000000000002          0.0000000000000000     
  0.18400000000000002          0.0000000000000000     
  0.18550000000000003          0.0000000000000000     
  0.18700000000000003          0.0000000000000000     
  0.18850000000000003          0.0000000000000000     
  0.19000000000000003          0.0000000000000000     
  0.19150000000000003          0.0000000000000000     
  0.19300000000000003          0.0000000000000000     
  0.19450000000000003          0.0000000000000000     
  0.19600000000000004          0.0000000000000000     
  0.19750000000000004          0.0000000000000000     
  0.19900000000000004          0.0000000000000000     
  0.20050000000000004          0.0000000000000000     
  0.20200000000000004          0.0000000000000000     
  0.20350000000000004          0.0000000000000000     
  0.20500000000000004          0.0000000000000000     
  0.20650000000000004         -1.8207090587616773E-039
  0.20800000000000005         -2.4491850788890896E-039
  0.20950000000000005         -2.3660333156055241E-039
  0.21100000000000005          0.0000000000000000     
  0.21250000000000005          0.0000000000000000     
  0.21400000000000005          3.6358185167112364E-039
  0.21550000000000005          6.4550784536491503E-039
  0.21700000000000000          8.3132035062017144E-039
  0.21850000000000000          8.0539508237606836E-039
  0.22000000000000000          4.8005700263809185E-039
  0.22150000000000000         -1.7227913070240023E-039
  0.22300000000000000         -1.0796608468827868E-038
  0.22450000000000001         -2.0477508565103396E-038
  0.22600000000000001         -2.7677477543563214E-038
  0.22750000000000001         -2.8726547721398003E-038
  0.22900000000000001         -2.0335216676561918E-038
  0.23050000000000001          1.5410262521662731E-038
  0.23200000000000001          4.9958554104313661E-038
  0.23350000000000001          8.5438759311263224E-038
  0.23500000000000001          1.0885908137749027E-037
  0.23650000000000002          1.0080628187441313E-037
  0.23800000000000002          6.6969794099561724E-038
  0.23950000000000002         -1.4180907470544332E-038
  0.24100000000000002         -1.2062562921191969E-037
  0.24250000000000002         -2.4612811868034902E-037
  0.24400000000000002         -3.4864654719903279E-037
  0.24550000000000002         -3.8549681581732307E-037
  0.24700000000000003         -3.0010168355280069E-037
  0.24850000000000003         -9.5166828014270867E-038
  0.25000000000000000          2.4868015778103910E-037
  0.25150000000000006          6.7116298141464016E-037
  0.25300000000000000          1.0698683164629377E-036
  0.25450000000000006          1.3052903948654328E-036
  0.25600000000000001          1.2178246670422149E-036
  0.25750000000000006          7.0103116573651230E-037
  0.25900000000000001         -2.8371870064376296E-037
  0.26050000000000006         -1.6291099323456107E-036
  0.26200000000000001         -3.0666997556132949E-036
  0.26350000000000007         -4.1782462593458430E-036
  0.26500000000000001         -4.4625771407320095E-036
  0.26650000000000007         -3.4564408794441283E-036
  0.26800000000000002         -9.0006442981677583E-037
  0.26950000000000007          3.0947148144041959E-036
  0.27100000000000002          7.9152237700924752E-036
  0.27250000000000008          1.2420814595731658E-035
  0.27400000000000002          1.5067563494578677E-035
  0.27550000000000008          1.4211294892839499E-035
  0.27700000000000002          8.5714075750845715E-036
  0.27850000000000008         -2.2185907751636731E-036
  0.28000000000000003         -1.7105341541192852E-035
  0.28149999999999997         -3.3327491604871371E-035
  0.28300000000000003         -4.6523774350770043E-035
  0.28449999999999998         -5.1370588502807287E-035
  0.28600000000000003         -4.2778384423464273E-035
  0.28749999999999998         -1.7520795287875445E-035
  0.28900000000000003          2.4010345025382991E-035
  0.29049999999999998          7.6394194248480168E-035
  0.29200000000000004          1.2867483386902056E-034
  0.29349999999999998          1.6528176821318042E-034
  0.29500000000000004          1.6869231041870112E-034
  0.29649999999999999          1.2376787724861316E-034
  0.29800000000000004          2.3181511402050679E-035
  0.29949999999999999         -1.2719953344650247E-034
  0.30100000000000005         -3.0455511963126111E-034
  0.30250000000000010         -4.6872149874858877E-034
  0.30400000000000005         -5.6664139301695148E-034
  0.30550000000000010         -5.4232817733711177E-034
  0.30700000000000005         -3.5171039394553891E-034
  0.30850000000000011          1.9916478597390773E-035
  0.31000000000000005          5.4174154034259928E-034
  0.31150000000000011          1.1276795931751543E-033
  0.31300000000000006          1.6382893595334162E-033
  0.31450000000000000          1.8984552358390295E-033
  0.31600000000000006          1.7321172902706693E-033
  0.31750000000000000          1.0110829530152488E-033
  0.31900000000000006         -2.9010173581748132E-034
  0.32050000000000001         -2.0460302548604423E-033
  0.32200000000000006         -3.9549717814301855E-033
  0.32350000000000001         -5.5518893650508485E-033
  0.32500000000000007         -6.2713238958355355E-033
  0.32650000000000001         -5.5623206745337856E-033
  0.32800000000000007         -3.0442546299652918E-033
  0.32950000000000002          1.3228792497461454E-033
  0.33100000000000007          7.0941331077623163E-033
  0.33250000000000002          1.3269970086937300E-032
  0.33400000000000007          1.8348547398776025E-032
  0.33550000000000002          2.0532388193666937E-032
  0.33700000000000008          1.8093131288468031E-032
  0.33850000000000002          9.8574955581041241E-033
  0.34000000000000008         -4.2681040773489164E-033
  0.34150000000000003         -2.2857876441977989E-032
  0.34300000000000008         -4.2759136189529217E-032
  0.34450000000000003         -5.9258163495314761E-032
  0.34600000000000009         -6.6715716133002450E-032
  0.34750000000000003         -5.9682012408291481E-032
  0.34900000000000009         -3.4380982078133459E-032
  0.35050000000000003          9.6821481329714891E-033
  0.35200000000000009          6.8357247911180976E-032
  0.35350000000000004          1.3216843760860517E-031
  0.35500000000000009          1.8674018908632509E-031
  0.35650000000000004          2.1462733055282112E-031
  0.35800000000000010          1.9859733983347540E-031
  0.35950000000000004          1.2606578556328337E-031
  0.36100000000000010         -6.0129294929556019E-033
  0.36250000000000004         -1.8685936371405578E-031
  0.36400000000000010         -3.8947615790827214E-031
  0.36550000000000005         -5.7142412052509295E-031
  0.36700000000000010         -6.7971014563028010E-031
  0.36850000000000005         -6.6004972167907866E-031
  0.37000000000000011         -4.6978132714942891E-031
  0.37150000000000005         -9.2563438635573864E-032
  0.37300000000000011          4.4810828996224366E-031
  0.37450000000000006          1.0802703779343007E-030
  0.37600000000000011          1.6835634104017499E-030
  0.37750000000000006          2.1010405410592296E-030
  0.37900000000000000          2.1639712706880563E-030
  0.38050000000000006          1.7282198602238403E-030
  0.38200000000000001          7.1751178629230494E-031
  0.38350000000000006         -8.3433364994350393E-031
  0.38500000000000001         -2.7525997042709858E-030
  0.38650000000000007         -4.7135147388377929E-030
  0.38800000000000001         -6.2684468139957448E-030
  0.38950000000000007         -6.9058203083709915E-030
  0.39100000000000001         -6.1491331063171295E-030
  0.39250000000000007         -3.6804638820885689E-030
  0.39400000000000002          5.3060122527514924E-031
  0.39550000000000007          6.1206567206803526E-030
  0.39700000000000002          1.2280919135545134E-029
  0.39850000000000008          1.7790671894883358E-029
  0.40000000000000002          2.1156436639766382E-029
  0.40150000000000008          2.0860367928283036E-029
  0.40300000000000002          1.5697635826750733E-029
  0.40450000000000008          5.1558059464813118E-030
  0.40600000000000003         -1.0235618709584196E-029
  0.40750000000000008         -2.8673865202551638E-029
  0.40900000000000003         -4.7060423377253291E-029
  0.41050000000000009         -6.1260622596992956E-029
  0.41200000000000003         -6.6679347144684209E-029
  0.41350000000000009         -5.9127763038528393E-029
  0.41500000000000004         -3.5883813151072025E-029
  0.41650000000000009          3.2245544171708256E-030
  0.41800000000000004          5.4943258576573681E-029
  0.41950000000000010          1.1218089164138576E-028
  0.42100000000000004          1.6429977775424183E-028
  0.42250000000000010          1.9826940540309749E-028
  0.42400000000000004          2.0070615432728669E-028
  0.42550000000000010          1.6064020483970087E-028
  0.42700000000000005          7.2645160035799571E-029
  0.42850000000000010         -6.0223070645889196E-029
  0.43000000000000005         -2.2436305678114603E-028
  0.43150000000000011         -3.9514847929773620E-028
  0.43300000000000005         -5.3862447937605405E-028
  0.43450000000000011         -6.1569430353746685E-028
  0.43600000000000005         -5.8868631837075830E-028
  0.43750000000000011         -4.2966144434952750E-028
  0.43900000000000006         -1.2926821806400244E-028
  0.44050000000000000          2.9551839353533154E-028
  0.44200000000000006          7.9670474518913904E-028
  0.44350000000000001          1.2955139540714145E-027
  0.44500000000000006          1.6889822661215952E-027
  0.44650000000000001          1.8634796137839839E-027
  0.44800000000000006          1.7144795922332221E-027
  0.44950000000000001          1.1704534290570292E-027
  0.45100000000000007          2.1730880606833231E-028
  0.45250000000000001         -1.0813514331931272E-027
  0.45400000000000007         -2.5734089742854876E-027
  0.45550000000000002         -4.0217566843148838E-027
  0.45700000000000007         -5.1256542160718438E-027
  0.45850000000000002         -5.5609002686259472E-027
  0.46000000000000008         -5.0363952249659199E-027
  0.46150000000000002         -3.3608148110396899E-027
  0.46300000000000008         -5.0935918082916765E-028
  0.46450000000000002          3.3222804432920816E-027
  0.46600000000000008          7.6907408473581701E-027
  0.46750000000000003          1.1917397999404862E-026
  0.46900000000000008          1.5149213019996038E-026
  0.47050000000000003          1.6470093849915282E-026
  0.47200000000000009          1.5055983699066187E-026
  0.47350000000000003          1.0356770516908656E-026
  0.47500000000000009          2.2784950987529640E-027
  0.47650000000000003         -8.6679353993327477E-027
  0.47800000000000009         -2.1288290414260047E-026
  0.47950000000000004         -3.3730693427278681E-026
  0.48100000000000009         -4.3639239229013574E-026
  0.48250000000000004         -4.8442694544896911E-026
  0.48400000000000010         -4.5762610393426345E-026
  0.48550000000000004         -3.3899742985114535E-026
  0.48700000000000010         -1.2332509031835204E-026
  0.48850000000000005          1.7858304693386147E-026
  0.49000000000000010          5.3734124068558795E-026
  0.49150000000000005          9.0503116920901380E-026
  0.49300000000000010          1.2185358873085788E-025
  0.49450000000000005          1.4064566535535116E-025
  0.49600000000000011          1.3993637695899100E-025
  0.49750000000000005          1.1424869676954609E-025
  0.49900000000000011          6.0930492915062771E-026
  0.50050000000000006         -1.8606446986156090E-026
  0.50200000000000011         -1.1801087347487918E-025
  0.50350000000000006         -2.2572469055420032E-025
  0.50500000000000000         -3.2552955739863556E-025
  0.50650000000000006         -3.9802973768141108E-025
  0.50800000000000001         -4.2306840980377519E-025
  0.50950000000000006         -3.8291979366301130E-025
  0.51100000000000001         -2.6593044460013776E-025
  0.51250000000000007         -7.0125600069311115E-026
  0.51400000000000001          1.9382247496269592E-025
  0.51550000000000007          5.0091741374301908E-025
  0.51700000000000002          8.1206529916516520E-025
  0.51850000000000007          1.0766671399239009E-024
  0.52000000000000002          1.2377789180632818E-024
  0.52150000000000007          1.2396797224785214E-024
  0.52300000000000002          1.0372673136653267E-024
  0.52450000000000008          6.0625616696726066E-025
  0.52600000000000002         -4.7236208409838254E-026
  0.52750000000000008         -8.7939814287903234E-025
  0.52900000000000003         -1.8054883818593087E-024
  0.53050000000000008         -2.7022395909079355E-024
  0.53200000000000003         -3.4170090425550275E-024
  0.53350000000000009         -3.7840336045465589E-024
  0.53500000000000003         -3.6471135168641934E-024
  0.53650000000000009         -2.8868994345601993E-024
  0.53800000000000003         -1.4497497576594498E-024
  0.53950000000000009          6.2591675160587719E-025
  0.54100000000000004          3.1905287915414028E-024
  0.54250000000000009          5.9764255964892412E-024
  0.54400000000000004          8.6073907443627414E-024
  0.54550000000000010          1.0627597632144964E-023
  0.54700000000000004          1.1550693686312956E-023
  0.54850000000000010          1.0926854424820591E-023
  0.55000000000000004          8.4223225789346492E-024
  0.55150000000000010          3.9025554297579399E-024
  0.55300000000000005         -2.4927860183252443E-024
  0.55450000000000010         -1.0296694759422625E-023
  0.55600000000000005         -1.8697482536975249E-023
  0.55750000000000011         -2.6569480556211142E-023
  0.55900000000000005         -3.2559981755245726E-023
  0.56050000000000011         -3.5234132738781092E-023
  0.56200000000000006         -3.3271265248123366E-023
  0.56350000000000011         -2.5696482255734378E-023
  0.56500000000000006         -1.2121707397540446E-023
  0.56650000000000011          7.0377974587027223E-024
  0.56800000000000006          3.0410711194903324E-023
  0.56950000000000001          5.5620746012350236E-023
  0.57100000000000006          7.9376290923030671E-023
  0.57250000000000001          9.7721290081411181E-023
  0.57400000000000007          1.0645224389085528E-022
  0.57550000000000001          1.0168161691715530E-022
  0.57700000000000007          8.0501595697619806E-023
  0.57850000000000001          4.1674397983625246E-023
  0.58000000000000007         -1.3746587644924365E-023
  0.58150000000000002         -8.1975657346525186E-023
  0.58300000000000007         -1.5634542572808791E-022
  0.58450000000000002         -2.2754552390424928E-022
  0.58600000000000008         -2.8431266393182527E-022
  0.58750000000000002         -3.1458405338823461E-022
  0.58900000000000008         -3.0706040612851281E-022
  0.59050000000000002         -2.5305136112992929E-022
  0.59200000000000008         -1.4840186875293581E-022
  0.59350000000000003          4.7616149988311695E-024
  0.59500000000000008          1.9676438059845126E-022
  0.59650000000000003          4.0989859899878497E-022
  0.59800000000000009          6.1898161307801009E-022
  0.59950000000000003          7.9312806453473596E-022
  0.60100000000000009          8.9877301609423092E-022
  0.60250000000000004          9.0381100651769631E-022
  0.60400000000000009          7.8252299288844972E-022
  0.60550000000000004          5.2077120778190721E-022
  0.60700000000000010          1.2078927004112006E-022
  0.60850000000000004         -3.9521133307035890E-022
  0.61000000000000010         -9.8340401875038042E-022
  0.61150000000000004         -1.5793608702311213E-021
  0.61300000000000010         -2.1021870133711016E-021
  0.61450000000000005         -2.4619097194954568E-021
  0.61600000000000010         -2.5698266376689631E-021