 -0.19999999999999998          0.0000000000000000     
 -0.19849999999999998          0.0000000000000000     
 -0.19699999999999998          0.0000000000000000     
 -0.19549999999999998          0.0000000000000000     
 -0.19399999999999998          0.0000000000000000     
 -0.19249999999999998          0.0000000000000000     
 -0.19099999999999998          0.0000000000000000     
 -0.18949999999999997          0.0000000000000000     
 -0.18799999999999997          0.0000000000000000     
 -0.18649999999999997          0.0000000000000000     
 -0.18500000000000000          0.0000000000000000     
 -0.18350000000000000          0.0000000000000000     
 -0.18200000000000000          0.0000000000000000     
 -0.18049999999999999          0.0000000000000000     
 -0.17899999999999999          0.0000000000000000     
 -0.17749999999999999          0.0000000000000000     
 -0.17599999999999999          0.0000000000000000     
 -0.17449999999999999          0.0000000000000000     
 -0.17299999999999999          0.0000000000000000     
 -0.17149999999999999          0.0000000000000000     
 -0.16999999999999998          0.0000000000000000     
 -0.16849999999999998          0.0000000000000000     
 -0.16699999999999998          0.0000000000000000     
 -0.16549999999999998          0.0000000000000000     
 -0.16399999999999998          0.0000000000000000     
 -0.16249999999999998          0.0000000000000000     
 -0.16099999999999998          0.0000000000000000     
 -0.15949999999999998          0.0000000000000000     
 -0.15799999999999997          0.0000000000000000     
 -0.15649999999999997          0.0000000000000000     
 -0.15499999999999997          0.0000000000000000     
 -0.15349999999999997          0.0000000000000000     
 -0.15199999999999997          0.0000000000000000     
 -0.15049999999999997          0.0000000000000000     
 -0.14899999999999997          0.0000000000000000     
 -0.14749999999999999          0.0000000000000000     
 -0.14599999999999999          0.0000000000000000     
 -0.14449999999999999          0.0000000000000000     
 -0.14299999999999999          0.0000000000000000     
 -0.14149999999999999          5.1720841951960982E-039
 -0.13999999999999999          1.2707584997148066E-038
 -0.13849999999999998         -7.5521266861010830E-039
 -0.13699999999999998         -7.7089632940869673E-038
 -0.13549999999999998         -1.6877914100770079E-037
 -0.13399999999999998         -1.4175205821277932E-037
 -0.13249999999999998          3.7486854243761764E-037
 -0.13099999999999998          1.7727873376945918E-036
 -0.12949999999999998          3.4375688577519324E-036
 -0.12799999999999997          2.2933538838475896E-036
 -0.12650000000000000         -7.3177322446313700E-036
 -0.12499999999999999         -2.8587847544168333E-035
 -0.12349999999999998         -4.9227715364776820E-035
 -0.12199999999999998         -2.6887153173451825E-035
 -0.12049999999999998          1.0351879203486945E-034
 -0.11899999999999998          3.6322652492634304E-034
 -0.11749999999999998          5.9120766076341737E-034
 -0.11599999999999998          3.1912994665096976E-034
 -0.11449999999999998         -1.1004447467181788E-033
 -0.11299999999999998         -3.8054511046975503E-033
 -0.11149999999999999         -6.1646627087508840E-033
 -0.10999999999999999         -3.8097587579586158E-033
 -0.10849999999999999          9.0146324237230094E-033
 -0.10699999999999998          3.3529582340068407E-032
 -0.10549999999999998          5.6338336473290270E-032
 -0.10399999999999998          4.2220015691403147E-032
 -0.10249999999999998         -5.5283046099550909E-032
 -0.10099999999999998         -2.5021077153016604E-031
  -9.9499999999999977E-002    -4.5167639679864785E-031
  -9.7999999999999976E-002    -4.1102697580450944E-031
  -9.6499999999999975E-002     2.1328380903903132E-031
  -9.4999999999999987E-002     1.5751502451352110E-030
  -9.3499999999999986E-002     3.1677732128738017E-030
  -9.1999999999999985E-002     3.4473074069747014E-030
  -9.0499999999999983E-002     1.3628544958861698E-031
  -8.8999999999999982E-002    -8.1949843693497777E-030
  -8.7499999999999981E-002    -1.9322561934585492E-029
  -8.5999999999999979E-002    -2.4841405702013150E-029
  -8.4499999999999978E-002    -1.1071116427357712E-029
  -8.2999999999999977E-002     3.3152238094124591E-029
  -8.1499999999999975E-002     1.0138892600369987E-028
  -7.9999999999999988E-002     1.5399455249006087E-028
  -7.8499999999999986E-002     1.1752408887442771E-028
  -7.6999999999999985E-002    -8.2256154609362798E-029
  -7.5499999999999984E-002    -4.4731718553636672E-028
  -7.3999999999999982E-002    -8.2025201041733598E-028
  -7.2499999999999981E-002    -8.5211279735901000E-028
  -7.0999999999999980E-002    -1.1757163043847293E-028
  -6.9499999999999978E-002     1.5700114704776392E-027
  -6.7999999999999977E-002     3.7226420881829902E-027
  -6.6499999999999976E-002     4.8952524531405429E-027
  -6.4999999999999974E-002     2.9748430838250079E-027
  -6.3499999999999973E-002    -3.6312951554038535E-027
  -6.1999999999999972E-002    -1.4054956995671289E-026
  -6.0499999999999970E-002    -2.3228996140351574E-026
  -5.8999999999999969E-002    -2.2058611951349724E-026
  -5.7499999999999968E-002    -1.1983551960161562E-027
  -5.5999999999999966E-002     4.1337838193785305E-026
  -5.4499999999999993E-002     9.1518880121350573E-026
  -5.2999999999999992E-002     1.1579415523482707E-025
  -5.1499999999999990E-002     7.0297280797328784E-026
  -4.9999999999999989E-002    -7.3324425066552251E-026
  -4.8499999999999988E-002    -2.9148222364887698E-025
  -4.6999999999999986E-002    -4.8127487539439494E-025
  -4.5499999999999985E-002    -4.7139330764792451E-025
  -4.3999999999999984E-002    -9.5159051547380564E-026
  -4.2499999999999982E-002     6.7867707727514666E-025
  -4.0999999999999981E-002     1.6094021038468247E-024
  -3.9499999999999980E-002     2.1401897349150821E-024
  -3.7999999999999978E-002     1.5529489619065834E-024
  -3.6499999999999977E-002    -6.3549452174996897E-025
  -3.4999999999999976E-002    -4.1380985463018634E-024
  -3.3499999999999974E-002    -7.5041821880664600E-024
  -3.1999999999999973E-002    -8.2571495914770951E-024
  -3.0499999999999972E-002    -3.8612638141493839E-024
  -2.8999999999999970E-002     6.5536096906963077E-024
  -2.7499999999999969E-002     2.0362614618844054E-023
  -2.5999999999999968E-002     3.0701709725491983E-023
  -2.4499999999999966E-002     2.8085140922297459E-023
  -2.2999999999999993E-002     4.9324843633009929E-024
  -2.1499999999999991E-002    -3.8040981796748823E-023
  -1.9999999999999990E-002    -8.6571106089452295E-023
  -1.8499999999999989E-002    -1.1296890712725846E-022
  -1.6999999999999987E-002    -8.5099903790873822E-023
  -1.5499999999999986E-002     1.5839264329680805E-023
  -1.3999999999999985E-002     1.7454807528462612E-022
  -1.2499999999999983E-002     3.2924855320980099E-022
  -1.0999999999999982E-002     3.8085756236907845E-022
  -9.4999999999999807E-003     2.3131353150000357E-022
  -7.9999999999999793E-003    -1.5501777465525362E-022
  -6.4999999999999780E-003    -6.9097322950025431E-022
  -4.9999999999999767E-003    -1.1450569437053416E-021
  -3.4999999999999754E-003    -1.1948749513340077E-021
  -1.9999999999999740E-003    -5.6694017168603394E-022
  -4.9999999999997269E-004     7.7146272639569005E-022
   1.0000000000000286E-003     2.4533370786392584E-021
   2.5000000000000300E-003     3.6988370543920526E-021
   4.0000000000000313E-003     3.5368956305583727E-021
   5.5000000000000326E-003     1.2611909693893696E-021
   7.0000000000000340E-003    -3.0169506239515799E-021
   8.5000000000000075E-003    -7.9855924930532536E-021
   1.0000000000000009E-002    -1.1228911901008363E-020
   1.1500000000000010E-002    -1.0000552041309801E-020
   1.3000000000000012E-002    -2.5877100116633560E-021
   1.4500000000000013E-002     1.0196922340749215E-020
   1.6000000000000014E-002     2.4162945939824946E-020
   1.7500000000000016E-002     3.2323155826080490E-020
   1.9000000000000017E-002     2.7298328594867059E-020
   2.0500000000000018E-002     5.1239379070466807E-021
   2.2000000000000020E-002    -3.0932212367302679E-020
   2.3500000000000021E-002    -6.8600065556821643E-020
   2.5000000000000022E-002    -8.8806763842606395E-020
   2.6500000000000024E-002    -7.2531332473998637E-020
   2.8000000000000025E-002    -1.0833204065890362E-020
   2.9500000000000026E-002     8.5783175153400623E-020
   3.1000000000000028E-002     1.8388182308523468E-019
   3.2500000000000029E-002     2.3394036175942008E-019
   3.4000000000000030E-002     1.8855663975196961E-019
   3.5500000000000032E-002     2.7609042468017662E-020
   3.7000000000000033E-002    -2.1951648746733579E-019
   3.8500000000000034E-002    -4.6722472617557016E-019
   4.0000000000000008E-002    -5.9251859354475504E-019
   4.1500000000000009E-002    -4.8053174211278317E-019
   4.3000000000000010E-002    -8.5035129784741569E-020
   4.4500000000000012E-002     5.2012388324235927E-019
   4.6000000000000013E-002     1.1278601621742555E-018
   4.7500000000000014E-002     1.4448363777665552E-018
   4.9000000000000016E-002     1.1994156229505920E-018
   5.0500000000000017E-002     2.8180044744758782E-019
   5.2000000000000018E-002    -1.1392431953837716E-018
   5.3500000000000020E-002    -2.5885263000518621E-018
   5.5000000000000021E-002    -3.3926608679403852E-018
   5.6500000000000022E-002    -2.9237881426472025E-018
   5.8000000000000024E-002    -9.1317429252402139E-019
   5.9500000000000025E-002     2.2882303171900460E-018
   6.1000000000000026E-002     5.6445273172185239E-018
   6.2500000000000028E-002     7.6660060262905238E-018
   6.4000000000000029E-002     6.9345261654455967E-018
   6.5500000000000030E-002     2.7828112713203386E-018
   6.7000000000000032E-002    -4.1329275808494531E-018
   6.8500000000000033E-002    -1.1667735003370822E-017
   7.0000000000000034E-002    -1.6645334683769710E-017
   7.1500000000000036E-002    -1.5940524268435515E-017
   7.3000000000000037E-002    -7.9044174741831949E-018
   7.4500000000000038E-002     6.3982441233516934E-018
   7.6000000000000040E-002     2.2758706448025261E-017
   7.7500000000000041E-002     3.4656220062956692E-017
   7.9000000000000042E-002     3.5387823057114517E-017
   8.0500000000000044E-002     2.0963327079798834E-017
   8.2000000000000045E-002    -7.2738005332964471E-018
   8.3500000000000046E-002    -4.1539816763245436E-017
   8.5000000000000048E-002    -6.8972388916612160E-017
   8.6500000000000049E-002    -7.5622032946907071E-017
   8.8000000000000050E-002    -5.2135269510394277E-017
   8.9499999999999996E-002     8.2365546433456835E-019
   9.0999999999999998E-002     6.9828087933322101E-017
   9.2499999999999999E-002     1.3058816174983006E-016
   9.4000000000000000E-002     1.5503589476534287E-016
   9.5500000000000002E-002     1.2207605842629164E-016
   9.7000000000000003E-002     2.8491832849914229E-017
   9.8500000000000004E-002    -1.0455637358027096E-016
  0.10000000000000001         -2.3340708614784844E-016
  0.10150000000000001         -3.0368730731713997E-016
  0.10300000000000001         -2.6982282261507587E-016
  0.10450000000000001         -1.1626600634642291E-016
  0.10600000000000001          1.2787610035432568E-016
  0.10750000000000001          3.8859969853068612E-016
  0.10900000000000001          5.6504651406196492E-016
  0.11050000000000001          5.6324013264099669E-016
  0.11200000000000002          3.3585498717223166E-016
  0.11350000000000002         -8.6548725962622339E-017
  0.11500000000000002         -5.8758868373419684E-016
  0.11650000000000002         -9.8946157465100894E-016
  0.11800000000000002         -1.1079534559490931E-015
  0.11950000000000002         -8.2367233319801431E-016
  0.12100000000000002         -1.4519108141198016E-016
  0.12250000000000003          7.6278745210890483E-016
  0.12400000000000003          1.6056553779140082E-015
  0.12550000000000003          2.0420570169974081E-015
  0.12700000000000003          1.8048195771544636E-015
  0.12850000000000003          8.2141019996203630E-016
  0.13000000000000003         -7.1275753474014510E-016
  0.13150000000000003         -2.3469993506605260E-015
  0.13300000000000003         -3.4883087401670976E-015
  0.13450000000000004         -3.5935557774610629E-015
  0.13600000000000004         -2.3851744103611051E-015
  0.13750000000000004         -1.3853931685178965E-017
  0.13900000000000004          2.9042226391299527E-015
  0.14050000000000004          5.4158024401880318E-015
  0.14200000000000004          6.5110020725048258E-015
  0.14350000000000004          5.4827062970181983E-015
  0.14500000000000005          2.2481143255570582E-015
  0.14650000000000005         -2.4932128148119423E-015
  0.14800000000000005         -7.3545191247698494E-015
  0.14950000000000005         -1.0624375724401955E-014
  0.15100000000000005         -1.0816068104254557E-014
  0.15250000000000000         -7.2409773792847304E-015
  0.15400000000000000         -4.0511577777684535E-016
  0.15550000000000000          7.9443349773833840E-015
  0.15700000000000000          1.5201077792685653E-014
  0.15850000000000000          1.8650630676259381E-014
  0.16000000000000000          1.6390594409799963E-014
  0.16150000000000000          8.1287346964250115E-015
  0.16300000000000001         -4.4370065135804903E-015
  0.16450000000000001         -1.7854562081129589E-014
  0.16600000000000001         -2.7786864683559975E-014
  0.16750000000000001         -3.0317965212407726E-014
  0.16900000000000001         -2.3323554737382758E-014
  0.17050000000000001         -7.4585754972786585E-015
  0.17200000000000001          1.3620108585227787E-014
  0.17350000000000002          3.3977140869176394E-014
  0.17500000000000002          4.6963751353157625E-014
  0.17650000000000002          4.7234209112562762E-014
  0.17800000000000002          3.2630392863498570E-014
  0.17950000000000002          5.3233344626605238E-015
  0.18100000000000002         -2.8237492663655671E-014
  0.18250000000000002         -5.8697871432567450E-014
  0.18400000000000002         -7.6236537007325650E-014
  0.18550000000000003         -7.3460355528427668E-014
  0.18700000000000003         -4.7952214619599835E-014
  0.18850000000000003         -3.6870289910708326E-015
  0.19000000000000003          4.9222495286580182E-014
  0.19150000000000003          9.6572226499337898E-014
  0.19300000000000003          1.2354390634045181E-013
  0.19450000000000003          1.1882819953970780E-013
  0.19600000000000004          7.8353645584777927E-014
  0.19750000000000004          7.5692619677569512E-015
  0.19900000000000004         -7.8525148310443004E-014
  0.20050000000000004         -1.5793840204381841E-013
  0.20200000000000004         -2.0656974847308462E-013
  0.20350000000000004         -2.0452031335490156E-013
  0.20500000000000004         -1.4242815349883984E-013
  0.20650000000000004         -2.6150815548652109E-014
  0.20800000000000005          1.2179347525339850E-013
  0.20950000000000005          2.6510788596177835E-013
  0.21100000000000005          3.6109170499377074E-013
  0.21250000000000005          3.7148235104490934E-013
  0.21400000000000005          2.7450959036068159E-013
  0.21550000000000005          7.4981225968105501E-014
  0.21700000000000000         -1.9102848137877686E-013
  0.21850000000000000         -4.5960862554155300E-013
  0.22000000000000000         -6.5154325581956551E-013
  0.22150000000000000         -6.9241091273333682E-013
  0.22300000000000000         -5.3599886325709249E-013
  0.22450000000000001         -1.8467972745892505E-013
  0.22600000000000001          3.0022760926146437E-013
  0.22750000000000001          8.0365646016602206E-013
  0.22900000000000001          1.1795353526703775E-012
  0.23050000000000001          1.2880258630665664E-012
  0.23200000000000001          1.0389827688196220E-012
  0.23350000000000001          4.2961053267516225E-013
  0.23500000000000001         -4.3645414811630274E-013
  0.23650000000000002         -1.3582627283521659E-012
  0.23800000000000002         -2.0777082867310563E-012
  0.23950000000000002         -2.3445454042798522E-012
  0.24100000000000002         -1.9913723788288534E-012
  0.24250000000000002         -9.9797812797977264E-013
  0.24400000000000002          4.7587319175133262E-013
  0.24550000000000002          2.1041908983538034E-012
  0.24700000000000003          3.4586264654451493E-012
  0.24850000000000003          4.1119347166992657E-012
  0.25000000000000000          3.7575324721747225E-012
  0.25150000000000006          2.3138172277375376E-012
  0.25300000000000000         -1.7919672912773507E-014
  0.25450000000000006         -2.7641939116968432E-012
  0.25600000000000001         -5.2647467027894823E-012
  0.25750000000000006         -6.8194157487796848E-012
  0.25900000000000001         -6.8655354374721243E-012
  0.26050000000000006         -5.1437227986242062E-012
  0.26200000000000001         -1.8084927052590629E-012
  0.26350000000000007          2.5506560806639933E-012
  0.26500000000000001          6.9938372567561851E-012
  0.26650000000000007          1.0413731122176122E-011
  0.26800000000000002          1.1785720430983094E-011
  0.26950000000000007          1.0434738447986112E-011
  0.27100000000000002          6.2578919315448178E-012
  0.27250000000000008         -1.5688298136011149E-013
  0.27400000000000002         -7.5617361184780692E-012
  0.27550000000000008         -1.4248465897211379E-011
  0.27700000000000002         -1.8399834922049792E-011
  0.27850000000000008         -1.8535560606470902E-011
  0.28000000000000003         -1.3959712106077178E-011
  0.28149999999999997         -5.0938351017214396E-012
  0.28300000000000003          6.4180760534967071E-012
  0.28449999999999998          1.7913811975654248E-011
  0.28600000000000003          2.6242532010414481E-011
  0.28749999999999998          2.8548158821414418E-011
  0.28900000000000003          2.3143405627067235E-011
  0.29049999999999998          1.0242993030124339E-011
  0.29200000000000004         -7.6926996013853424E-012
  0.29349999999999998         -2.6198103949153481E-011
  0.29500000000000004         -3.9693905404234938E-011
  0.29649999999999999         -4.2915206254874436E-011
  0.29800000000000004         -3.2572107803442266E-011
  0.29949999999999999         -8.7967071046551014E-012
  0.30100000000000005          2.4105905021306120E-011
  0.30250000000000010          5.7981554571883694E-011
  0.30400000000000005          8.2362688108904106E-011
  0.30550000000000010          8.7019576070764979E-011
  0.30700000000000005          6.4991534563052195E-011
  0.30850000000000011          1.5320720292578856E-011
  0.31000000000000005         -5.5343300891622349E-011
  0.31150000000000011         -1.3291954093160814E-010
  0.31300000000000006         -1.9810690086689091E-010
  0.31450000000000000         -2.3036083997384609E-010
  0.31600000000000006         -2.1285110095556978E-010
  0.31750000000000000         -1.3726117491047193E-010
  0.31900000000000006         -7.2131699943483673E-012
  0.32050000000000001          1.6065491492630825E-010
  0.32200000000000006          3.3841749827628613E-010
  0.32350000000000001          4.9119853272468598E-010
  0.32500000000000007          5.8330490179679651E-010
  0.32650000000000001          5.8493404176480346E-010
  0.32800000000000007          4.7813749976521905E-010
  0.32950000000000002          2.6094753990897417E-010
  0.33100000000000007         -5.0969565336534613E-011
  0.33250000000000002         -4.2523990718199649E-010
  0.33400000000000007         -8.1594879548328913E-010
  0.33550000000000002         -1.1684690421305439E-009
  0.33700000000000008         -1.4253484825958664E-009
  0.33850000000000002         -1.5327757429563139E-009
  0.34000000000000008         -1.4472771961067586E-009
  0.34150000000000003         -1.1423077469387386E-009
  0.34300000000000008         -6.1423235437991564E-010
  0.34450000000000003          1.1309460873189917E-010
  0.34600000000000009          9.8620562864432855E-010
  0.34750000000000003          1.9234277304933047E-009
  0.34900000000000009          2.8205314987340816E-009
  0.35050000000000003          3.5605476391845512E-009
  0.35200000000000009          4.0266488829956788E-009
  0.35350000000000004          4.1160174177063180E-009
  0.35500000000000009          3.7521012048220679E-009
  0.35650000000000004          2.8928958548023175E-009
  0.35800000000000010          1.5339580653519127E-009
  0.35950000000000004         -2.9342891642003390E-010
  0.36100000000000010         -2.5266678244080237E-009
  0.36250000000000004         -5.0752050821762893E-009
  0.36400000000000010         -7.8189168211885047E-009
  0.36550000000000005         -1.0598656625604162E-008
  0.36700000000000010         -1.3198394773557213E-008
  0.36850000000000005         -1.5321277939511297E-008
  0.37000000000000011         -1.6564553130551669E-008
  0.37150000000000005         -1.6399753001425797E-008
  0.37300000000000011         -1.4164015318754693E-008
  0.37450000000000006         -9.0660597471148089E-009
  0.37600000000000011         -2.0637168246720847E-010
  0.37750000000000006          1.3393114366692553E-008
  0.37900000000000000          3.2758070946323854E-008
  0.38050000000000006          5.8939465232586812E-008
  0.38200000000000001          9.3008935726231939E-008
  0.38350000000000006          1.3607798837406565E-007
  0.38500000000000001          1.8934284126322812E-007
  0.38650000000000007          2.5415261689332128E-007
  0.38800000000000001          3.3209533206751744E-007
  0.38950000000000007          4.2509523001057073E-007
  0.39100000000000001          5.3551637400594405E-007
  0.39250000000000007          6.6626938136459324E-007
  0.39400000000000002          8.2092115482093049E-007
  0.39550000000000007          1.0038095900841530E-006
  0.39700000000000002          1.2201652448650268E-006
  0.39850000000000008          1.4762403857911699E-006
  0.40000000000000002          1.7794464025348761E-006
  0.40150000000000008          2.1384966468012634E-006
  0.40300000000000002          2.5635540779605431E-006
  0.40450000000000008          3.0663863844690285E-006
  0.40600000000000003          3.6605353594295537E-006
  0.40750000000000008          4.3615081498507196E-006
  0.40900000000000003          5.1870060704057117E-006
  0.41050000000000009          6.1572034622673068E-006
  0.41200000000000003          7.2950847087659988E-006
  0.41350000000000009          8.6268395735637915E-006
  0.41500000000000004          1.0182311039349037E-005
  0.41650000000000009          1.1995480976923794E-005
  0.41800000000000004          1.4104982625503124E-005
  0.41950000000000010          1.6554621147197287E-005
  0.42100000000000004          1.9393903077643122E-005
  0.42250000000000010          2.2678580320045113E-005
  0.42400000000000004          2.6471224834028651E-005
  0.42550000000000010          3.0841851980461602E-005
  0.42700000000000005          3.5868603359504370E-005
  0.42850000000000010          4.1638523050002992E-005
  0.43000000000000005          4.8248364248280683E-005
  0.43150000000000011          5.5805492894022945E-005
  0.43300000000000005          6.4428773003288184E-005
  0.43450000000000011          7.4249479917111558E-005
  0.43600000000000005          8.5412142554127250E-005
  0.43750000000000011          9.8075369243609550E-005
  0.43900000000000006          1.1241260085171016E-004
  0.44050000000000000          1.2861283766115017E-004
  0.44200000000000006          1.4688133898985113E-004
  0.44350000000000001          1.6744027222445553E-004
  0.44500000000000006          1.9052936963471410E-004
  0.44650000000000001          2.1640648090948524E-004
  0.44800000000000006          2.4534800429307305E-004
  0.44950000000000001          2.7764921886952248E-004
  0.45100000000000007          3.1362434036194976E-004
  0.45250000000000001          3.5360646490120126E-004
  0.45400000000000007          3.9794728135136045E-004
  0.45550000000000002          4.4701635524551882E-004
  0.45700000000000007          5.0120017312346916E-004
  0.45850000000000002          5.6090102808766440E-004
  0.46000000000000008          6.2653568503988940E-004
  0.46150000000000002          6.9853341345407619E-004
  0.46300000000000008          7.7733371734099385E-004
  0.46450000000000002          8.6338375334810570E-004
  0.46600000000000008          9.5713504566768927E-004
  0.46750000000000003          1.0590396184820498E-003
  0.46900000000000008          1.1695462225637609E-003
  0.47050000000000003          1.2890950675791173E-003
  0.47200000000000009          1.4181131468178545E-003
  0.47350000000000003          1.5570080166290808E-003
  0.47500000000000009          1.7061621916937665E-003
  0.47650000000000003          1.8659265946765510E-003
  0.47800000000000009          2.0366138755541748E-003
  0.47950000000000004          2.2184912125374676E-003
  0.48100000000000009          2.4117724999476575E-003
  0.48250000000000004          2.6166095217620622E-003
  0.48400000000000010          2.8330853114997721E-003
  0.48550000000000004          3.0612043230590254E-003
  0.48700000000000010          3.3008837441029773E-003
  0.48850000000000005          3.5519457362133636E-003
  0.49000000000000010          3.8141093397943823E-003
  0.49150000000000005          4.0869812744388683E-003
  0.49300000000000010          4.3700496264240003E-003
  0.49450000000000005          4.6626772382410090E-003
  0.49600000000000011          4.9640934036436976E-003
  0.49750000000000005          5.2733912871559159E-003
  0.49900000000000011          5.5895222001468379E-003
  0.50050000000000006          5.9112913409906272E-003
  0.50200000000000011          6.2373564706182417E-003
  0.50350000000000006          6.5662253637881335E-003
  0.50500000000000000          6.8962589429948686E-003
  0.50650000000000006          7.2256713304972020E-003
  0.50800000000000001          7.5525375428493087E-003
  0.50950000000000006          7.8747953865504240E-003
  0.51100000000000001          8.1902592716464502E-003
  0.51250000000000007          8.4966256079983711E-003
  0.51400000000000001          8.7914862780420801E-003
  0.51550000000000007          9.0723433362666153E-003
  0.51700000000000002          9.3366218501124282E-003
  0.51850000000000007          9.5816938212300654E-003
  0.52000000000000002          9.8048935797085332E-003
  0.52150000000000007          1.0003542472062525E-002
  0.52300000000000002          1.0174968350114777E-002
  0.52450000000000008          1.0316534173899723E-002
  0.52600000000000002          1.0425660529738388E-002
  0.52750000000000008          1.0499857402138595E-002
  0.52900000000000003          1.0536748226854901E-002
  0.53050000000000008          1.0534097670445330E-002
  0.53200000000000003          1.0489840626200002E-002
  0.53350000000000009          1.0402107794592920E-002
  0.53500000000000003          1.0269255240487239E-002
  0.53650000000000009          1.0089886916584564E-002
  0.53800000000000003          9.8628826811026360E-003
  0.53950000000000009          9.5874199681465350E-003
  0.54100000000000004          9.2629936554413234E-003
  0.54250000000000009          8.8894359676661150E-003
  0.54400000000000004          8.4669299787346747E-003
  0.54550000000000010          7.9960253857211117E-003
  0.54700000000000004          7.4776451283673079E-003
  0.54850000000000010          6.9130896869717406E-003
  0.55000000000000004          6.3040397028983203E-003
  0.55150000000000010          5.6525517846213041E-003
  0.55300000000000005          4.9610530990667062E-003
  0.55450000000000010          4.2323326122362948E-003
  0.55600000000000005          3.4695248392240946E-003
  0.55750000000000011          2.6760920070992150E-003
  0.55900000000000005          1.8558007490877965E-003
  0.56050000000000011          1.0126962291637370E-003
  0.56200000000000006          1.5107088120457079E-004
  0.56350000000000011         -7.2456711096474669E-004
  0.56500000000000006         -1.6095317747521296E-003
  0.56650000000000011         -2.4989961731243897E-003
  0.56800000000000006         -3.3880350544818819E-003
  0.56950000000000001         -4.2716647503989978E-003
  0.57100000000000006         -5.1448882045972578E-003
  0.57250000000000001         -6.0027371894844717E-003
  0.57400000000000007         -6.8403163309511388E-003
  0.57550000000000001         -7.6528465893675700E-003
  0.57700000000000007         -8.4357095831887920E-003
  0.57850000000000001         -9.1844882153815782E-003
  0.58000000000000007         -9.8950072518927158E-003
  0.58150000000000002         -1.0563364173642158E-002
  0.58300000000000007         -1.1185971140915208E-002
  0.58450000000000002         -1.1759581046633943E-002
  0.58600000000000008         -1.2281316091412319E-002
  0.58750000000000002         -1.2748689225199126E-002
  0.58900000000000008         -1.3159623614546869E-002
  0.59050000000000002         -1.3512468913722896E-002
  0.59200000000000008         -1.3806006121755719E-002
  0.59350000000000003         -1.4039455916616553E-002
  0.59500000000000008         -1.4212479369315502E-002
  0.59650000000000003         -1.4325173052370598E-002
  0.59800000000000009         -1.4378061657130195E-002
  0.59950000000000003         -1.4372085928792834E-002
  0.60100000000000009         -1.4308585406952623E-002
  0.60250000000000004         -1.4189279618299896E-002
  0.60400000000000009         -1.4016240136283845E-002
  0.60550000000000004         -1.3791867822508755E-002
  0.60700000000000010         -1.3518858710452358E-002
  0.60850000000000004         -1.3200175203170655E-002
  0.61000000000000010         -1.2839013882519443E-002
  0.61150000000000004         -1.2438767155306785E-002
  0.61300000000000010         -1.2002992424275077E-002
  0.61450000000000005         -1.1535371230985830E-002
  0.61600000000000010         -1.1039673924301760E-002