 -0.19999999999999998          0.0000000000000000     
 -0.19849999999999998          0.0000000000000000     
 -0.19699999999999998          0.0000000000000000     
 -0.19549999999999998          0.0000000000000000     
 -0.19399999999999998          0.0000000000000000     
 -0.19249999999999998          0.0000000000000000     
 -0.19099999999999998          0.0000000000000000     
 -0.18949999999999997          0.0000000000000000     
 -0.18799999999999997          0.0000000000000000     
 -0.18649999999999997          0.0000000000000000     
 -0.18500000000000000          0.0000000000000000     
 -0.18350000000000000          0.0000000000000000     
 -0.18200000000000000          0.0000000000000000     
 -0.18049999999999999          0.0000000000000000     
 -0.17899999999999999          0.0000000000000000     
 -0.17749999999999999          0.0000000000000000     
 -0.17599999999999999          0.0000000000000000     
 -0.17449999999999999          0.0000000000000000     
 -0.17299999999999999          0.0000000000000000     
 -0.17149999999999999          0.0000000000000000     
 -0.16999999999999998          0.0000000000000000     
 -0.16849999999999998          0.0000000000000000     
 -0.16699999999999998          0.0000000000000000     
 -0.16549999999999998          0.0000000000000000     
 -0.16399999999999998          0.0000000000000000     
 -0.16249999999999998          0.0000000000000000     
 -0.16099999999999998          0.0000000000000000     
 -0.15949999999999998          0.0000000000000000     
 -0.15799999999999997          0.0000000000000000     
 -0.15649999999999997          0.0000000000000000     
 -0.15499999999999997          0.0000000000000000     
 -0.15349999999999997          0.0000000000000000     
 -0.15199999999999997          0.0000000000000000     
 -0.15049999999999997          0.0000000000000000     
 -0.14899999999999997          0.0000000000000000     
 -0.14749999999999999          0.0000000000000000     
 -0.14599999999999999          0.0000000000000000     
 -0.14449999999999999         -2.9842926468890436E-040
 -0.14299999999999999          0.0000000000000000     
 -0.14149999999999999          4.3407127888243154E-040
 -0.13999999999999999          2.3976851060330415E-039
 -0.13849999999999998         -1.5114276540878413E-038
 -0.13699999999999998         -1.6643930724087149E-039
 -0.13549999999999998          3.2038140545443155E-038
 -0.13399999999999998          1.3905953413191584E-037
 -0.13249999999999998          2.8371478712256558E-037
 -0.13099999999999998          2.9228346948609080E-037
 -0.12949999999999998         -2.1607109907779722E-037
 -0.12799999999999997         -1.6658968032105469E-036
 -0.12650000000000000         -3.8952374536401594E-036
 -0.12499999999999999         -5.0579824700311293E-036
 -0.12349999999999998         -8.2501779261220055E-037
 -0.12199999999999998          1.4211584059006323E-035
 -0.12049999999999998          4.0554730102377793E-035
 -0.11899999999999998          6.3060639219799109E-035
 -0.11749999999999998          4.1889343049573210E-035
 -0.11599999999999998         -7.8834040634655195E-035
 -0.11449999999999998         -3.2437141862044220E-034
 -0.11299999999999998         -6.0049021966452853E-034
 -0.11149999999999999         -6.0684177500236511E-034
 -0.10999999999999999          1.3210754244646681E-034
 -0.10849999999999999          1.9662666955970660E-033
 -0.10699999999999998          4.4922008635004804E-033
 -0.10549999999999998          5.8509818206706183E-033
 -0.10399999999999998          2.6690992458174587E-033
 -0.10249999999999998         -8.3463870060920008E-033
 -0.10099999999999998         -2.6604461981360708E-032
  -9.9499999999999977E-002    -4.2775940618215519E-032
  -9.7999999999999976E-002    -3.6768821182766405E-032
  -9.6499999999999975E-002     1.5526079573016787E-032
  -9.4999999999999987E-002     1.2244726420666767E-031
  -9.3499999999999986E-002     2.4772327993448758E-031
  -9.1999999999999985E-002     2.9081537426433058E-031
  -9.0499999999999983E-002     1.0736281986512202E-031
  -8.8999999999999982E-002    -4.0287517840029990E-031
  -8.7499999999999981E-002    -1.1479001427817958E-030
  -8.5999999999999979E-002    -1.7090737000102310E-030
  -8.4499999999999978E-002    -1.3630639388969743E-030
  -8.2999999999999977E-002     5.8976901827574280E-031
  -8.1499999999999975E-002     4.1656823963175099E-030
  -7.9999999999999988E-002     7.9596348823530437E-030
  -7.8499999999999986E-002     8.9115368417999954E-030
  -7.6999999999999985E-002     3.2915315985966693E-030
  -7.5499999999999984E-002    -1.0755489123123176E-029
  -7.3999999999999982E-002    -2.9799348660724507E-029
  -7.2499999999999981E-002    -4.2944566811510037E-029
  -7.0999999999999980E-002    -3.3874114830176654E-029
  -6.9499999999999978E-002     1.0726599791185898E-029
  -6.7999999999999977E-002     8.7608020586537942E-029
  -6.6499999999999976E-002     1.6484171658777639E-028
  -6.4999999999999974E-002     1.8224746769902049E-028
  -6.3499999999999973E-002     7.4719379957003631E-029
  -6.1999999999999972E-002    -1.8092842464394724E-028
  -6.0499999999999970E-002    -5.1318613624521282E-028
  -5.8999999999999969E-002    -7.3364368966742435E-028
  -5.7499999999999968E-002    -5.8701017120642207E-028
  -5.5999999999999966E-002     1.0835573332818185E-028
  -5.4499999999999993E-002     1.2666336301418438E-027
  -5.2999999999999992E-002     2.3936632759548004E-027
  -5.1499999999999990E-002     2.6447377869228774E-027
  -4.9999999999999989E-002     1.1851426630006110E-027
  -4.8499999999999988E-002    -2.1925522073604919E-027
  -4.6999999999999986E-002    -6.4637064545066552E-027
  -4.5499999999999985E-002    -9.2303230364447211E-027
  -4.3999999999999984E-002    -7.4713172194854563E-027
  -4.2499999999999982E-002     7.3867845987393484E-028
  -4.0999999999999981E-002     1.4110417178532353E-026
  -3.9499999999999980E-002     2.6859091365686463E-026
  -3.7999999999999978E-002     2.9728015034137532E-026
  -3.6499999999999977E-002     1.4120843747942958E-026
  -3.4999999999999976E-002    -2.1512386098885982E-026
  -3.3499999999999974E-002    -6.6011516378850919E-026
  -3.1999999999999973E-002    -9.4933184689608640E-026
  -3.0499999999999972E-002    -7.8681379801837068E-026
  -2.8999999999999970E-002     7.4809071485217970E-028
  -2.7499999999999969E-002     1.3040326161020160E-025
  -2.5999999999999968E-002     2.5580091976059478E-025
  -2.4499999999999966E-002     2.9152817378267110E-025
  -2.2999999999999993E-002     1.5869328109234923E-025
  -2.1499999999999991E-002    -1.5950598310979346E-025
  -1.9999999999999990E-002    -5.6980159602505613E-025
  -1.8499999999999989E-002    -8.6403011744791216E-025
  -1.6999999999999987E-002    -7.8536526545398012E-025
  -1.5499999999999986E-002    -1.6357070704273527E-025
  -1.3999999999999985E-002     9.2793054569625147E-025
  -1.2499999999999983E-002     2.0801707488808361E-024
  -1.0999999999999982E-002     2.6152905213702739E-024
  -9.4999999999999807E-003     1.8563121006754073E-024
  -7.9999999999999793E-003    -4.5757945171164110E-025
  -6.4999999999999780E-003    -3.7876376180516002E-024
  -4.9999999999999767E-003    -6.6939390435918095E-024
  -3.4999999999999754E-003    -7.2225999911189458E-024
  -1.9999999999999740E-003    -3.7992657938702758E-024
  -4.9999999999997269E-004     3.6475951372557147E-024
   1.0000000000000286E-003     1.2882900536389315E-023
   2.5000000000000300E-003     1.9509093772315328E-023
   4.0000000000000313E-003     1.8433946146652660E-023
   5.5000000000000326E-003     6.4465262420036130E-024
   7.0000000000000340E-003    -1.5054928277595088E-023
   8.5000000000000075E-003    -3.8668523656234544E-023
   1.0000000000000009E-002    -5.2330757930095926E-023
   1.1500000000000010E-002    -4.3880713593510782E-023
   1.3000000000000012E-002    -7.7356333734215181E-024
   1.4500000000000013E-002     4.9099908140077544E-023
   1.6000000000000014E-002     1.0529936328869816E-022
   1.7500000000000016E-002     1.3054195244497055E-022
   1.9000000000000017E-002     9.7987426879517470E-023
   2.0500000000000018E-002     1.1843102516528380E-025
   2.2000000000000020E-002    -1.3920559751940360E-022
   2.3500000000000021E-002    -2.6448736163818433E-022
   2.5000000000000022E-002    -3.0499316038422741E-022
   2.6500000000000024E-002    -2.0570907306547639E-022
   2.8000000000000025E-002     3.7807143449724983E-023
   2.9500000000000026E-002     3.5748277600814004E-022
   3.1000000000000028E-002     6.2007667993747602E-022
   3.2500000000000029E-002     6.7098732280189254E-022
   3.4000000000000030E-002     4.0534584494023812E-022
   3.5500000000000032E-002    -1.6028308582479788E-022
   3.7000000000000033E-002    -8.5218899566573252E-022
   3.8500000000000034E-002    -1.3709007234585714E-021
   4.0000000000000008E-002    -1.3973473446661255E-021
   4.1500000000000009E-002    -7.4599882003258417E-022
   4.3000000000000010E-002     4.9622701201177684E-022
   4.4500000000000012E-002     1.9200782979987087E-021
   4.6000000000000013E-002     2.8881166852934777E-021
   4.7500000000000014E-002     2.7738078025651410E-021
   4.9000000000000016E-002     1.2742186684042541E-021
   5.0500000000000017E-002    -1.3349206409484203E-021
   5.2000000000000018E-002    -4.1465982115670181E-021
   5.3500000000000020E-002    -5.8629913467974687E-021
   5.5000000000000021E-002    -5.3035766048188915E-021
   5.6500000000000022E-002    -2.0158762802565340E-021
   5.8000000000000024E-002     3.2774797712016396E-021
   5.9500000000000025E-002     8.6632097708436100E-021
   6.1000000000000026E-002     1.1592332464726485E-020
   6.2500000000000028E-002     9.9095806752359386E-021
   6.4000000000000029E-002     3.0033786298613162E-021
   6.5500000000000030E-002    -7.4397846245677928E-021
   6.7000000000000032E-002    -1.7553403315285985E-020
   6.8500000000000033E-002    -2.2478734478803851E-020
   7.0000000000000034E-002    -1.8366276536784823E-020
   7.1500000000000036E-002    -4.4760376935586923E-021
   7.3000000000000037E-002     1.5585605281403628E-020
   7.4500000000000038E-002     3.4314814186807612E-020
   7.6000000000000040E-002     4.2701421517118619E-020
   7.7500000000000041E-002     3.3979171497283159E-020
   7.9000000000000042E-002     7.3604160414160557E-021
   8.0500000000000044E-002    -2.9979036277854442E-020
   8.2000000000000045E-002    -6.4046842428010879E-020
   8.3500000000000046E-002    -7.8608809431483364E-020
   8.5000000000000048E-002    -6.1984659202607439E-020
   8.6500000000000049E-002    -1.3526878579867270E-020
   8.8000000000000050E-002     5.3257632040835992E-020
   8.9499999999999996E-002     1.1321826200788147E-019
   9.0999999999999998E-002     1.3798124180728147E-019
   9.2499999999999999E-002     1.0793669879312676E-019
   9.4000000000000000E-002     2.3246253391752868E-020
   9.5500000000000002E-002    -9.1357666686774093E-020
   9.7000000000000003E-002    -1.9169021694992863E-019
   9.8500000000000004E-002    -2.2929468548576097E-019
  0.10000000000000001         -1.7232648650323164E-019
  0.10150000000000001         -2.4137281904510180E-020
  0.10300000000000001          1.6939500449350268E-019
  0.10450000000000001          3.2993168823300885E-019
  0.10600000000000001          3.7403905300921868E-019
  0.10750000000000001          2.5003156428338640E-019
  0.10900000000000001         -2.9720009835102714E-020
  0.11050000000000001         -3.7660970214438127E-019
  0.11200000000000002         -6.4452117966093307E-019
  0.11350000000000002         -6.7955154946130953E-019
  0.11500000000000002         -3.8743469643182586E-019
  0.11650000000000002          2.0572899750823809E-019
  0.11800000000000002          9.2743364354335976E-019
  0.11950000000000002          1.4882637438027507E-018
  0.12100000000000002          1.5702443746919306E-018
  0.12250000000000003          9.5410889495967956E-019
  0.12400000000000003         -3.5549271414792453E-019
  0.12550000000000003         -2.0579011751403528E-018
  0.12700000000000003         -3.5812227648374582E-018
  0.12850000000000003         -4.2219308352409297E-018
  0.13000000000000003         -3.3784676385797351E-018
  0.13150000000000003         -8.1761310407504476E-019
  0.13300000000000003          3.1154538107000802E-018
  0.13450000000000004          7.4353265244169824E-018
  0.13600000000000004          1.0666309923607950E-017
  0.13750000000000004          1.1211111616133111E-017
  0.13900000000000004          7.8734009913895751E-018
  0.14050000000000004          4.0200009541736129E-019
  0.14200000000000004         -1.0116277702950304E-017
  0.14350000000000004         -2.1184654125217973E-017
  0.14500000000000005         -2.9258867510722802E-017
  0.14650000000000005         -3.0554777333650535E-017
  0.14800000000000005         -2.2180737835922673E-017
  0.14950000000000005         -3.3455165805932657E-018
  0.15100000000000005          2.3698654296654197E-017
  0.15250000000000000          5.3338277925717573E-017
  0.15400000000000000          7.7191245284786430E-017
  0.15550000000000000          8.5719950993706142E-017
  0.15700000000000000          7.0717110681895332E-017
  0.15850000000000000          2.8222415036537032E-017
  0.16000000000000000         -3.8836259666684070E-017
  0.16150000000000000         -1.1913233611121984E-016
  0.16300000000000001         -1.9337457118414352E-016
  0.16450000000000001         -2.3721239053299478E-016
  0.16600000000000001         -2.2660603437753024E-016
  0.16750000000000001         -1.4494552528491776E-016
  0.16900000000000001          9.5410518819446987E-018
  0.17050000000000001          2.1812271492839824E-016
  0.17200000000000001          4.3985572225967155E-016
  0.17350000000000002          6.1564328674632119E-016
  0.17500000000000002          6.7883331659590922E-016
  0.17650000000000002          5.7151460767673014E-016
  0.17800000000000002          2.6378902256481762E-016
  0.17950000000000002         -2.2841163036874810E-016
  0.18100000000000002         -8.3239484642803547E-016
  0.18250000000000002         -1.4198860546205873E-015
  0.18400000000000002         -1.8238256615205526E-015
  0.18550000000000003         -1.8711044845080868E-015
  0.18700000000000003         -1.4273416406002085E-015
  0.18850000000000003         -4.4540246771507982E-016
  0.19000000000000003          9.9408859386293175E-016
  0.19150000000000003          2.6633331312334275E-015
  0.19300000000000003          4.2004289865180158E-015
  0.19450000000000003          5.1611782906897811E-015
  0.19600000000000004          5.1077607022689082E-015
  0.19750000000000004          3.7224917978842072E-015
  0.19900000000000004          9.2525820851173255E-016
  0.20050000000000004         -3.0336613840409063E-015
  0.20200000000000004         -7.5354680345988150E-015
  0.20350000000000004         -1.1634372960763837E-014
  0.20500000000000004         -1.4191232357931859E-014
  0.20650000000000004         -1.4092900306181531E-014
  0.20800000000000005         -1.0528682412631813E-014
  0.20950000000000005         -3.2739602677078463E-015
  0.21100000000000005          7.0841309888320907E-015
  0.21250000000000005          1.9047879026200344E-014
  0.21400000000000005          3.0294834188476355E-014
  0.21550000000000005          3.7978871051807627E-014
  0.21700000000000000          3.9235612071380830E-014
  0.21850000000000000          3.1832212957958612E-014
  0.22000000000000000          1.4853060441791174E-014
  0.22150000000000000         -1.0722871929905573E-014
  0.22300000000000000         -4.1710207152126739E-014
  0.22450000000000001         -7.2809321495797953E-014
  0.22600000000000001         -9.7186996205965472E-014
  0.22750000000000001         -1.0754517822246113E-013
  0.22900000000000001         -9.7571423559591758E-014
  0.23050000000000001         -6.3557749254634838E-014
  0.23200000000000001         -5.8860731763784508E-015
  0.23350000000000001          6.9964885097264010E-014
  0.23500000000000001          1.5321912213915054E-013
  0.23650000000000002          2.2864691619217850E-013
  0.23800000000000002          2.7853166229913544E-013
  0.23950000000000002          2.8562881399784192E-013
  0.24100000000000002          2.3675692817311101E-013
  0.24250000000000002          1.2645348815622537E-013
  0.24400000000000002         -4.0010460346446345E-014
  0.24550000000000002         -2.4499316879185397E-013
  0.24700000000000003         -4.5885124245283734E-013
  0.24850000000000003         -6.4269562909245182E-013
  0.25000000000000000         -7.5354035992488199E-013
  0.25150000000000006         -7.5140432319582163E-013
  0.25300000000000000         -6.0746807769961675E-013
  0.25450000000000006         -3.1201120184440626E-013
  0.25600000000000001          1.1936401538110390E-013
  0.25750000000000006          6.4270500412483199E-013
  0.25900000000000001          1.1870814818968307E-012
  0.26050000000000006          1.6610188952807059E-012
  0.26200000000000001          1.9638875086220757E-012
  0.26350000000000007          2.0012715664521620E-012
  0.26500000000000001          1.7024675490195897E-012
  0.26650000000000007          1.0375665969509796E-012
  0.26800000000000002          3.1183483614785036E-014
  0.26950000000000007         -1.2300711176320794E-012
  0.27100000000000002         -2.5987523929063864E-012
  0.27250000000000008         -3.8777698152009388E-012
  0.27400000000000002         -4.8416141100746567E-012
  0.27550000000000008         -5.2660472238774902E-012
  0.27700000000000002         -4.9631305362338026E-012
  0.27850000000000008         -3.8171042420578011E-012
  0.28000000000000003         -1.8158669237716540E-012
  0.28149999999999997          9.2736967206579461E-013
  0.28300000000000003          4.1669985273386774E-012
  0.28449999999999998          7.5358307243725676E-012
  0.28600000000000003          1.0575022977537529E-011
  0.28749999999999998          1.2781822925446178E-011
  0.28900000000000003          1.3671189929286286E-011
  0.29049999999999998          1.2844964499886183E-011
  0.29200000000000004          1.0060440185431560E-011
  0.29349999999999998          5.2892923126182239E-012
  0.29500000000000004         -1.2420242685030585E-012
  0.29649999999999999         -9.0379669119841228E-012
  0.29800000000000004         -1.7350866190700454E-011
  0.29949999999999999         -2.5231133793545485E-011
  0.30100000000000005         -3.1608923204693920E-011
  0.30250000000000010         -3.5401671062746965E-011
  0.30400000000000005         -3.5638453316607513E-011
  0.30550000000000010         -3.1589419089055478E-011
  0.30700000000000005         -2.2886805098144342E-011
  0.30850000000000011         -9.6238086402709032E-012
  0.31000000000000005          7.5814782536955553E-012
  0.31150000000000011          2.7567608780976065E-011
  0.31300000000000006          4.8663914113534702E-011
  0.31450000000000000          6.8780241540737813E-011
  0.31600000000000006          8.5550483991132080E-011
  0.31750000000000000          9.6523469686867722E-011
  0.31900000000000006          9.9390164901234755E-011
  0.32050000000000001          9.2231674345491601E-011
  0.32200000000000006          7.3769914914980390E-011
  0.32350000000000001          4.3599521831066201E-011
  0.32500000000000007          2.3792383331486286E-012
  0.32650000000000001         -4.8039477429416829E-011
  0.32800000000000007         -1.0456674241604313E-010
  0.32950000000000002         -1.6292855199553867E-010
  0.33100000000000007         -2.1783290356017115E-010
  0.33250000000000002         -2.6325292505974808E-010
  0.33400000000000007         -2.9282365816906404E-010
  0.33550000000000002         -3.0034026436913919E-010
  0.33700000000000008         -2.8033386217029759E-010
  0.33850000000000002         -2.2869321896487056E-010
  0.34000000000000008         -1.4328855412396662E-010
  0.34150000000000003         -2.4549491196219680E-011
  0.34300000000000008          1.2405750808093411E-010
  0.34450000000000003          2.9570536873000278E-010
  0.34600000000000009          4.8008692185129936E-010
  0.34750000000000003          6.6353984438395455E-010
  0.34900000000000009          8.2944237439822229E-010
  0.35050000000000003          9.5888875732985151E-010
  0.35200000000000009          1.0316337536944984E-009
  0.35350000000000004          1.0272680356048208E-009
  0.35500000000000009          9.2656953079826094E-010
  0.35650000000000004          7.1295037223928576E-010
  0.35800000000000010          3.7390375360210075E-010
  0.35950000000000004         -9.7653567861989114E-011
  0.36100000000000010         -7.0225317489335730E-010
  0.36250000000000004         -1.4330690461984417E-009
  0.36400000000000010         -2.2755322292434028E-009
  0.36550000000000005         -3.2074346794996013E-009
  0.36700000000000010         -4.1995893896832837E-009
  0.36850000000000005         -5.2170523347474436E-009
  0.37000000000000011         -6.2209181323111854E-009
  0.37150000000000005         -7.1706477753560086E-009
  0.37300000000000011         -8.0268640838839551E-009
  0.37450000000000006         -8.7545374525433557E-009
  0.37600000000000011         -9.3264223116722936E-009
  0.37750000000000006         -9.7266812873252746E-009
  0.37900000000000000         -9.9545137081391769E-009
  0.38050000000000006         -1.0027692829943009E-008
  0.38200000000000001         -9.9858831346201043E-009
  0.38350000000000006         -9.8936294856353818E-009
  0.38500000000000001         -9.8429399837803761E-009
  0.38650000000000007         -9.9553722337617671E-009
  0.38800000000000001         -1.0383646089264258E-008
  0.38950000000000007         -1.1312797416176558E-008
  0.39100000000000001         -1.2960823967385687E-008
  0.39250000000000007         -1.5579099593210841E-008
  0.39400000000000002         -1.9452656779906729E-008
  0.39550000000000007         -2.4900326211596013E-008
  0.39700000000000002         -3.2275395392385994E-008
  0.39850000000000008         -4.1966883829954242E-008
  0.40000000000000002         -5.4401645542177950E-008
  0.40150000000000008         -7.0047794628137307E-008
  0.40300000000000002         -8.9419970029150175E-008
  0.40450000000000008         -1.1308654743463022E-007
  0.40600000000000003         -1.4167950008726813E-007
  0.40750000000000008         -1.7590725170834234E-007
  0.40900000000000003         -2.1657014643376016E-007
  0.41050000000000009         -2.6458064707066306E-007
  0.41200000000000003         -3.2098594701082204E-007
  0.41350000000000009         -3.8699566781509844E-007
  0.41500000000000004         -4.6401529805004899E-007
  0.41650000000000009         -5.5368142975942747E-007
  0.41800000000000004         -6.5790370877967730E-007
  0.41950000000000010         -7.7891467457396895E-007
  0.42100000000000004         -9.1932300276709086E-007
  0.42250000000000010         -1.0821711698514107E-006
  0.42400000000000004         -1.2710095548069894E-006
  0.42550000000000010         -1.4899665380194035E-006
  0.42700000000000005         -1.7438338974814846E-006
  0.42850000000000010         -2.0381641418262777E-006
  0.43000000000000005         -2.3793692806760974E-006
  0.43150000000000011         -2.7748390003204005E-006
  0.43300000000000005         -3.2330760146439323E-006
  0.43450000000000011         -3.7638349240908378E-006
  0.43600000000000005         -4.3782901517481033E-006
  0.43750000000000011         -5.0892058461010982E-006
  0.43900000000000006         -5.9111351453141729E-006
  0.44050000000000000         -6.8606480221829218E-006
  0.44200000000000006         -7.9565618830267901E-006
  0.44350000000000001         -9.2202136099871525E-006
  0.44500000000000006         -1.0675741648360860E-005
  0.44650000000000001         -1.2350427130237113E-005
  0.44800000000000006         -1.4275028734263380E-005
  0.44950000000000001         -1.6484146448858134E-005
  0.45100000000000007         -1.9016623965611657E-005
  0.45250000000000001         -2.1915994751890922E-005
  0.45400000000000007         -2.5230892851957787E-005
  0.45550000000000002         -2.9015590184028973E-005
  0.45700000000000007         -3.3330453794267728E-005
  0.45850000000000002         -3.8242421518847622E-005
  0.46000000000000008         -4.3825631830481240E-005
  0.46150000000000002         -5.0161769162401125E-005
  0.46300000000000008         -5.7340764411768818E-005
  0.46450000000000002         -6.5461275719867187E-005
  0.46600000000000008         -7.4631059977959256E-005
  0.46750000000000003         -8.4967613441102902E-005
  0.46900000000000008         -9.6598429484932250E-005
  0.47050000000000003         -1.0966152007347912E-004
  0.47200000000000009         -1.2430571214760370E-004
  0.47350000000000003         -1.4069081540695253E-004
  0.47500000000000009         -1.5898795063637331E-004
  0.47650000000000003         -1.7937947155533961E-004
  0.47800000000000009         -2.0205875782064518E-004
  0.47950000000000004         -2.2723029170300477E-004
  0.48100000000000009         -2.5510892769259807E-004
  0.48250000000000004         -2.8591966133706837E-004
  0.48400000000000010         -3.1989668201998092E-004
  0.48550000000000004         -3.5728209070493488E-004
  0.48700000000000010         -3.9832529768728036E-004
  0.48850000000000005         -4.4328080158995403E-004
  0.49000000000000010         -4.9240664213291837E-004
  0.49150000000000005         -5.4596257064525467E-004
  0.49300000000000010         -6.0420680524327780E-004
  0.49450000000000005         -6.6739417529825982E-004
  0.49600000000000011         -7.3577232120901120E-004
  0.49750000000000005         -8.0957879543884200E-004
  0.49900000000000011         -8.8903603642740943E-004
  0.50050000000000006         -9.7434933087560535E-004
  0.50200000000000011         -1.0657001932083787E-003
  0.50350000000000006         -1.1632429829327023E-003
  0.50500000000000000         -1.2671003836821158E-003
  0.50650000000000006         -1.3773554950159408E-003
  0.50800000000000001         -1.4940500133390610E-003
  0.50950000000000006         -1.6171755068759234E-003
  0.51100000000000001         -1.7466707020958958E-003
  0.51250000000000007         -1.8824126379185383E-003
  0.51400000000000001         -2.0242146428596868E-003
  0.51550000000000007         -2.1718180423281452E-003
  0.51700000000000002         -2.3248890650803310E-003
  0.51850000000000007         -2.4830135230161652E-003
  0.52000000000000002         -2.6456906374153211E-003
  0.52150000000000007         -2.8123312620345628E-003
  0.52300000000000002         -2.9822535531643640E-003
  0.52450000000000008         -3.1546797398208631E-003
  0.52600000000000002         -3.3287362297281468E-003
  0.52750000000000008         -3.5034539257611502E-003
  0.52900000000000003         -3.6777628944164595E-003
  0.53050000000000008         -3.8505017812759516E-003
  0.53200000000000003         -4.0204102986534590E-003
  0.53350000000000009         -4.1861438384746489E-003
  0.53500000000000003         -4.3462670844382576E-003
  0.53650000000000009         -4.4992714688689281E-003
  0.53800000000000003         -4.6435745727445099E-003
  0.53950000000000009         -4.7775342471137409E-003
  0.54100000000000004         -4.8994617384110701E-003
  0.54250000000000009         -5.0076251924685471E-003
  0.54400000000000004         -5.1002714779464784E-003
  0.54550000000000010         -5.1756351479568660E-003
  0.54700000000000004         -5.2319582793133789E-003
  0.54850000000000010         -5.2675043681448524E-003
  0.55000000000000004         -5.2805802724188115E-003
  0.55150000000000010         -5.2695532881656473E-003
  0.55300000000000005         -5.2328601865547419E-003
  0.55450000000000010         -5.1690435065567131E-003
  0.55600000000000005         -5.0767578929220882E-003
  0.55750000000000011         -4.9547983070678571E-003
  0.55900000000000005         -4.8021142992062549E-003
  0.56050000000000011         -4.6178311686588848E-003
  0.56200000000000006         -4.4012672390508073E-003
  0.56350000000000011         -4.1519469651250789E-003
  0.56500000000000006         -3.8696169498761875E-003
  0.56650000000000011         -3.5542635557856365E-003
  0.56800000000000006         -3.2061130567683557E-003
  0.56950000000000001         -2.8256598310930966E-003
  0.57100000000000006         -2.4136529264086048E-003
  0.57250000000000001         -1.9711122732505252E-003
  0.57400000000000007         -1.4993289049138360E-003
  0.57550000000000001         -9.9986534895419622E-004
  0.57700000000000007         -4.7454780633563766E-004
  0.57850000000000001          7.4542445878025831E-005
  0.58000000000000007          6.4507277133689714E-004
  0.58150000000000002          1.2344754152497691E-003
  0.58300000000000007          1.8399554395638219E-003
  0.58450000000000002          2.4585237263733120E-003
  0.58600000000000008          3.0870109768968900E-003
  0.58750000000000002          3.7220864835530026E-003
  0.58900000000000008          4.3602861818438348E-003
  0.59050000000000002          4.9980310153528683E-003
  0.59200000000000008          5.6316756732152345E-003
  0.59350000000000003          6.2575116099392765E-003
  0.59500000000000008          6.8718216250433194E-003
  0.59650000000000003          7.4708949452034611E-003
  0.59800000000000009          8.0510733311853263E-003
  0.59950000000000003          8.6087636203419152E-003
  0.60100000000000009          9.1404817400987590E-003
  0.60250000000000004          9.6428816538664253E-003
  0.60400000000000009          1.0112768832372637E-002
  0.60550000000000004          1.0547136826427873E-002
  0.60700000000000010          1.0943192409328509E-002
  0.60850000000000004          1.1298363605949196E-002
  0.61000000000000010          1.1610337668830024E-002
  0.61150000000000004          1.1877060220621080E-002
  0.61300000000000010          1.2096759693754984E-002
  0.61450000000000005          1.2267956235143682E-002
  0.61600000000000010          1.2389458412033393E-002