 -0.19999999999999998          0.0000000000000000     
 -0.19849999999999998          0.0000000000000000     
 -0.19699999999999998          0.0000000000000000     
 -0.19549999999999998          0.0000000000000000     
 -0.19399999999999998          0.0000000000000000     
 -0.19249999999999998          0.0000000000000000     
 -0.19099999999999998          0.0000000000000000     
 -0.18949999999999997          0.0000000000000000     
 -0.18799999999999997          0.0000000000000000     
 -0.18649999999999997          0.0000000000000000     
 -0.18500000000000000          0.0000000000000000     
 -0.18350000000000000          0.0000000000000000     
 -0.18200000000000000          0.0000000000000000     
 -0.18049999999999999          0.0000000000000000     
 -0.17899999999999999          0.0000000000000000     
 -0.17749999999999999          0.0000000000000000     
 -0.17599999999999999          0.0000000000000000     
 -0.17449999999999999          0.0000000000000000     
 -0.17299999999999999          0.0000000000000000     
 -0.17149999999999999          0.0000000000000000     
 -0.16999999999999998          0.0000000000000000     
 -0.16849999999999998          0.0000000000000000     
 -0.16699999999999998          0.0000000000000000     
 -0.16549999999999998          0.0000000000000000     
 -0.16399999999999998          0.0000000000000000     
 -0.16249999999999998          0.0000000000000000     
 -0.16099999999999998          0.0000000000000000     
 -0.15949999999999998          0.0000000000000000     
 -0.15799999999999997          0.0000000000000000     
 -0.15649999999999997          0.0000000000000000     
 -0.15499999999999997          0.0000000000000000     
 -0.15349999999999997          0.0000000000000000     
 -0.15199999999999997          0.0000000000000000     
 -0.15049999999999997          0.0000000000000000     
 -0.14899999999999997          0.0000000000000000     
 -0.14749999999999999          0.0000000000000000     
 -0.14599999999999999          0.0000000000000000     
 -0.14449999999999999          0.0000000000000000     
 -0.14299999999999999          0.0000000000000000     
 -0.14149999999999999          0.0000000000000000     
 -0.13999999999999999          0.0000000000000000     
 -0.13849999999999998          0.0000000000000000     
 -0.13699999999999998          0.0000000000000000     
 -0.13549999999999998          0.0000000000000000     
 -0.13399999999999998          0.0000000000000000     
 -0.13249999999999998          0.0000000000000000     
 -0.13099999999999998          0.0000000000000000     
 -0.12949999999999998          0.0000000000000000     
 -0.12799999999999997          0.0000000000000000     
 -0.12650000000000000          0.0000000000000000     
 -0.12499999999999999          0.0000000000000000     
 -0.12349999999999998          0.0000000000000000     
 -0.12199999999999998          0.0000000000000000     
 -0.12049999999999998          0.0000000000000000     
 -0.11899999999999998          0.0000000000000000     
 -0.11749999999999998          0.0000000000000000     
 -0.11599999999999998          0.0000000000000000     
 -0.11449999999999998          0.0000000000000000     
 -0.11299999999999998          0.0000000000000000     
 -0.11149999999999999          0.0000000000000000     
 -0.10999999999999999          0.0000000000000000     
 -0.10849999999999999          0.0000000000000000     
 -0.10699999999999998          0.0000000000000000     
 -0.10549999999999998          0.0000000000000000     
 -0.10399999999999998          0.0000000000000000     
 -0.10249999999999998          0.0000000000000000     
 -0.10099999999999998          0.0000000000000000     
  -9.9499999999999977E-002     0.0000000000000000     
  -9.7999999999999976E-002     0.0000000000000000     
  -9.6499999999999975E-002     0.0000000000000000     
  -9.4999999999999987E-002     0.0000000000000000     
  -9.3499999999999986E-002     0.0000000000000000     
  -9.1999999999999985E-002     0.0000000000000000     
  -9.0499999999999983E-002     0.0000000000000000     
  -8.8999999999999982E-002     0.0000000000000000     
  -8.7499999999999981E-002     0.0000000000000000     
  -8.5999999999999979E-002     0.0000000000000000     
  -8.4499999999999978E-002     0.0000000000000000     
  -8.2999999999999977E-002     0.0000000000000000     
  -8.1499999999999975E-002     0.0000000000000000     
  -7.9999999999999988E-002     0.0000000000000000     
  -7.8499999999999986E-002     0.0000000000000000     
  -7.6999999999999985E-002     0.0000000000000000     
  -7.5499999999999984E-002     0.0000000000000000     
  -7.3999999999999982E-002     0.0000000000000000     
  -7.2499999999999981E-002     0.0000000000000000     
  -7.0999999999999980E-002     0.0000000000000000     
  -6.9499999999999978E-002     0.0000000000000000     
  -6.7999999999999977E-002     0.0000000000000000     
  -6.6499999999999976E-002     0.0000000000000000     
  -6.4999999999999974E-002     0.0000000000000000     
  -6.3499999999999973E-002     0.0000000000000000     
  -6.1999999999999972E-002     0.0000000000000000     
  -6.0499999999999970E-002     0.0000000000000000     
  -5.8999999999999969E-002     0.0000000000000000     
  -5.7499999999999968E-002     0.0000000000000000     
  -5.5999999999999966E-002     0.0000000000000000     
  -5.4499999999999993E-002     0.0000000000000000     
  -5.2999999999999992E-002     0.0000000000000000     
  -5.1499999999999990E-002     0.0000000000000000     
  -4.9999999999999989E-002     0.0000000000000000     
  -4.8499999999999988E-002     0.0000000000000000     
  -4.6999999999999986E-002     0.0000000000000000     
  -4.5499999999999985E-002     0.0000000000000000     
  -4.3999999999999984E-002     0.0000000000000000     
  -4.2499999999999982E-002     0.0000000000000000     
  -4.0999999999999981E-002     0.0000000000000000     
  -3.9499999999999980E-002     0.0000000000000000     
  -3.7999999999999978E-002     0.0000000000000000     
  -3.6499999999999977E-002     0.0000000000000000     
  -3.4999999999999976E-002     0.0000000000000000     
  -3.3499999999999974E-002     0.0000000000000000     
  -3.1999999999999973E-002     0.0000000000000000     
  -3.0499999999999972E-002     0.0000000000000000     
  -2.8999999999999970E-002     0.0000000000000000     
  -2.7499999999999969E-002     0.0000000000000000     
  -2.5999999999999968E-002     0.0000000000000000     
  -2.4499999999999966E-002     0.0000000000000000     
  -2.2999999999999993E-002     0.0000000000000000     
  -2.1499999999999991E-002     0.0000000000000000     
  -1.9999999999999990E-002     0.0000000000000000     
  -1.8499999999999989E-002     0.0000000000000000     
  -1.6999999999999987E-002     0.0000000000000000     
  -1.5499999999999986E-002     0.0000000000000000     
  -1.3999999999999985E-002     0.0000000000000000     
  -1.2499999999999983E-002     0.0000000000000000     
  -1.0999999999999982E-002     0.0000000000000000     
  -9.4999999999999807E-003     0.0000000000000000     
  -7.9999999999999793E-003     0.0000000000000000     
  -6.4999999999999780E-003     0.0000000000000000     
  -4.9999999999999767E-003     0.0000000000000000     
  -3.4999999999999754E-003     0.0000000000000000     
  -1.9999999999999740E-003     0.0000000000000000     
  -4.9999999999997269E-004     0.0000000000000000     
   1.0000000000000286E-003     0.0000000000000000     
   2.5000000000000300E-003     0.0000000000000000     
   4.0000000000000313E-003     0.0000000000000000     
   5.5000000000000326E-003     0.0000000000000000     
   7.0000000000000340E-003     0.0000000000000000     
   8.5000000000000075E-003     0.0000000000000000     
   1.0000000000000009E-002     0.0000000000000000     
   1.1500000000000010E-002     0.0000000000000000     
   1.3000000000000012E-002     0.0000000000000000     
   1.4500000000000013E-002     0.0000000000000000     
   1.6000000000000014E-002     0.0000000000000000     
   1.7500000000000016E-002     0.0000000000000000     
   1.9000000000000017E-002     0.0000000000000000     
   2.0500000000000018E-002     0.0000000000000000     
   2.2000000000000020E-002     0.0000000000000000     
   2.3500000000000021E-002     0.0000000000000000     
   2.5000000000000022E-002     0.0000000000000000     
   2.6500000000000024E-002     0.0000000000000000     
   2.8000000000000025E-002     0.0000000000000000     
   2.9500000000000026E-002     0.0000000000000000     
   3.1000000000000028E-002     0.0000000000000000     
   3.2500000000000029E-002     0.0000000000000000     
   3.4000000000000030E-002     0.0000000000000000     
   3.5500000000000032E-002     0.0000000000000000     
   3.7000000000000033E-002     0.0000000000000000     
   3.8500000000000034E-002     0.0000000000000000     
   4.0000000000000008E-002     0.0000000000000000     
   4.1500000000000009E-002     0.0000000000000000     
   4.3000000000000010E-002     0.0000000000000000     
   4.4500000000000012E-002     0.0000000000000000     
   4.6000000000000013E-002     0.0000000000000000     
   4.7500000000000014E-002     0.0000000000000000     
   4.9000000000000016E-002     0.0000000000000000     
   5.0500000000000017E-002     0.0000000000000000     
   5.2000000000000018E-002     0.0000000000000000     
   5.3500000000000020E-002     0.0000000000000000     
   5.5000000000000021E-002     0.0000000000000000     
   5.6500000000000022E-002     0.0000000000000000     
   5.8000000000000024E-002     0.0000000000000000     
   5.9500000000000025E-002     0.0000000000000000     
   6.1000000000000026E-002     0.0000000000000000     
   6.2500000000000028E-002     0.0000000000000000     
   6.4000000000000029E-002     0.0000000000000000     
   6.5500000000000030E-002     0.0000000000000000     
   6.7000000000000032E-002     0.0000000000000000     
   6.8500000000000033E-002     0.0000000000000000     
   7.0000000000000034E-002     0.0000000000000000     
   7.1500000000000036E-002     0.0000000000000000     
   7.3000000000000037E-002     0.0000000000000000     
   7.4500000000000038E-002     0.0000000000000000     
   7.6000000000000040E-002     0.0000000000000000     
   7.7500000000000041E-002     0.0000000000000000     
   7.9000000000000042E-002     0.0000000000000000     
   8.0500000000000044E-002     0.0000000000000000     
   8.2000000000000045E-002     0.0000000000000000     
   8.3500000000000046E-002     0.0000000000000000     
   8.5000000000000048E-002     0.0000000000000000     
   8.6500000000000049E-002     0.0000000000000000     
   8.8000000000000050E-002     0.0000000000000000     
   8.9499999999999996E-002     0.0000000000000000     
   9.0999999999999998E-002     0.0000000000000000     
   9.2499999999999999E-002     0.0000000000000000     
   9.4000000000000000E-002     0.0000000000000000     
   9.5500000000000002E-002     0.0000000000000000     
   9.7000000000000003E-002     0.0000000000000000     
   9.8500000000000004E-002     0.0000000000000000     
  0.10000000000000001          0.0000000000000000     
  0.10150000000000001          0.0000000000000000     
  0.10300000000000001          0.0000000000000000     
  0.10450000000000001          0.0000000000000000     
  0.10600000000000001          0.0000000000000000     
  0.10750000000000001          0.0000000000000000     
  0.10900000000000001          0.0000000000000000     
  0.11050000000000001          0.0000000000000000     
  0.11200000000000002          0.0000000000000000     
  0.11350000000000002          0.0000000000000000     
  0.11500000000000002          0.0000000000000000     
  0.11650000000000002          0.0000000000000000     
  0.11800000000000002          0.0000000000000000     
  0.11950000000000002          0.0000000000000000     
  0.12100000000000002          0.0000000000000000     
  0.12250000000000003          0.0000000000000000     
  0.12400000000000003          0.0000000000000000     
  0.12550000000000003          0.0000000000000000     
  0.12700000000000003          0.0000000000000000     
  0.12850000000000003          0.0000000000000000     
  0.13000000000000003          0.0000000000000000     
  0.13150000000000003          0.0000000000000000     
  0.13300000000000003          0.0000000000000000     
  0.13450000000000004          0.0000000000000000     
  0.13600000000000004          0.0000000000000000     
  0.13750000000000004          0.0000000000000000     
  0.13900000000000004          0.0000000000000000     
  0.14050000000000004          0.0000000000000000     
  0.14200000000000004          0.0000000000000000     
  0.14350000000000004          0.0000000000000000     
  0.14500000000000005          0.0000000000000000     
  0.14650000000000005          0.0000000000000000     
  0.14800000000000005          0.0000000000000000     
  0.14950000000000005          0.0000000000000000     
  0.15100000000000005          0.0000000000000000     
  0.15250000000000000          0.0000000000000000     
  0.15400000000000000          0.0000000000000000     
  0.15550000000000000          0.0000000000000000     
  0.15700000000000000          0.0000000000000000     
  0.15850000000000000          0.0000000000000000     
  0.16000000000000000          0.0000000000000000     
  0.16150000000000000          0.0000000000000000     
  0.16300000000000001          0.0000000000000000     
  0.16450000000000001          0.0000000000000000     
  0.16600000000000001          0.0000000000000000     
  0.16750000000000001          0.0000000000000000     
  0.16900000000000001          0.0000000000000000     
  0.17050000000000001          0.0000000000000000     
  0.17200000000000001          0.0000000000000000     
  0.17350000000000002          0.0000000000000000     
  0.17500000000000002          0.0000000000000000     
  0.17650000000000002          0.0000000000000000     
  0.17800000000000002          0.0000000000000000     
  0.17950000000000002          0.0000000000000000     
  0.18100000000000002          0.0000000000000000     
  0.18250000000000002          0.0000000000000000     
  0.18400000000000002          0.0000000000000000     
  0.18550000000000003          0.0000000000000000     
  0.18700000000000003          0.0000000000000000     
  0.18850000000000003          0.0000000000000000     
  0.19000000000000003          0.0000000000000000     
  0.19150000000000003          0.0000000000000000     
  0.19300000000000003          0.0000000000000000     
  0.19450000000000003          0.0000000000000000     
  0.19600000000000004          0.0000000000000000     
  0.19750000000000004          0.0000000000000000     
  0.19900000000000004          0.0000000000000000     
  0.20050000000000004          0.0000000000000000     
  0.20200000000000004          0.0000000000000000     
  0.20350000000000004          0.0000000000000000     
  0.20500000000000004          0.0000000000000000     
  0.20650000000000004          0.0000000000000000     
  0.20800000000000005          0.0000000000000000     
  0.20950000000000005          0.0000000000000000     
  0.21100000000000005          0.0000000000000000     
  0.21250000000000005          0.0000000000000000     
  0.21400000000000005          0.0000000000000000     
  0.21550000000000005          0.0000000000000000     
  0.21700000000000000          0.0000000000000000     
  0.21850000000000000          0.0000000000000000     
  0.22000000000000000          0.0000000000000000     
  0.22150000000000000          0.0000000000000000     
  0.22300000000000000          0.0000000000000000     
  0.22450000000000001          0.0000000000000000     
  0.22600000000000001          0.0000000000000000     
  0.22750000000000001          0.0000000000000000     
  0.22900000000000001          0.0000000000000000     
  0.23050000000000001          0.0000000000000000     
  0.23200000000000001          0.0000000000000000     
  0.23350000000000001          0.0000000000000000     
  0.23500000000000001          0.0000000000000000     
  0.23650000000000002          0.0000000000000000     
  0.23800000000000002          0.0000000000000000     
  0.23950000000000002          0.0000000000000000     
  0.24100000000000002          0.0000000000000000     
  0.24250000000000002          0.0000000000000000     
  0.24400000000000002          0.0000000000000000     
  0.24550000000000002          0.0000000000000000     
  0.24700000000000003          0.0000000000000000     
  0.24850000000000003          0.0000000000000000     
  0.25000000000000000          0.0000000000000000     
  0.25150000000000006          0.0000000000000000     
  0.25300000000000000          0.0000000000000000     
  0.25450000000000006          0.0000000000000000     
  0.25600000000000001          0.0000000000000000     
  0.25750000000000006          0.0000000000000000     
  0.25900000000000001          0.0000000000000000     
  0.26050000000000006          0.0000000000000000     
  0.26200000000000001          0.0000000000000000     
  0.26350000000000007          0.0000000000000000     
  0.26500000000000001          0.0000000000000000     
  0.26650000000000007          0.0000000000000000     
  0.26800000000000002          0.0000000000000000     
  0.26950000000000007          0.0000000000000000     
  0.27100000000000002          0.0000000000000000     
  0.27250000000000008          0.0000000000000000     
  0.27400000000000002          0.0000000000000000     
  0.27550000000000008          0.0000000000000000     
  0.27700000000000002          0.0000000000000000     
  0.27850000000000008          0.0000000000000000     
  0.28000000000000003          0.0000000000000000     
  0.28149999999999997          0.0000000000000000     
  0.28300000000000003          0.0000000000000000     
  0.28449999999999998          0.0000000000000000     
  0.28600000000000003          0.0000000000000000     
  0.28749999999999998          0.0000000000000000     
  0.28900000000000003          0.0000000000000000     
  0.29049999999999998          0.0000000000000000     
  0.29200000000000004          0.0000000000000000     
  0.29349999999999998          0.0000000000000000     
  0.29500000000000004          0.0000000000000000     
  0.29649999999999999          0.0000000000000000     
  0.29800000000000004          0.0000000000000000     
  0.29949999999999999          0.0000000000000000     
  0.30100000000000005          0.0000000000000000     
  0.30250000000000010          0.0000000000000000     
  0.30400000000000005          0.0000000000000000     
  0.30550000000000010          0.0000000000000000     
  0.30700000000000005          0.0000000000000000     
  0.30850000000000011          0.0000000000000000     
  0.31000000000000005          0.0000000000000000     
  0.31150000000000011          0.0000000000000000     
  0.31300000000000006          0.0000000000000000     
  0.31450000000000000          0.0000000000000000     
  0.31600000000000006          0.0000000000000000     
  0.31750000000000000          0.0000000000000000     
  0.31900000000000006          0.0000000000000000     
  0.32050000000000001          0.0000000000000000     
  0.32200000000000006          0.0000000000000000     
  0.32350000000000001          0.0000000000000000     
  0.32500000000000007          0.0000000000000000     
  0.32650000000000001          0.0000000000000000     
  0.32800000000000007          0.0000000000000000     
  0.32950000000000002          0.0000000000000000     
  0.33100000000000007          0.0000000000000000     
  0.33250000000000002          0.0000000000000000     
  0.33400000000000007          0.0000000000000000     
  0.33550000000000002          0.0000000000000000     
  0.33700000000000008          0.0000000000000000     
  0.33850000000000002          0.0000000000000000     
  0.34000000000000008          0.0000000000000000     
  0.34150000000000003          0.0000000000000000     
  0.34300000000000008          0.0000000000000000     
  0.34450000000000003          0.0000000000000000     
  0.34600000000000009          0.0000000000000000     
  0.34750000000000003          0.0000000000000000     
  0.34900000000000009          0.0000000000000000     
  0.35050000000000003          0.0000000000000000     
  0.35200000000000009          0.0000000000000000     
  0.35350000000000004          0.0000000000000000     
  0.35500000000000009          0.0000000000000000     
  0.35650000000000004          0.0000000000000000     
  0.35800000000000010          0.0000000000000000     
  0.35950000000000004          0.0000000000000000     
  0.36100000000000010          0.0000000000000000     
  0.36250000000000004          0.0000000000000000     
  0.36400000000000010          0.0000000000000000     
  0.36550000000000005          0.0000000000000000     
  0.36700000000000010          0.0000000000000000     
  0.36850000000000005          0.0000000000000000     
  0.37000000000000011          0.0000000000000000     
  0.37150000000000005          0.0000000000000000     
  0.37300000000000011          0.0000000000000000     
  0.37450000000000006          0.0000000000000000     
  0.37600000000000011          0.0000000000000000     
  0.37750000000000006          0.0000000000000000     
  0.37900000000000000          0.0000000000000000     
  0.38050000000000006          0.0000000000000000     
  0.38200000000000001          0.0000000000000000     
  0.38350000000000006          0.0000000000000000     
  0.38500000000000001          0.0000000000000000     
  0.38650000000000007          0.0000000000000000     
  0.38800000000000001          0.0000000000000000     
  0.38950000000000007          0.0000000000000000     
  0.39100000000000001          0.0000000000000000     
  0.39250000000000007          0.0000000000000000     
  0.39400000000000002          0.0000000000000000     
  0.39550000000000007          0.0000000000000000     
  0.39700000000000002          0.0000000000000000     
  0.39850000000000008          0.0000000000000000     
  0.40000000000000002          0.0000000000000000     
  0.40150000000000008          0.0000000000000000     
  0.40300000000000002          0.0000000000000000     
  0.40450000000000008          0.0000000000000000     
  0.40600000000000003          0.0000000000000000     
  0.40750000000000008          0.0000000000000000     
  0.40900000000000003          0.0000000000000000     
  0.41050000000000009          0.0000000000000000     
  0.41200000000000003          0.0000000000000000     
  0.41350000000000009          0.0000000000000000     
  0.41500000000000004          0.0000000000000000     
  0.41650000000000009          0.0000000000000000     
  0.41800000000000004          0.0000000000000000     
  0.41950000000000010          0.0000000000000000     
  0.42100000000000004          0.0000000000000000     
  0.42250000000000010          0.0000000000000000     
  0.42400000000000004          0.0000000000000000     
  0.42550000000000010          0.0000000000000000     
  0.42700000000000005          0.0000000000000000     
  0.42850000000000010          0.0000000000000000     
  0.43000000000000005          0.0000000000000000     
  0.43150000000000011          0.0000000000000000     
  0.43300000000000005          0.0000000000000000     
  0.43450000000000011          0.0000000000000000     
  0.43600000000000005          0.0000000000000000     
  0.43750000000000011          0.0000000000000000     
  0.43900000000000006          0.0000000000000000     
  0.44050000000000000          0.0000000000000000     
  0.44200000000000006          0.0000000000000000     
  0.44350000000000001          0.0000000000000000     
  0.44500000000000006          0.0000000000000000     
  0.44650000000000001          0.0000000000000000     
  0.44800000000000006          0.0000000000000000     
  0.44950000000000001          0.0000000000000000     
  0.45100000000000007          0.0000000000000000     
  0.45250000000000001          0.0000000000000000     
  0.45400000000000007          0.0000000000000000     
  0.45550000000000002          0.0000000000000000     
  0.45700000000000007          0.0000000000000000     
  0.45850000000000002          0.0000000000000000     
  0.46000000000000008          0.0000000000000000     
  0.46150000000000002          0.0000000000000000     
  0.46300000000000008          0.0000000000000000     
  0.46450000000000002          0.0000000000000000     
  0.46600000000000008          0.0000000000000000     
  0.46750000000000003          0.0000000000000000     
  0.46900000000000008          0.0000000000000000     
  0.47050000000000003          0.0000000000000000     
  0.47200000000000009          0.0000000000000000     
  0.47350000000000003          0.0000000000000000     
  0.47500000000000009          0.0000000000000000     
  0.47650000000000003          0.0000000000000000     
  0.47800000000000009          0.0000000000000000     
  0.47950000000000004          0.0000000000000000     
  0.48100000000000009          0.0000000000000000     
  0.48250000000000004          0.0000000000000000     
  0.48400000000000010          0.0000000000000000     
  0.48550000000000004          0.0000000000000000     
  0.48700000000000010          0.0000000000000000     
  0.48850000000000005          0.0000000000000000     
  0.49000000000000010          0.0000000000000000     
  0.49150000000000005          0.0000000000000000     
  0.49300000000000010          0.0000000000000000     
  0.49450000000000005          0.0000000000000000     
  0.49600000000000011          0.0000000000000000     
  0.49750000000000005          0.0000000000000000     
  0.49900000000000011          0.0000000000000000     
  0.50050000000000006          0.0000000000000000     
  0.50200000000000011          0.0000000000000000     
  0.50350000000000006          0.0000000000000000     
  0.50500000000000000          0.0000000000000000     
  0.50650000000000006          0.0000000000000000     
  0.50800000000000001          0.0000000000000000     
  0.50950000000000006          0.0000000000000000     
  0.51100000000000001          0.0000000000000000     
  0.51250000000000007          0.0000000000000000     
  0.51400000000000001          0.0000000000000000     
  0.51550000000000007          0.0000000000000000     
  0.51700000000000002          0.0000000000000000     
  0.51850000000000007          0.0000000000000000     
  0.52000000000000002          0.0000000000000000     
  0.52150000000000007          0.0000000000000000     
  0.52300000000000002          0.0000000000000000     
  0.52450000000000008          0.0000000000000000     
  0.52600000000000002          0.0000000000000000     
  0.52750000000000008          0.0000000000000000     
  0.52900000000000003          0.0000000000000000     
  0.53050000000000008          0.0000000000000000     
  0.53200000000000003          0.0000000000000000     
  0.53350000000000009          0.0000000000000000     
  0.53500000000000003          0.0000000000000000     
  0.53650000000000009          0.0000000000000000     
  0.53800000000000003          0.0000000000000000     
  0.53950000000000009          0.0000000000000000     
  0.54100000000000004          0.0000000000000000     
  0.54250000000000009          0.0000000000000000     
  0.54400000000000004          0.0000000000000000     
  0.54550000000000010          0.0000000000000000     
  0.54700000000000004          0.0000000000000000     
  0.54850000000000010          0.0000000000000000     
  0.55000000000000004          0.0000000000000000     
  0.55150000000000010          0.0000000000000000     
  0.55300000000000005          0.0000000000000000     
  0.55450000000000010          0.0000000000000000     
  0.55600000000000005          0.0000000000000000     
  0.55750000000000011          0.0000000000000000     
  0.55900000000000005          0.0000000000000000     
  0.56050000000000011          0.0000000000000000     
  0.56200000000000006          0.0000000000000000     
  0.56350000000000011          0.0000000000000000     
  0.56500000000000006          0.0000000000000000     
  0.56650000000000011          0.0000000000000000     
  0.56800000000000006          0.0000000000000000     
  0.56950000000000001          0.0000000000000000     
  0.57100000000000006          0.0000000000000000     
  0.57250000000000001          0.0000000000000000     
  0.57400000000000007          0.0000000000000000     
  0.57550000000000001          0.0000000000000000     
  0.57700000000000007          0.0000000000000000     
  0.57850000000000001          0.0000000000000000     
  0.58000000000000007         -4.1519631399661978E-053
  0.58150000000000002         -6.8837904366789609E-053
  0.58300000000000007         -7.0038939629911299E-053
  0.58450000000000002          9.1589265134632657E-053
  0.58600000000000008          1.4744712793780085E-052
  0.58750000000000002          1.5769289009586887E-052
  0.58900000000000008          3.6068765650112531E-052
  0.59050000000000002          3.9629949171693298E-052
  0.59200000000000008          1.0402363119653207E-052
  0.59350000000000003         -1.3385195309653587E-052
  0.59500000000000008         -2.3643131009908567E-052
  0.59650000000000003         -9.1094801947987722E-052
  0.59800000000000009         -7.4408622910513516E-052
  0.59950000000000003         -7.6503399796563134E-052
  0.60100000000000009         -6.4744977343854368E-039
  0.60250000000000004         -9.5940210110816180E-039
  0.60400000000000009         -1.0550456943646070E-038
  0.60550000000000004         -1.8875369024369893E-038
  0.60700000000000010         -2.1275426073565232E-038
  0.60850000000000004         -2.1956363337701371E-038
  0.61000000000000010         -1.3860695282048167E-038
  0.61150000000000004         -6.5522436671222999E-039
  0.61300000000000010          2.2592438871243477E-038
  0.61450000000000005          5.1653322990008777E-038
  0.61600000000000010          8.2142617086586950E-038