 -0.19999999999999998          0.0000000000000000     
 -0.19849999999999998          0.0000000000000000     
 -0.19699999999999998          0.0000000000000000     
 -0.19549999999999998          0.0000000000000000     
 -0.19399999999999998          0.0000000000000000     
 -0.19249999999999998          0.0000000000000000     
 -0.19099999999999998          0.0000000000000000     
 -0.18949999999999997          0.0000000000000000     
 -0.18799999999999997          0.0000000000000000     
 -0.18649999999999997          0.0000000000000000     
 -0.18500000000000000          0.0000000000000000     
 -0.18350000000000000          0.0000000000000000     
 -0.18200000000000000          0.0000000000000000     
 -0.18049999999999999          0.0000000000000000     
 -0.17899999999999999          0.0000000000000000     
 -0.17749999999999999          0.0000000000000000     
 -0.17599999999999999          0.0000000000000000     
 -0.17449999999999999          0.0000000000000000     
 -0.17299999999999999          0.0000000000000000     
 -0.17149999999999999          0.0000000000000000     
 -0.16999999999999998          0.0000000000000000     
 -0.16849999999999998          0.0000000000000000     
 -0.16699999999999998          0.0000000000000000     
 -0.16549999999999998          0.0000000000000000     
 -0.16399999999999998          0.0000000000000000     
 -0.16249999999999998          0.0000000000000000     
 -0.16099999999999998          0.0000000000000000     
 -0.15949999999999998          0.0000000000000000     
 -0.15799999999999997          0.0000000000000000     
 -0.15649999999999997          0.0000000000000000     
 -0.15499999999999997          0.0000000000000000     
 -0.15349999999999997          0.0000000000000000     
 -0.15199999999999997          0.0000000000000000     
 -0.15049999999999997          0.0000000000000000     
 -0.14899999999999997          0.0000000000000000     
 -0.14749999999999999          0.0000000000000000     
 -0.14599999999999999          0.0000000000000000     
 -0.14449999999999999          0.0000000000000000     
 -0.14299999999999999          0.0000000000000000     
 -0.14149999999999999          0.0000000000000000     
 -0.13999999999999999          0.0000000000000000     
 -0.13849999999999998          0.0000000000000000     
 -0.13699999999999998          0.0000000000000000     
 -0.13549999999999998          0.0000000000000000     
 -0.13399999999999998          0.0000000000000000     
 -0.13249999999999998          0.0000000000000000     
 -0.13099999999999998          0.0000000000000000     
 -0.12949999999999998          0.0000000000000000     
 -0.12799999999999997          0.0000000000000000     
 -0.12650000000000000          0.0000000000000000     
 -0.12499999999999999          0.0000000000000000     
 -0.12349999999999998          0.0000000000000000     
 -0.12199999999999998          0.0000000000000000     
 -0.12049999999999998          0.0000000000000000     
 -0.11899999999999998          0.0000000000000000     
 -0.11749999999999998          0.0000000000000000     
 -0.11599999999999998          0.0000000000000000     
 -0.11449999999999998          0.0000000000000000     
 -0.11299999999999998          0.0000000000000000     
 -0.11149999999999999          0.0000000000000000     
 -0.10999999999999999          0.0000000000000000     
 -0.10849999999999999          0.0000000000000000     
 -0.10699999999999998          0.0000000000000000     
 -0.10549999999999998          0.0000000000000000     
 -0.10399999999999998          0.0000000000000000     
 -0.10249999999999998          0.0000000000000000     
 -0.10099999999999998          0.0000000000000000     
  -9.9499999999999977E-002     0.0000000000000000     
  -9.7999999999999976E-002     0.0000000000000000     
  -9.6499999999999975E-002     0.0000000000000000     
  -9.4999999999999987E-002     0.0000000000000000     
  -9.3499999999999986E-002     0.0000000000000000     
  -9.1999999999999985E-002     0.0000000000000000     
  -9.0499999999999983E-002     0.0000000000000000     
  -8.8999999999999982E-002     0.0000000000000000     
  -8.7499999999999981E-002     0.0000000000000000     
  -8.5999999999999979E-002     0.0000000000000000     
  -8.4499999999999978E-002     0.0000000000000000     
  -8.2999999999999977E-002     0.0000000000000000     
  -8.1499999999999975E-002     0.0000000000000000     
  -7.9999999999999988E-002     0.0000000000000000     
  -7.8499999999999986E-002     0.0000000000000000     
  -7.6999999999999985E-002     0.0000000000000000     
  -7.5499999999999984E-002    -1.3555197312787524E-038
  -7.3999999999999982E-002    -2.0959091327334591E-038
  -7.2499999999999981E-002    -1.6763445098433735E-038
  -7.0999999999999980E-002     0.0000000000000000     
  -6.9499999999999978E-002     5.8433853720242773E-038
  -6.7999999999999977E-002     1.1221023083260631E-037
  -6.6499999999999976E-002     1.2738074865193044E-037
  -6.4999999999999974E-002     5.0524665798425681E-038
  -6.3499999999999973E-002    -1.5624333057017762E-037
  -6.1999999999999972E-002    -4.5384282643466267E-037
  -6.0499999999999970E-002    -6.8842657147980422E-037
  -5.8999999999999969E-002    -5.9604924795635257E-037
  -5.7499999999999968E-002     7.3620136088170629E-038
  -5.5999999999999966E-002     1.3574812063225307E-036
  -5.4499999999999993E-002     2.8299125444772284E-036
  -5.2999999999999992E-002     3.5033200255674072E-036
  -5.1499999999999990E-002     2.0829787140282484E-036
  -4.9999999999999989E-002    -2.2899359541735046E-036
  -4.8499999999999988E-002    -8.9781739070543147E-036
  -4.6999999999999986E-002    -1.4984133396778903E-035
  -4.5499999999999985E-002    -1.5147123545574921E-035
  -4.3999999999999984E-002    -4.1645384885029620E-036
  -4.2499999999999982E-002     1.9540759730245230E-035
  -4.0999999999999981E-002     4.9461990445434662E-035
  -3.9499999999999980E-002     6.9016319484243782E-035
  -3.7999999999999978E-002     5.5340454456877332E-035
  -3.6499999999999977E-002    -9.2217587246645890E-036
  -3.4999999999999976E-002    -1.2016552419848523E-034
  -3.3499999999999974E-002    -2.3636250125146628E-034
  -3.1999999999999973E-002    -2.8042578399117569E-034
  -3.0499999999999972E-002    -1.6506768474799162E-034
  -2.8999999999999970E-002     1.5342496608671059E-034
  -2.7499999999999969E-002     6.1178134609991991E-034
  -2.5999999999999968E-002     1.0032444326692523E-033
  -2.4499999999999966E-002     1.0129771262069780E-033
  -2.2999999999999993E-002     3.5313309167099708E-034
  -2.1499999999999991E-002    -1.0232622100621313E-033
  -1.9999999999999990E-002    -2.7188682902536674E-033
  -1.8499999999999989E-002    -3.8433322495952970E-033
  -1.6999999999999987E-002    -3.2588975145849045E-033
  -1.5499999999999986E-002    -1.5825275129607474E-034
  -1.3999999999999985E-002     5.1824071042281230E-033
  -1.2499999999999983E-002     1.0852151999855310E-032
  -1.0999999999999982E-002     1.3448815383243430E-032
  -9.4999999999999807E-003     9.2786383012524491E-033
  -7.9999999999999793E-003    -3.4772853767985927E-033
  -6.4999999999999780E-003    -2.2397850088720525E-032
  -4.9999999999999767E-003    -3.9637562733995952E-032
  -3.4999999999999754E-003    -4.3412943817384959E-032
  -1.9999999999999740E-003    -2.2882469094661370E-032
  -4.9999999999997269E-004     2.4546406982875859E-032
   1.0000000000000286E-003     8.6550663931679297E-032
   2.5000000000000300E-003     1.3437338321230674E-031
   4.0000000000000313E-003     1.3045862664186284E-031
   5.5000000000000326E-003     4.5979242203423140E-032
   7.0000000000000340E-003    -1.1660978079687667E-031
   8.5000000000000075E-003    -3.0671540832888520E-031
   1.0000000000000009E-002    -4.2785309774575423E-031
   1.1500000000000010E-002    -3.6851715092146571E-031
   1.3000000000000012E-002    -5.9446749446279306E-032
   1.4500000000000013E-002     4.6183818346019422E-031
   1.6000000000000014E-002     1.0131600748428139E-030
   1.7500000000000016E-002     1.2932216853074632E-030
   1.9000000000000017E-002     9.9013592593335720E-031
   2.0500000000000018E-002    -4.5169954056521319E-032
   2.2000000000000020E-002    -1.6258157699047281E-030
   2.3500000000000021E-002    -3.1552450506315592E-030
   2.5000000000000022E-002    -3.7468495382936304E-030
   2.6500000000000024E-002    -2.5695277719520674E-030
   2.8000000000000025E-002     6.5907091001100179E-031
   2.9500000000000026E-002     5.2322238882952503E-030
   3.1000000000000028E-002     9.3381582365265811E-030
   3.2500000000000029E-002     1.0494450501295952E-029
   3.4000000000000030E-002     6.5662900859425798E-030
   3.5500000000000032E-002    -2.9017164402543442E-030
   3.7000000000000033E-002    -1.5611462240674103E-029
   3.8500000000000034E-002    -2.6398808431043856E-029
   4.0000000000000008E-002    -2.8600398755140905E-029
   4.1500000000000009E-002    -1.6867133022279595E-029
   4.3000000000000010E-002     9.3938712380677774E-030
   4.4500000000000012E-002     4.3474111853418758E-029
   4.6000000000000013E-002     7.1459481849439325E-029
   4.7500000000000014E-002     7.6111261315169958E-029
   4.9000000000000016E-002     4.4215317936032104E-029
   5.0500000000000017E-002    -2.4849704920773413E-029
   5.2000000000000018E-002    -1.1317747436272788E-028
   5.3500000000000020E-002    -1.8519318899743743E-028
   5.5000000000000021E-002    -1.9778382063171118E-028
   5.6500000000000022E-002    -1.1853606889479113E-028
   5.8000000000000024E-002     5.3634374139009236E-029
   5.9500000000000025E-002     2.7471630942453402E-028
   6.1000000000000026E-002     4.5830666124011359E-028
   6.2500000000000028E-002     5.0012331909807855E-028
   6.4000000000000029E-002     3.2109580808502326E-028
   6.5500000000000030E-002    -8.4508386159172460E-029
   6.7000000000000032E-002    -6.1714069936780795E-028
   6.8500000000000033E-002    -1.0777418339238139E-027
   7.0000000000000034E-002    -1.2228401605502590E-027
   7.1500000000000036E-002    -8.6146404460810858E-028
   7.3000000000000037E-002     3.6155378504639046E-029
   7.4500000000000038E-002     1.2645388527370223E-027
   7.6000000000000040E-002     2.3904529479319482E-027
   7.7500000000000041E-002     2.8675472034983356E-027
   7.9000000000000042E-002     2.2432677418093285E-027
   8.0500000000000044E-002     3.9581813028101563E-028
   8.2000000000000045E-002    -2.2957539022865094E-027
   8.3500000000000046E-002    -4.9472978650998079E-027
   8.5000000000000048E-002    -6.3880161012787839E-027
   8.6500000000000049E-002    -5.5774917324335245E-027
   8.8000000000000050E-002    -2.1014144003185516E-027
   8.9499999999999996E-002     3.4459597762996715E-027
   9.0999999999999998E-002     9.3940349160573056E-027
   9.2499999999999999E-002     1.3368333312215194E-026
   9.4000000000000000E-002     1.3076087418783060E-026
   9.5500000000000002E-002     7.2930958522642037E-027
   9.7000000000000003E-002    -3.3061069862037628E-027
   9.8500000000000004E-002    -1.5866838181974120E-026
  0.10000000000000001         -2.5891636045333363E-026
  0.10150000000000001         -2.8599029426083512E-026
  0.10300000000000001         -2.0769050199614930E-026
  0.10450000000000001         -2.4563763573530340E-027
  0.10600000000000001          2.2149131616950671E-026
  0.10750000000000001          4.5268880453819525E-026
  0.10900000000000001          5.7617010378321694E-026
  0.11050000000000001          5.1572808270494058E-026
  0.11200000000000002          2.4478382608241231E-026
  0.11350000000000002         -1.9159141032293947E-026
  0.11500000000000002         -6.7620744840861999E-026
  0.11650000000000002         -1.0455219326999737E-025
  0.11800000000000002         -1.1376069346238125E-025
  0.11950000000000002         -8.4956873673192368E-026
  0.12100000000000002         -1.8616591809106265E-026
  0.12250000000000003          7.1851986769330676E-026
  0.12400000000000003          1.6181554869243357E-025
  0.12550000000000003          2.2107505529186236E-025
  0.12700000000000003          2.2231820357829911E-025
  0.12850000000000003          1.5022620333561802E-025
  0.13000000000000003          8.6862477214217840E-027
  0.13150000000000003         -1.7616230626789360E-025
  0.13300000000000003         -3.5845703938873311E-025
  0.13450000000000004         -4.8094140698073990E-025
  0.13600000000000004         -4.8809582713728113E-025
  0.13750000000000004         -3.4201087566177774E-025
  0.13900000000000004         -3.8080689113387534E-026
  0.14050000000000004          3.8309625716217308E-025
  0.14200000000000004          8.3170499311362385E-025
  0.14350000000000004          1.1766808757758968E-024
  0.14500000000000005          1.2687066263351862E-024
  0.14650000000000005          9.7858893507995264E-025
  0.14800000000000005          2.4665373531967574E-025
  0.14950000000000005         -8.6741495476990410E-025
  0.15100000000000005         -2.1509758467832160E-024
  0.15250000000000000         -3.2410318547666921E-024
  0.15400000000000000         -3.6803020354666352E-024
  0.15550000000000000         -3.0330829944599791E-024
  0.15700000000000000         -1.0479950552504835E-024
  0.15850000000000000          2.1692868516553336E-024
  0.16000000000000000          6.0317848859380500E-024
  0.16150000000000000          9.4634193207074302E-024
  0.16300000000000001          1.1063777637672916E-023
  0.16450000000000001          9.4632135121694836E-024
  0.16600000000000001          3.8240906605129277E-024
  0.16750000000000001         -5.6287250762039138E-024
  0.16900000000000001         -1.7226022881606357E-023
  0.17050000000000001         -2.7821215252741503E-023
  0.17200000000000001         -3.3265813048603651E-023
  0.17350000000000002         -2.9438959806964654E-023
  0.17500000000000002         -1.3699833369642820E-023
  0.17650000000000002          1.3570143342529648E-023
  0.17800000000000002          4.7834942767353214E-023
  0.17950000000000002          8.0240478472181862E-023
  0.18100000000000002          9.8869420366291399E-023
  0.18250000000000002          9.1556662463107018E-023
  0.18400000000000002          4.9932403823693646E-023
  0.18550000000000003         -2.6188123910447332E-023
  0.18700000000000003         -1.2541264456789343E-022
  0.18850000000000003         -2.2391272913518377E-022
  0.19000000000000003         -2.8838447750971200E-022
  0.19150000000000003         -2.8334293018500850E-022
  0.19300000000000003         -1.8202612381516759E-022
  0.19450000000000003          2.1286013155146190E-023
  0.19600000000000004          3.0104082650654588E-022
  0.19750000000000004          5.9642700321217673E-022
  0.19900000000000004          8.1733526824362904E-022
  0.20050000000000004          8.6213850509126130E-022
  0.20200000000000004          6.4604873871338751E-022
  0.20350000000000004          1.3493680003888060E-022
  0.20500000000000004         -6.2416026143356173E-022
  0.20650000000000004         -1.4868170912218377E-021
  0.20800000000000005         -2.2197738879134093E-021
  0.20950000000000005         -2.5407710854368550E-021
  0.21100000000000005         -2.1887068303404453E-021
  0.21250000000000005         -1.0133088176135403E-021
  0.21400000000000005          9.3646495048388880E-022
  0.21550000000000005          3.3531639784409885E-021
  0.21700000000000000          5.6695405346963834E-021
  0.21850000000000000          7.1364698306921105E-021
  0.22000000000000000          6.9846783382082974E-021
  0.22150000000000000          4.6510142531287983E-021
  0.22300000000000000          2.3750108687818209E-023
  0.22450000000000001         -6.3600922942535984E-021
  0.22600000000000001         -1.3241238097574123E-020
  0.22750000000000001         -1.8753516608760909E-020
  0.22900000000000001         -2.0759502437053764E-020
  0.23050000000000001         -1.7383695479698314E-020
  0.23200000000000001         -7.6549758285728251E-021
  0.23350000000000001          7.8914651982375768E-021
  0.23500000000000001          2.6840994688120216E-020
  0.23650000000000002          4.4940251747589077E-020
  0.23800000000000002          5.6679580327215604E-020
  0.23950000000000002          5.6432729314768763E-020
  0.24100000000000002          4.0016249628883227E-020
  0.24250000000000002          6.3676418291885974E-021
  0.24400000000000002         -4.1090259954242546E-020
  0.24550000000000002         -9.3883714462461358E-020
  0.24700000000000003         -1.3914054687703948E-019
  0.24850000000000003         -1.6167788226580911E-019
  0.25000000000000000         -1.4741600135289929E-019
  0.25150000000000006         -8.7611478605061013E-020
  0.25300000000000000          1.6981674461376569E-020
  0.25450000000000006          1.5317565043593248E-019
  0.25600000000000001          2.9482130012051550E-019
  0.25750000000000006          4.0559632499216638E-019
  0.25900000000000001          4.4541083371734020E-019
  0.26050000000000006          3.7986377257905019E-019
  0.26200000000000001          1.9120006726278913E-019
  0.26350000000000007         -1.1165132192775307E-019
  0.26500000000000001         -4.8687481238078672E-019
  0.26650000000000007         -8.6020400878025118E-019
  0.26800000000000002         -1.1339195888448989E-018
  0.26950000000000007         -1.2046997668274768E-018
  0.27100000000000002         -9.8842842207679994E-019
  0.27250000000000008         -4.4772038121789950E-019
  0.27400000000000002          3.8401946657859167E-019
  0.27550000000000008          1.3891297356717631E-018
  0.27700000000000002          2.3693646910794796E-018
  0.27850000000000008          3.0708629006559393E-018
  0.28000000000000003          3.2304697661183261E-018
  0.28149999999999997          2.6381918020090723E-018
  0.28300000000000003          1.2050840381393517E-018
  0.28449999999999998         -9.7850438261033318E-019
  0.28600000000000003         -3.6113342934462894E-018
  0.28749999999999998         -6.1916554728362058E-018
  0.28900000000000003         -8.0790539959131903E-018
  0.29049999999999998         -8.6075276008281467E-018
  0.29200000000000004         -7.2372618921510039E-018
  0.29349999999999998         -3.7198754368345470E-018
  0.29500000000000004          1.7581636034843340E-018
  0.29649999999999999          8.4937923976302060E-018
  0.29800000000000004          1.5283488954400584E-017
  0.29949999999999999          2.0560459181966339E-017
  0.30100000000000005          2.2654274219678076E-017
  0.30250000000000010          2.0146460411131323E-017
  0.30400000000000005          1.2266516594103854E-017
  0.30550000000000010         -7.5100804865945921E-019
  0.30700000000000005         -1.7439786752959863E-017
  0.30850000000000011         -3.5091179146924675E-017
  0.31000000000000005         -5.0019457385366181E-017
  0.31150000000000011         -5.8116209269313408E-017
  0.31300000000000006         -5.5646512632729805E-017
  0.31450000000000000         -4.0174111116464881E-017
  0.31600000000000006         -1.1445778311767773E-017
  0.31750000000000000          2.7968511271391613E-017
  0.31900000000000006          7.2481077044788258E-017
  0.32050000000000001          1.1389266888494979E-016
  0.32200000000000006          1.4246365740000146E-016
  0.32350000000000001          1.4858839590690944E-016
  0.32500000000000007          1.2486730550020784E-016
  0.32650000000000001          6.8238273075551256E-017
  0.32800000000000007         -1.8265875519253518E-017
  0.32950000000000002         -1.2459140204722538E-016
  0.33100000000000007         -2.3396359622585618E-016
  0.33250000000000002         -3.2464623033527693E-016
  0.33400000000000007         -3.7314914070721515E-016
  0.33550000000000002         -3.5857476574762084E-016
  0.33700000000000008         -2.6749154476946640E-016
  0.33850000000000002         -9.8475798642112614E-017
  0.34000000000000008          1.3466538146725872E-016
  0.34150000000000003          4.0193689539703517E-016
  0.34300000000000008          6.5917475166689243E-016
  0.34450000000000003          8.5332375581332195E-016
  0.34600000000000009          9.3067763865972927E-016
  0.34750000000000003          8.4714823361332708E-016
  0.34900000000000009          5.7903015688899245E-016
  0.35050000000000003          1.3230365700062312E-016
  0.35200000000000009         -4.5162251920235332E-016
  0.35350000000000004         -1.0955919246337967E-015
  0.35500000000000009         -1.6930429335665282E-015
  0.35650000000000004         -2.1212505903532663E-015
  0.35800000000000010         -2.2604758195194898E-015
  0.35950000000000004         -2.0167243659600971E-015
  0.36100000000000010         -1.3446886267184365E-015
  0.36250000000000004         -2.6671965736394026E-016
  0.36400000000000010          1.1164304959644424E-015
  0.36550000000000005          2.6267134614663644E-015
  0.36700000000000010          4.0239366618466684E-015
  0.36850000000000005          5.0350862279171384E-015
  0.37000000000000011          5.3954463428448308E-015
  0.37150000000000005          4.8966280882170588E-015
  0.37300000000000011          3.4344775429147549E-015
  0.37450000000000006          1.0485398964280630E-015
  0.37600000000000011         -2.0553177768300887E-015
  0.37750000000000006         -5.5061741798130180E-015
  0.37900000000000000         -8.7974867728917107E-015
  0.38050000000000006         -1.1344932088020583E-014
  0.38200000000000001         -1.2568217606965529E-014
  0.38350000000000006         -1.1987621561486041E-014
  0.38500000000000001         -9.3220052204138083E-015
  0.38650000000000007         -4.5725368682449727E-015
  0.38800000000000001          1.9239714976179593E-015
  0.38950000000000007          9.4859301829233306E-015
  0.39100000000000001          1.7131078689415939E-014
  0.39250000000000007          2.3675786069192629E-014
  0.39400000000000002          2.7883148705553844E-014
  0.39550000000000007          2.8644747855804350E-014
  0.39700000000000002          2.5173485619439425E-014
  0.39850000000000008          1.7179616098188250E-014
  0.40000000000000002          5.0006872712306263E-015
  0.40150000000000008         -1.0341325241404057E-014
  0.40300000000000002         -2.7175267250379337E-014
  0.40450000000000008         -4.3316965264921797E-014
  0.40600000000000003         -5.6301144144508305E-014
  0.40750000000000008         -6.3689424104124964E-014
  0.40900000000000003         -6.3420757687158060E-014
  0.41050000000000009         -5.4160692637848601E-014
  0.41200000000000003         -3.5600298572413570E-014
  0.41350000000000009         -8.6565978646352503E-015
  0.41500000000000004          2.4465591026939676E-014
  0.41650000000000009          6.0376212891366253E-014
  0.41800000000000004          9.4773587363322159E-014
  0.41950000000000010          1.2287377891342727E-013
  0.42100000000000004          1.3995804700756463E-013
  0.42250000000000010          1.4198202829347878E-013
  0.42400000000000004          1.2617725802950953E-013
  0.42550000000000010          9.1569378436483195E-014
  0.42700000000000005          3.9342062038205588E-014
  0.42850000000000010         -2.7012546794812945E-014
  0.43000000000000005         -1.0179571389644064E-013
  0.43150000000000011         -1.7746859691583492E-013
  0.43300000000000005         -2.4526754760502180E-013
  0.43450000000000011         -2.9602429220158352E-013
  0.43600000000000005         -3.2112176204902819E-013
  0.43750000000000011         -3.1350013950042807E-013
  0.43900000000000006         -2.6861544550338219E-013
  0.44050000000000000         -1.8525402256500908E-013
  0.44200000000000006         -6.6111659353591710E-014
  0.44350000000000001          8.1937280234795941E-014
  0.44500000000000006          2.4793561234715586E-013
  0.44650000000000001          4.1733415080738035E-013
  0.44800000000000006          5.7287813455929943E-013
  0.44950000000000001          6.9586380264256438E-013
  0.45100000000000007          7.6770720467894942E-013
  0.45250000000000001          7.7174061460513866E-013
  0.45400000000000007          6.9511990253445061E-013
  0.45550000000000002          5.3070403651386486E-013
  0.45700000000000007          2.7873870047150773E-013
  0.45850000000000002         -5.1835464748993383E-014
  0.46000000000000008         -4.4264057253822906E-013
  0.46150000000000002         -8.6586092426450248E-013
  0.46300000000000008         -1.2851410849186831E-012
  0.46450000000000002         -1.6574768032361534E-012
  0.46600000000000008         -1.9361314846677176E-012
  0.46750000000000003         -2.0744969346509068E-012
  0.46900000000000008         -2.0307184975123848E-012
  0.47050000000000003         -1.7727683949401346E-012
  0.47200000000000009         -1.2835447534582765E-012
  0.47350000000000003         -5.6547368910559243E-013
  0.47500000000000009          3.5595890215374072E-013
  0.47650000000000003          1.4303166449572137E-012
  0.47800000000000009          2.5824757685029306E-012
  0.47950000000000004          3.7153997372015126E-012
  0.48100000000000009          4.7156014219793689E-012
  0.48250000000000004          5.4611832899888643E-012
  0.48400000000000010          5.8320867080788494E-012
  0.48550000000000004          5.7218599281353505E-012
  0.48700000000000010          5.0500186805520435E-012
  0.48850000000000005          3.7738744466144718E-012
  0.49000000000000010          1.8986163846262293E-012
  0.49150000000000005         -5.1555559666522758E-013
  0.49300000000000010         -3.3502707009051468E-012
  0.49450000000000005         -6.4305640460895957E-012
  0.49600000000000011         -9.5316141921654812E-012
  0.49750000000000005         -1.2390548774967510E-011
  0.49900000000000011         -1.4722857545555522E-011
  0.50050000000000006         -1.6242448092379367E-011
  0.50200000000000011         -1.6684071431410357E-011
  0.50350000000000006         -1.5826555465216494E-011
  0.50500000000000000         -1.3515206220315859E-011
  0.50650000000000006         -9.6817003668070418E-012
  0.50800000000000001         -4.3600533063040978E-012
  0.50950000000000006          2.3026333594549856E-012
  0.51100000000000001          1.0041519510753912E-011
  0.51250000000000007          1.8475984333394230E-011
  0.51400000000000001          2.7118549521400680E-011
  0.51550000000000007          3.5390589642572289E-011
  0.51700000000000002          4.2644685553259718E-011
  0.51850000000000007          4.8193239634857481E-011
  0.52000000000000002          5.1342761937697014E-011
  0.52150000000000007          5.1433296938614992E-011
  0.52300000000000002          4.7882119276296279E-011
  0.52450000000000008          4.0230777380056704E-011
  0.52600000000000002          2.8193909524774373E-011
  0.52750000000000008          1.1708131439997489E-011
  0.52900000000000003         -9.0216271094006610E-012
  0.53050000000000008         -3.3481203904699934E-011
  0.53200000000000003         -6.0815681380351770E-011
  0.53350000000000009         -8.9811197318453948E-011
  0.53500000000000003         -1.1889490671838143E-010
  0.53650000000000009         -1.4615760783422272E-010
  0.53800000000000003         -1.6940301473054020E-010
  0.53950000000000009         -1.8622723264413949E-010
  0.54100000000000004         -1.9412991420978825E-010
  0.54250000000000009         -1.9065678703276003E-010
  0.54400000000000004         -1.7357006559004606E-010
  0.54550000000000010         -1.4104096554383663E-010
  0.54700000000000004         -9.1854816516797644E-011
  0.54850000000000010         -2.5616242665192311E-011
  0.55000000000000004          5.7059803227730866E-011
  0.55150000000000010          1.5438797040016072E-010
  0.55300000000000005          2.6330015959556860E-010
  0.55450000000000010          3.7939783891546163E-010
  0.55600000000000005          4.9698175445068490E-010
  0.55750000000000011          6.0917291483511595E-010
  0.55900000000000005          7.0813060448222487E-010
  0.56050000000000011          7.8536917420041092E-010
  0.56200000000000006          8.3217107296104794E-010
  0.56350000000000011          8.4008423865674536E-010
  0.56500000000000006          8.0148717854466654E-010
  0.56650000000000011          7.1019625460360642E-010
  0.56800000000000006          5.6208695565806204E-010
  0.56950000000000001          3.5569300688816764E-010
  0.57100000000000006          9.2747473446188096E-011
  0.57250000000000001         -2.2137263373954591E-010
  0.57400000000000007         -5.7733308721058932E-010
  0.57550000000000001         -9.6168870808794519E-010
  0.57700000000000007         -1.3569125118957324E-009
  0.57850000000000001         -1.7416256888396018E-009
  0.58000000000000007         -2.0910348735891263E-009
  0.58150000000000002         -2.3775759930974222E-009
  0.58300000000000007         -2.5717662239264628E-009
  0.58450000000000002         -2.6432425002020505E-009
  0.58600000000000008         -2.5619786298063489E-009
  0.58750000000000002         -2.2996621063261174E-009
  0.58900000000000008         -1.8311987314258050E-009
  0.59050000000000002         -1.1362980570194281E-009
  0.59200000000000008         -2.0114487220822003E-010
  0.59350000000000003          9.7990888566409583E-010
  0.59500000000000008          2.4026087326623951E-009
  0.59650000000000003          4.0510653907577815E-009
  0.59800000000000009          5.8959966532967507E-009
  0.59950000000000003          7.8929676510117961E-009
  0.60100000000000009          9.9804949751983505E-009
  0.60250000000000004          1.2078072659933964E-008
  0.60400000000000009          1.4083957922047808E-008
  0.60550000000000004          1.5872742223599314E-008
  0.60700000000000010          1.7292546612396747E-008
  0.60850000000000004          1.8161699207470147E-008
  0.61000000000000010          1.8264943491938892E-008
  0.61150000000000004          1.7348756915864145E-008
  0.61300000000000010          1.5115830131806926E-008
  0.61450000000000005          1.1218306597876548E-008
  0.61600000000000010          5.2496354584211878E-009