 -0.19999999999999998          0.0000000000000000     
 -0.19849999999999998          0.0000000000000000     
 -0.19699999999999998          0.0000000000000000     
 -0.19549999999999998          0.0000000000000000     
 -0.19399999999999998          0.0000000000000000     
 -0.19249999999999998          0.0000000000000000     
 -0.19099999999999998          0.0000000000000000     
 -0.18949999999999997          0.0000000000000000     
 -0.18799999999999997          0.0000000000000000     
 -0.18649999999999997          0.0000000000000000     
 -0.18500000000000000          0.0000000000000000     
 -0.18350000000000000          0.0000000000000000     
 -0.18200000000000000          0.0000000000000000     
 -0.18049999999999999          0.0000000000000000     
 -0.17899999999999999          0.0000000000000000     
 -0.17749999999999999          0.0000000000000000     
 -0.17599999999999999          0.0000000000000000     
 -0.17449999999999999          0.0000000000000000     
 -0.17299999999999999          0.0000000000000000     
 -0.17149999999999999          0.0000000000000000     
 -0.16999999999999998          0.0000000000000000     
 -0.16849999999999998          0.0000000000000000     
 -0.16699999999999998          0.0000000000000000     
 -0.16549999999999998          0.0000000000000000     
 -0.16399999999999998          0.0000000000000000     
 -0.16249999999999998          0.0000000000000000     
 -0.16099999999999998          0.0000000000000000     
 -0.15949999999999998          0.0000000000000000     
 -0.15799999999999997          0.0000000000000000     
 -0.15649999999999997          0.0000000000000000     
 -0.15499999999999997          0.0000000000000000     
 -0.15349999999999997          0.0000000000000000     
 -0.15199999999999997          0.0000000000000000     
 -0.15049999999999997         -3.2604733785965292E-040
 -0.14899999999999997         -6.3410528236854203E-040
 -0.14749999999999999         -2.6152812036646431E-040
 -0.14599999999999999          2.5863472019518065E-039
 -0.14449999999999999          9.7946731708169367E-039
 -0.14299999999999999          1.7899025135589577E-038
 -0.14149999999999999         -4.7364567118911543E-039
 -0.13999999999999999         -8.2266158954112293E-038
 -0.13849999999999998         -2.3594918253131890E-037
 -0.13699999999999998         -3.6191058422409580E-037
 -0.13549999999999998         -1.1457142698061034E-037
 -0.13399999999999998          1.0795719066708424E-036
 -0.13249999999999998          3.5265911496377108E-036
 -0.13099999999999998          6.0122583596622761E-036
 -0.12949999999999998          4.2183353195032500E-036
 -0.12799999999999997         -9.2108230666257335E-036
 -0.12650000000000000         -3.9367765343921157E-035
 -0.12499999999999999         -7.5849201751789361E-035
 -0.12349999999999998         -7.5879719402989577E-035
 -0.12199999999999998          3.7727707800118969E-035
 -0.12049999999999998          3.3164289852482604E-034
 -0.11899999999999998          7.4593419431395431E-034
 -0.11749999999999998          9.3940350535154080E-034
 -0.11599999999999998          2.3999327849702814E-034
 -0.11449999999999998         -2.0504097335204910E-033
 -0.11299999999999998         -5.7967669593537232E-033
 -0.11149999999999999         -8.8050966175346117E-033
 -0.10999999999999999         -6.1772871000059001E-033
 -0.10849999999999999          8.0583266072858434E-033
 -0.10699999999999998          3.5538850321020904E-032
 -0.10549999999999998          6.5139994394542529E-032
 -0.10399999999999998          6.6873170099550273E-032
 -0.10249999999999998         -1.7294301694311948E-033
 -0.10099999999999998         -1.6664778636182477E-031
  -9.9499999999999977E-002    -3.8702326518200430E-031
  -9.7999999999999976E-002    -5.0919017261234633E-031
  -9.6499999999999975E-002    -2.7898000645688016E-031
  -9.4999999999999987E-002     5.2742680660794989E-031
  -9.3499999999999986E-002     1.8418406042063892E-030
  -9.1999999999999985E-002     3.0164652530313989E-030
  -9.0499999999999983E-002     2.7629883586081960E-030
  -8.8999999999999982E-002    -3.6258866541754754E-031
  -8.7499999999999981E-002    -6.7795670891600234E-030
  -8.5999999999999979E-002    -1.4352850951871299E-029
  -8.4499999999999978E-002    -1.7557473951557650E-029
  -8.2999999999999977E-002    -8.8349369068797688E-030
  -8.1499999999999975E-002     1.6816779335673845E-029
  -7.9999999999999988E-002     5.4833606468111354E-029
  -7.8499999999999986E-002     8.5422262289555082E-029
  -7.6999999999999985E-002     7.5482025800830258E-029
  -7.5499999999999984E-002    -6.2831847913236714E-030
  -7.3999999999999982E-002    -1.6151349735057635E-028
  -7.2499999999999981E-002    -3.3325004074528872E-028
  -7.0999999999999980E-002    -3.9894876703102926E-028
  -6.9499999999999978E-002    -2.1069992782226190E-028
  -6.7999999999999977E-002     3.0884361649695507E-028
  -6.6499999999999976E-002     1.0442543590827422E-027
  -6.4999999999999974E-002     1.6140627139932649E-027
  -6.3499999999999973E-002     1.4448132889454815E-027
  -6.1999999999999972E-002     5.4584324897574676E-029
  -6.0499999999999970E-002    -2.5058117349993200E-027
  -5.8999999999999969E-002    -5.2684236919598380E-027
  -5.7499999999999968E-002    -6.3573137335749147E-027
  -5.5999999999999966E-002    -3.6850929962258979E-027
  -5.4499999999999993E-002     3.6675747221911545E-027
  -5.2999999999999992E-002     1.3908243306269096E-026
  -5.1499999999999990E-002     2.1843057184936770E-026
  -4.9999999999999989E-002     2.0160987384649196E-026
  -4.8499999999999988E-002     3.1604917825565177E-027
  -4.6999999999999986E-002    -2.8058902145369444E-026
  -4.5499999999999985E-002    -6.1646392381439980E-026
  -4.3999999999999984E-002    -7.5947888679884433E-026
  -4.2499999999999982E-002    -4.7980601004396996E-026
  -4.0999999999999981E-002     3.1508588876440578E-026
  -3.9499999999999980E-002     1.4257560340714911E-025
  -3.7999999999999978E-002     2.3065121421599968E-025
  -3.6499999999999977E-002     2.2132799561556008E-025
  -3.4999999999999976E-002     5.8069611692329966E-026
  -3.3499999999999974E-002    -2.4840450366497233E-025
  -3.1999999999999973E-002    -5.8515156994688578E-025
  -3.0499999999999972E-002    -7.4874027640053156E-025
  -2.8999999999999970E-002    -5.2418915934155165E-025
  -2.7499999999999969E-002     1.8081947914325257E-025
  -2.5999999999999968E-002     1.2018778158995521E-024
  -2.4499999999999966E-002     2.0715565829299162E-024
  -2.2999999999999993E-002     2.1418430728582004E-024
  -2.1499999999999991E-002     8.9334805057656711E-025
  -1.9999999999999990E-002    -1.6603827883163908E-024
  -1.8499999999999989E-002    -4.6767658322546531E-024
  -1.6999999999999987E-002    -6.5430504253075333E-024
  -1.5499999999999986E-002    -5.4482164391313725E-024
  -1.3999999999999985E-002    -3.9098952768704067E-025
  -1.2499999999999983E-002     7.7638274434988697E-024
  -1.0999999999999982E-002     1.5801887376101670E-023
  -9.4999999999999807E-003     1.8842589916362049E-023
  -7.9999999999999793E-003     1.2380648165824705E-023
  -6.4999999999999780E-003    -4.8423723256800121E-024
  -4.9999999999999767E-003    -2.8424383895613549E-023
  -3.4999999999999754E-003    -4.7998975648556990E-023
  -1.9999999999999740E-003    -5.0257019912858603E-023
  -4.9999999999997269E-004    -2.5151376114719440E-023
   1.0000000000000286E-003     2.6771003539401795E-023
   2.5000000000000300E-003     8.9576778196728030E-023
   4.0000000000000313E-003     1.3360278747829628E-022
   5.5000000000000326E-003     1.2559025125999126E-022
   7.0000000000000340E-003     4.5457078127893622E-023
   8.5000000000000075E-003    -9.6663912450567471E-023
   1.0000000000000009E-002    -2.5242576338986075E-022
   1.1500000000000010E-002    -3.4462618994524586E-022
   1.3000000000000012E-002    -2.9624736117104754E-022
   1.4500000000000013E-002    -7.1734583228880074E-023
   1.6000000000000014E-002     2.8663651679731649E-022
   1.7500000000000016E-002     6.4878862526064952E-022
   1.9000000000000017E-002     8.2922890901721158E-022
   2.0500000000000018E-002     6.6150597197507120E-022
   2.2000000000000020E-002     9.2054949297134393E-023
   2.3500000000000021E-002    -7.4818527088188340E-022
   2.5000000000000022E-002    -1.5401170787781577E-021
   2.6500000000000024E-002    -1.8681825637832228E-021
   2.8000000000000025E-002    -1.3954306532062021E-021
   2.9500000000000026E-002    -6.2567292949495800E-023
   3.1000000000000028E-002     1.7820043180959603E-021
   3.2500000000000029E-002     3.4117210631724545E-021
   3.4000000000000030E-002     3.9518369641960824E-021
   3.5500000000000032E-002     2.7630725190588312E-021
   3.7000000000000033E-002    -1.6141629271904538E-022
   3.8500000000000034E-002    -3.9799459158390516E-021
   4.0000000000000008E-002    -7.1350027381112471E-021
   4.1500000000000009E-002    -7.8833217152765065E-021
   4.3000000000000010E-002    -5.0896984073932485E-021
   4.4500000000000012E-002     1.0230040738829217E-021
   4.6000000000000013E-002     8.5511706628470840E-021
   4.7500000000000014E-002     1.4308259511316799E-020
   4.9000000000000016E-002     1.4973077938684664E-020
   5.0500000000000017E-002     8.6595039972481334E-021
   5.2000000000000018E-002    -3.7282010335699286E-021
   5.3500000000000020E-002    -1.8078798895064752E-020
   5.5000000000000021E-002    -2.8082313287751074E-020
   5.6500000000000022E-002    -2.7603978248340422E-020
   5.8000000000000024E-002    -1.3687499375524904E-020
   5.9500000000000025E-002     1.1068892745006487E-020
   6.1000000000000026E-002     3.8087261284085778E-020
   6.2500000000000028E-002     5.5112096364875596E-020
   6.4000000000000029E-002     5.0942184749669801E-020
   6.5500000000000030E-002     2.1057175137936442E-020
   6.7000000000000032E-002    -2.8256748976727254E-020
   6.8500000000000033E-002    -7.9651584930962624E-020
   7.0000000000000034E-002    -1.0955951705929037E-019
   7.1500000000000036E-002    -9.7330794908932452E-020
   7.3000000000000037E-002    -3.5655832699133788E-020
   7.4500000000000038E-002     6.2159929691721490E-020
   7.6000000000000040E-002     1.6227032052591615E-019
   7.7500000000000041E-002     2.1971048943846081E-019
   7.9000000000000042E-002     1.9547942809816525E-019
   8.0500000000000044E-002     7.5711595411713043E-020
   8.2000000000000045E-002    -1.1502761541951557E-019
   8.3500000000000046E-002    -3.1375863245347772E-019
   8.5000000000000048E-002    -4.3591882100738231E-019
   8.6500000000000049E-002    -4.0607537441075570E-019
   8.8000000000000050E-002    -1.9285527575841565E-019
   8.9499999999999996E-002     1.6576608824081948E-019
   9.0999999999999998E-002     5.5995590189713689E-019
   9.2499999999999999E-002     8.3499345408322038E-019
   9.4000000000000000E-002     8.4370075888628738E-019
   9.5500000000000002E-002     5.0886071341457134E-019
   9.7000000000000003E-002    -1.2747896504966757E-019
   9.8500000000000004E-002    -8.9080029989063144E-019
  0.10000000000000001         -1.5106051780722640E-018
  0.10150000000000001         -1.7034553733270212E-018
  0.10300000000000001         -1.2805152712758857E-018
  0.10450000000000001         -2.4346453386416498E-019
  0.10600000000000001          1.1703165339576003E-018
  0.10750000000000001          2.5211284567707309E-018
  0.10900000000000001          3.2830564254528782E-018
  0.11050000000000001          3.0175055760375461E-018
  0.11200000000000002          1.5534216527008563E-018
  0.11350000000000002         -8.8836662452997155E-019
  0.11500000000000002         -3.6813129773031286E-018
  0.11650000000000002         -5.9166952524285282E-018
  0.11800000000000002         -6.6503984139343088E-018
  0.11950000000000002         -5.2160347199683444E-018
  0.12100000000000002         -1.5162074934992830E-018
  0.12250000000000003          3.8052725811398611E-018
  0.12400000000000003          9.3888367903185705E-018
  0.12550000000000003          1.3416674988751520E-017
  0.12700000000000003          1.4075694319109326E-017
  0.12850000000000003          1.0134946806422905E-017
  0.13000000000000003          1.4946598852337588E-018
  0.13150000000000003         -1.0461039786101141E-017
  0.13300000000000003         -2.2862306869038080E-017
  0.13450000000000004         -3.1800347515996971E-017
  0.13600000000000004         -3.3222184899104840E-017
  0.13750000000000004         -2.4145723879923013E-017
  0.13900000000000004         -3.9354291788083754E-018
  0.14050000000000004          2.4723566825500343E-017
  0.14200000000000004          5.5547475829137477E-017
  0.14350000000000004          7.9393258773902583E-017
  0.14500000000000005          8.6138625729065452E-017
  0.14650000000000005          6.7517582230665115E-017
  0.14800000000000005          2.0363573699499365E-017
  0.14950000000000005         -5.0609591339054037E-017
  0.15100000000000005         -1.3152025058788633E-016
  0.15250000000000000         -2.0044671041871547E-016
  0.15400000000000000         -2.3145237480876159E-016
  0.15550000000000000         -2.0124547350434230E-016
  0.15700000000000000         -9.7298920339092743E-017
  0.15850000000000000          7.4589051509040887E-017
  0.16000000000000000          2.8580273700698711E-016
  0.16150000000000000          4.8586444520571358E-016
  0.16300000000000001          6.1031501599580292E-016
  0.16450000000000001          5.9537101929962391E-016
  0.16600000000000001          3.9713547069045293E-016
  0.16750000000000001          1.1107992125257902E-017
  0.16900000000000001         -5.1363314045647264E-016
  0.17050000000000001         -1.0713360512087381E-015
  0.17200000000000001         -1.5118366008452711E-015
  0.17350000000000002         -1.6693164379396854E-015
  0.17500000000000002         -1.4043653969909954E-015
  0.17650000000000002         -6.5152097137483685E-016
  0.17800000000000002          5.3930755884906626E-016
  0.17950000000000002          1.9807374839655513E-015
  0.18100000000000002          3.3568164874057787E-015
  0.18250000000000002          4.2695397328243173E-015
  0.18400000000000002          4.3213560212863825E-015
  0.18550000000000003          3.2220152349961818E-015
  0.18700000000000003          8.9843253171723800E-016
  0.18850000000000003         -2.4204883219195490E-015
  0.19000000000000003         -6.1733856743219716E-015
  0.19150000000000003         -9.5136646036423333E-015
  0.19300000000000003         -1.1444178209096631E-014
  0.19450000000000003         -1.1029412531262627E-014
  0.19600000000000004         -7.6527304732786463E-015
  0.19750000000000004         -1.2660022255701816E-015
  0.19900000000000004          7.4334029177670305E-015
  0.20050000000000004          1.6962630111649040E-014
  0.20200000000000004          2.5197705055557680E-014
  0.20350000000000004          2.9716548803431243E-014
  0.20500000000000004          2.8309637613349568E-014
  0.20650000000000004          1.9578226782446659E-014
  0.20800000000000005          3.4979429986452967E-015
  0.20950000000000005         -1.8197322554763721E-014
  0.21100000000000005         -4.1949910234747503E-014
  0.21250000000000005         -6.2728593916517579E-014
  0.21400000000000005         -7.4817545413393290E-014
  0.21550000000000005         -7.2969218862029855E-014
  0.21700000000000000         -5.3743304766662831E-014
  0.21850000000000000         -1.6767956745015729E-014
  0.22000000000000000          3.4384963253080005E-014
  0.22150000000000000          9.2002924656515557E-014
  0.22300000000000000          1.4491987426681918E-013
  0.22450000000000001          1.8014177352278103E-013
  0.22600000000000001          1.8526724628875362E-013
  0.22750000000000001          1.5135217546504065E-013
  0.22900000000000001          7.5692127237469756E-014
  0.23050000000000001         -3.6100190800921007E-014
  0.23200000000000001         -1.6932670869982702E-013
  0.23350000000000001         -3.0119689484905363E-013
  0.23500000000000001         -4.0375296483303289E-013
  0.23650000000000002         -4.4852624398066501E-013
  0.23800000000000002         -4.1231892875152938E-013
  0.23950000000000002         -2.8314829151232487E-013
  0.24100000000000002         -6.5165697948373225E-014
  0.24250000000000002          2.1866331847952203E-013
  0.24400000000000002          5.2710794678200548E-013
  0.24550000000000002          8.0498150454474892E-013
  0.24700000000000003          9.9108501307824642E-013
  0.24850000000000003          1.0289164533120195E-012
  0.25000000000000000          8.7856731475157818E-013
  0.25150000000000006          5.2771569653610267E-013
  0.25300000000000000         -5.6878636067803086E-016
  0.25450000000000006         -6.4527642075223359E-013
  0.25600000000000001         -1.3115724148593300E-012
  0.25750000000000006         -1.8819616723507957E-012
  0.25900000000000001         -2.2336156666831164E-012
  0.26050000000000006         -2.2596880739075583E-012
  0.26200000000000001         -1.8913701265779200E-012
  0.26350000000000007         -1.1168076945114150E-012
  0.26500000000000001          7.0028153670264595E-015
  0.26650000000000007          1.3525153639637919E-012
  0.26800000000000002          2.7319353749850299E-012
  0.26950000000000007          3.9194506043095049E-012
  0.27100000000000002          4.6832316246465133E-012
  0.27250000000000008          4.8230771962778537E-012
  0.27400000000000002          4.2081118376167506E-012
  0.27550000000000008          2.8082748606855213E-012
  0.27700000000000002          7.1365684100420183E-013
  0.27850000000000008         -1.8628649045172139E-012
  0.28000000000000003         -4.6020222418022765E-012
  0.28149999999999997         -7.1130619984855021E-012
  0.28300000000000003         -8.9836362810064530E-012
  0.28449999999999998         -9.8385356714028538E-012
  0.28600000000000003         -9.3991961608833033E-012
  0.28749999999999998         -7.5352459457362760E-012
  0.28900000000000003         -4.2999267160959051E-012
  0.29049999999999998          5.6942451671661092E-014
  0.29200000000000004          5.1018423643735016E-012
  0.29349999999999998          1.0256182771095032E-011
  0.29500000000000004          1.4857040724394179E-011
  0.29649999999999999          1.8233205944753958E-011
  0.29800000000000004          1.9787659193052778E-011
  0.29949999999999999          1.9076586207175689E-011
  0.30100000000000005          1.5875531688443825E-011
  0.30250000000000010          1.0224888305420643E-011
  0.30400000000000005          2.4493577226090913E-012
  0.30550000000000010         -6.8509473781463132E-012
  0.30700000000000005         -1.6837246932237219E-011
  0.30850000000000011         -2.6493644944102522E-011
  0.31000000000000005         -3.4708899221543273E-011
  0.31150000000000011         -4.0372420833231096E-011
  0.31300000000000006         -4.2478460577325391E-011
  0.31450000000000000         -4.0232139526601273E-011
  0.31600000000000006         -3.3151087678124240E-011
  0.31750000000000000         -2.1155946079567234E-011
  0.31900000000000006         -4.6425113776754795E-012
  0.32050000000000001          1.5472913954300069E-011
  0.32200000000000006          3.7743971728850230E-011
  0.32350000000000001          6.0229897647363329E-011
  0.32500000000000007          8.0584575457366028E-011
  0.32650000000000001          9.6204658865885352E-011
  0.32800000000000007          1.0443722340987664E-010
  0.32950000000000002          1.0284044165241872E-010
  0.33100000000000007          8.9482665975722597E-011
  0.33250000000000002          6.3254956203644092E-011
  0.33400000000000007          2.4165811118182142E-011
  0.33550000000000002         -2.6420836087129770E-011
  0.33700000000000008         -8.5644208139853611E-011
  0.33850000000000002         -1.4913849981029293E-010
  0.34000000000000008         -2.1118550341842517E-010
  0.34150000000000003         -2.6504283233978716E-010
  0.34300000000000008         -3.0344132030582700E-010
  0.34450000000000003         -3.1922728342441542E-010
  0.34600000000000009         -3.0609716846325540E-010
  0.34750000000000003         -2.5936506355813314E-010
  0.34900000000000009         -1.7667764694058470E-010
  0.35050000000000003         -5.8595853609022467E-011
  0.35200000000000009          9.1043930379210312E-011
  0.35350000000000004          2.6505308325265196E-010
  0.35500000000000009          4.5314993798649595E-010
  0.35650000000000004          6.4257104772122547E-010
  0.35800000000000010          8.1902323929705301E-010
  0.35950000000000004          9.6792296774897137E-010
  0.36100000000000010          1.0758497899015827E-009
  0.36250000000000004          1.1321143370471919E-009
  0.36400000000000010          1.1303204636587434E-009
  0.36550000000000005          1.0697977569841261E-009
  0.36700000000000010          9.5676377539647912E-010
  0.36850000000000005          8.0512745440691939E-010
  0.37000000000000011          6.3683911339404531E-010
  0.37150000000000005          4.8171197677319336E-010
  0.37300000000000011          3.7670875732352095E-010
  0.37450000000000006          3.6461195905332952E-010
  0.37600000000000011          4.9229875488245720E-010
  0.37750000000000006          8.0845404652920938E-010
  0.37900000000000000          1.3609002476011632E-009
  0.38050000000000006          2.1936454149885978E-009
  0.38200000000000001          3.3437936066563791E-009
  0.38350000000000006          4.8382946078587267E-009
  0.38500000000000001          6.6907721564177101E-009
  0.38650000000000007          8.8982212341689276E-009
  0.38800000000000001          1.1438446553042283E-008
  0.38950000000000007          1.4267355048724629E-008
  0.39100000000000001          1.7316425875398179E-008
  0.39250000000000007          2.0491227971528272E-008
  0.39400000000000002          2.3669461991073150E-008
  0.39550000000000007          2.6700236310377896E-008
  0.39700000000000002          2.9402883740247716E-008
  0.39850000000000008          3.1565543476797178E-008
  0.40000000000000002          3.2943096983691261E-008
  0.40150000000000008          3.3256142325246493E-008
  0.40300000000000002          3.2186343315405683E-008
  0.40450000000000008          2.9372992715237696E-008
  0.40600000000000003          2.4405351850103113E-008
  0.40750000000000008          1.6814125227507608E-008
  0.40900000000000003          6.0586531649226089E-009
  0.41050000000000009         -8.4889205926614805E-009
  0.41200000000000003         -2.7561303559929785E-008
  0.41350000000000009         -5.2019601942362952E-008
  0.41500000000000004         -8.2885218164496274E-008
  0.41650000000000009         -1.2136944228028841E-007
  0.41800000000000004         -1.6891192991545114E-007
  0.41950000000000010         -2.2723004919874355E-007
  0.42100000000000004         -2.9837306993004006E-007
  0.42250000000000010         -3.8477748061086677E-007
  0.42400000000000004         -4.8934705251882306E-007
  0.42550000000000010         -6.1551872961028209E-007
  0.42700000000000005         -7.6735379652968883E-007
  0.42850000000000010         -9.4963877816641830E-007
  0.43000000000000005         -1.1679840503044965E-006
  0.43150000000000011         -1.4289474267483374E-006
  0.43300000000000005         -1.7401713737930101E-006
  0.43450000000000011         -2.1105026562687981E-006
  0.43600000000000005         -2.5502010037740019E-006
  0.43750000000000011         -3.0710431062771773E-006
  0.43900000000000006         -3.6865254893377516E-006
  0.44050000000000000         -4.4120974269475159E-006
  0.44200000000000006         -5.2653271054686622E-006
  0.44350000000000001         -6.2661928127878753E-006
  0.44500000000000006         -7.4372736676803244E-006
  0.44650000000000001         -8.8040450091159605E-006
  0.44800000000000006         -1.0395291040023561E-005
  0.44950000000000001         -1.2243322468716617E-005
  0.45100000000000007         -1.4384414935804618E-005
  0.45250000000000001         -1.6859036954304426E-005
  0.45400000000000007         -1.9712468523122402E-005
  0.45550000000000002         -2.2995200214899245E-005
  0.45700000000000007         -2.6763329025503675E-005
  0.45850000000000002         -3.1079015469003403E-005
  0.46000000000000008         -3.6011147296371434E-005
  0.46150000000000002         -4.1635465658400989E-005
  0.46300000000000008         -4.8035549306281054E-005
  0.46450000000000002         -5.5302859302935360E-005
  0.46600000000000008         -6.3537506712649174E-005
  0.46750000000000003         -7.2848146812707639E-005
  0.46900000000000008         -8.3353335280788091E-005
  0.47050000000000003         -9.5181327492892568E-005
  0.47200000000000009         -1.0847001114627113E-004
  0.47350000000000003         -1.2336802267032092E-004
  0.47500000000000009         -1.4003380304826538E-004
  0.47650000000000003         -1.5863710376550074E-004
  0.47800000000000009         -1.7935801421640834E-004
  0.47950000000000004         -2.0238690955588562E-004
  0.48100000000000009         -2.2792456170127621E-004
  0.48250000000000004         -2.5618126619097125E-004
  0.48400000000000010         -2.8737784457274736E-004
  0.48550000000000004         -3.2174307710972159E-004
  0.48700000000000010         -3.5951439303500256E-004
  0.48850000000000005         -4.0093543342053541E-004
  0.49000000000000010         -4.4625623014022580E-004
  0.49150000000000005         -4.9573011237327540E-004
  0.49300000000000010         -5.4961430725552259E-004
  0.49450000000000005         -6.0816557704866962E-004
  0.49600000000000011         -6.7163837538292224E-004
  0.49750000000000005         -7.4028618011986059E-004
  0.49900000000000011         -8.1435098694364501E-004
  0.50050000000000006         -8.9406363361626585E-004
  0.50200000000000011         -9.7964594980720372E-004
  0.50350000000000006         -1.0712981480394939E-003
  0.50500000000000000         -1.1691999627145323E-003
  0.50650000000000006         -1.2735081669827553E-003
  0.50800000000000001         -1.3843469186224193E-003
  0.50950000000000006         -1.5018066794490583E-003
  0.51100000000000001         -1.6259402255235931E-003
  0.51250000000000007         -1.7567492446821870E-003
  0.51400000000000001         -1.8941982317966163E-003
  0.51550000000000007         -2.0381884753937814E-003
  0.51700000000000002         -2.1885702408245252E-003
  0.51850000000000007         -2.3451296578491229E-003
  0.52000000000000002         -2.5075874967379680E-003
  0.52150000000000007         -2.6755949993261009E-003
  0.52300000000000002         -2.8487245887476725E-003
  0.52450000000000008         -3.0264737107664761E-003
  0.52600000000000002         -3.2082675761545129E-003
  0.52750000000000008         -3.3934423360199033E-003
  0.52900000000000003         -3.5812598079477081E-003
  0.53050000000000008         -3.7708866763660636E-003
  0.53200000000000003         -3.9614101839849022E-003
  0.53350000000000009         -4.1518370545907800E-003
  0.53500000000000003         -4.3410906256864407E-003
  0.53650000000000009         -4.5280342871032650E-003
  0.53800000000000003         -4.7114429138448138E-003
  0.53950000000000009         -4.8900327237481091E-003
  0.54100000000000004         -5.0624433028739584E-003
  0.54250000000000009         -5.2272708297120933E-003
  0.54400000000000004         -5.3830791075985679E-003
  0.54550000000000010         -5.5283903164204118E-003
  0.54700000000000004         -5.6616881550204520E-003
  0.54850000000000010         -5.7814751466809125E-003
  0.55000000000000004         -5.8862230035386610E-003
  0.55150000000000010         -5.9744229199460847E-003
  0.55300000000000005         -6.0446196761096901E-003
  0.55450000000000010         -6.0953895461890442E-003
  0.55600000000000005         -6.1253759363326700E-003
  0.55750000000000011         -6.1332597059923812E-003
  0.55900000000000005         -6.1178679381802669E-003
  0.56050000000000011         -6.0780800087993879E-003
  0.56200000000000006         -6.0129339655106166E-003
  0.56350000000000011         -5.9215922350677108E-003
  0.56500000000000006         -5.8033587884780127E-003
  0.56650000000000011         -5.6577137951597314E-003
  0.56800000000000006         -5.4843225030385837E-003
  0.56950000000000001         -5.2830365731895770E-003
  0.57100000000000006         -5.0539111296602542E-003
  0.57250000000000001         -4.7971525048762084E-003
  0.57400000000000007         -4.5132242137412614E-003
  0.57550000000000001         -4.2027896802483639E-003
  0.57700000000000007         -3.8667465057005915E-003
  0.57850000000000001         -3.5061707458236948E-003
  0.58000000000000007         -3.1224192506530057E-003
  0.58150000000000002         -2.7170062455784474E-003
  0.58300000000000007         -2.2916973040850892E-003
  0.58450000000000002         -1.8483879990927547E-003
  0.58600000000000008         -1.3892486022496833E-003
  0.58750000000000002         -9.1654671965993653E-004
  0.58900000000000008         -4.3271927588308529E-004
  0.59050000000000002          5.9670485109633402E-005
  0.59200000000000008          5.5789748533945777E-004
  0.59350000000000003          1.0591621423674674E-003
  0.59500000000000008          1.5605888364947787E-003
  0.59650000000000003          2.0591993822871653E-003
  0.59800000000000009          2.5520069499649230E-003
  0.59950000000000003          3.0359864355807330E-003
  0.60100000000000009          3.5081484041445902E-003
  0.60250000000000004          3.9655112083324603E-003
  0.60400000000000009          4.4051695495721313E-003
  0.60550000000000004          4.8242993863250368E-003
  0.60700000000000010          5.2201547610846617E-003
  0.60850000000000004          5.5901146472034126E-003
  0.61000000000000010          5.9316625222517487E-003
  0.61150000000000004          6.2424467667714142E-003
  0.61300000000000010          6.5202520249190649E-003
  0.61450000000000005          6.7630316231415341E-003
  0.61600000000000010          6.9689337016564006E-003