 -0.19999999999999998          0.0000000000000000     
 -0.19849999999999998          0.0000000000000000     
 -0.19699999999999998          0.0000000000000000     
 -0.19549999999999998          0.0000000000000000     
 -0.19399999999999998          0.0000000000000000     
 -0.19249999999999998          0.0000000000000000     
 -0.19099999999999998          0.0000000000000000     
 -0.18949999999999997          0.0000000000000000     
 -0.18799999999999997          0.0000000000000000     
 -0.18649999999999997          0.0000000000000000     
 -0.18500000000000000          0.0000000000000000     
 -0.18350000000000000          0.0000000000000000     
 -0.18200000000000000          0.0000000000000000     
 -0.18049999999999999          0.0000000000000000     
 -0.17899999999999999          0.0000000000000000     
 -0.17749999999999999          0.0000000000000000     
 -0.17599999999999999          0.0000000000000000     
 -0.17449999999999999          0.0000000000000000     
 -0.17299999999999999          0.0000000000000000     
 -0.17149999999999999          0.0000000000000000     
 -0.16999999999999998          0.0000000000000000     
 -0.16849999999999998          0.0000000000000000     
 -0.16699999999999998          0.0000000000000000     
 -0.16549999999999998          7.2305379604295934E-054
 -0.16399999999999998         -1.0437717718242238E-052
 -0.16249999999999998          1.1275977884576273E-052
 -0.16099999999999998          2.7632187157825714E-051
 -0.15949999999999998          9.8516497905839261E-051
 -0.15799999999999997          2.7331619393970630E-040
 -0.15649999999999997          4.2283835085423940E-038
 -0.15499999999999997          1.1733217293386648E-037
 -0.15349999999999997          7.6815265133425794E-038
 -0.15199999999999997         -5.5811556768190187E-037
 -0.15049999999999997         -2.4750450597719155E-036
 -0.14899999999999997         -5.3487986009821628E-036
 -0.14749999999999999         -4.6286106623920792E-036
 -0.14599999999999999          1.2288736012288159E-035
 -0.14449999999999999          6.2419052151573125E-035
 -0.14299999999999999          1.4003047738198801E-034
 -0.14149999999999999          1.5547206774210448E-034
 -0.13999999999999999         -1.2463893439119365E-034
 -0.13849999999999998         -1.0021192939447664E-033
 -0.13699999999999998         -2.4197341936300622E-033
 -0.13549999999999998         -3.1032654296744468E-033
 -0.13399999999999998          1.6778317133506018E-034
 -0.13249999999999998          1.1487979767670721E-032
 -0.13099999999999998          3.0637382301286419E-032
 -0.12949999999999998          4.3476629861349609E-032
 -0.12799999999999997          1.4517154077236885E-032
 -0.12650000000000000         -1.0140694281293788E-031
 -0.12499999999999999         -3.0760585846876617E-031
 -0.12349999999999998         -4.7490774559922090E-031
 -0.12199999999999998         -2.7448572736897800E-031
 -0.12049999999999998          7.2035858212852306E-031
 -0.11899999999999998          2.5986442623031451E-030
 -0.11749999999999998          4.3623505523452880E-030
 -0.11599999999999998          3.3612324878334956E-030
 -0.11449999999999998         -3.9903423098315400E-030
 -0.11299999999999998         -1.9012284443846184E-029
 -0.11149999999999999         -3.5198446382859485E-029
 -0.10999999999999999         -3.3695385346052033E-029
 -0.10849999999999999          1.2771312008844804E-029
 -0.10699999999999998          1.1930947156702880E-028
 -0.10549999999999998          2.5152115130355291E-028
 -0.10399999999999998          2.9140889855731267E-028
 -0.10249999999999998          5.1563064160175758E-029
 -0.10099999999999998         -6.0978728729309957E-028
  -9.9499999999999977E-002    -1.5626547513006154E-027
  -9.7999999999999976E-002    -2.1687551032784698E-027
  -9.6499999999999975E-002    -1.2807423417027939E-027
  -9.4999999999999987E-002     2.2109321924762710E-027
  -9.3499999999999986E-002     8.1565687895279159E-027
  -9.1999999999999985E-002     1.3672304838365405E-026
  -9.0499999999999983E-002     1.2612314541266868E-026
  -8.8999999999999982E-002    -2.3242644885495046E-027
  -8.7499999999999981E-002    -3.3799151667821262E-026
  -8.5999999999999979E-002    -7.1705069067193659E-026
  -8.4499999999999978E-002    -8.7851021798920947E-026
  -8.2999999999999977E-002    -4.1680074714985817E-026
  -8.1499999999999975E-002     9.6125811750015913E-026
  -7.9999999999999988E-002     3.0449017587145256E-025
  -7.8499999999999986E-002     4.7622501226377704E-025
  -7.6999999999999985E-002     4.2130542183105949E-025
  -7.5499999999999984E-002    -5.3785305550255712E-026
  -7.3999999999999982E-002    -9.8315645708266173E-025
  -7.2499999999999981E-002    -2.0523997332066816E-024
  -7.0999999999999980E-002    -2.5180767760024339E-024
  -6.9499999999999978E-002    -1.4064967483521143E-024
  -6.7999999999999977E-002     1.9113002488086995E-024
  -6.6499999999999976E-002     6.8918790157248041E-024
  -6.4999999999999974E-002     1.1177851520507806E-023
  -6.3499999999999973E-002     1.0817644057455181E-023
  -6.1999999999999972E-002     1.9227975346128707E-024
  -6.0499999999999970E-002    -1.6297172627943382E-023
  -5.8999999999999969E-002    -3.8298015304855805E-023
  -5.7499999999999968E-002    -5.1054892157808031E-023
  -5.5999999999999966E-002    -3.7562931834757124E-023
  -5.4499999999999993E-002     1.3918006977389972E-023
  -5.2999999999999992E-002     9.7179325305814517E-023
  -5.1499999999999990E-002     1.7852932540648910E-022
  -4.9999999999999989E-002     1.9966215897532345E-022
  -4.8499999999999988E-002     1.0010444843516010E-022
  -4.6999999999999986E-002    -1.4231166253021677E-022
  -4.5499999999999985E-002    -4.6832208426148090E-022
  -4.3999999999999984E-002    -7.1948059622774629E-022
  -4.2499999999999982E-002    -6.7562075365109113E-022
  -4.0999999999999981E-002    -1.5976682662264425E-022
  -3.9499999999999980E-002     8.1496452561354018E-022
  -3.7999999999999978E-002     1.9270047618701597E-021
  -3.6499999999999977E-002     2.5536442515028880E-021
  -3.4999999999999976E-002     1.9796819101449167E-021
  -3.3499999999999974E-002    -2.0192368607232822E-022
  -3.1999999999999973E-002    -3.6378559640938808E-021
  -3.0499999999999972E-002    -6.9699258410292649E-021
  -2.8999999999999970E-002    -8.0790669598660312E-021
  -2.7499999999999969E-002    -4.9523837714218277E-021
  -2.5999999999999968E-002     3.0089227037298306E-021
  -2.4499999999999966E-002     1.3804475908202815E-020
  -2.2999999999999993E-002     2.2576869216119777E-020
  -2.1499999999999991E-002     2.2956255425654720E-020
  -1.9999999999999990E-002     1.0063720190045265E-020
  -1.8499999999999989E-002    -1.5755868440310983E-020
  -1.6999999999999987E-002    -4.6338479886857598E-020
  -1.5499999999999986E-002    -6.6399408316833858E-020
  -1.3999999999999985E-002    -5.8815315660314985E-020
  -1.2499999999999983E-002    -1.3697573356711715E-020
  -1.0999999999999982E-002     6.2185414043099844E-020
  -9.4999999999999807E-003     1.4099063381951585E-019
  -7.9999999999999793E-003     1.7942086438836150E-019
  -6.4999999999999780E-003     1.3598556111107730E-019
  -4.9999999999999767E-003    -4.4881506541792955E-021
  -3.4999999999999754E-003    -2.0973308774003693E-019
  -1.9999999999999740E-003    -3.9594037879961324E-019
  -4.9999999999997269E-004    -4.5084616027955793E-019
   1.0000000000000286E-003    -2.8334842712844808E-019
   2.5000000000000300E-003     1.1626958920766233E-019
   4.0000000000000313E-003     6.3441714118199811E-019
   5.5000000000000326E-003     1.0418807837866953E-018
   7.0000000000000340E-003     1.0683949880790695E-018
   8.5000000000000075E-003     5.3183808369832305E-019
   1.0000000000000009E-002    -5.2531822395441490E-019
   1.1500000000000010E-002    -1.7633186879249901E-018
   1.3000000000000012E-002    -2.6017945265363386E-018
   1.4500000000000013E-002    -2.4283031312515318E-018
   1.6000000000000014E-002    -9.0893536403678525E-019
   1.7500000000000016E-002     1.7228254989518387E-018
   1.9000000000000017E-002     4.5596670948948066E-018
   2.0500000000000018E-002     6.2231707199278236E-018
   2.2000000000000020E-002     5.3892022293835515E-018
   2.3500000000000021E-002     1.4870912122632528E-018
   2.5000000000000022E-002    -4.7211043580818504E-018
   2.6500000000000024E-002    -1.1020953267613318E-017
   2.8000000000000025E-002    -1.4313970476001091E-017
   2.9500000000000026E-002    -1.1835578488866607E-017
   3.1000000000000028E-002    -2.6445344768994065E-018
   3.2500000000000029E-002     1.1260825755926289E-017
   3.4000000000000030E-002     2.4878994470633971E-017
   3.5500000000000032E-002     3.1583632384473212E-017
   3.7000000000000033E-002     2.5756026188768178E-017
   3.8500000000000034E-002     5.8121258919763594E-018
   4.0000000000000008E-002    -2.3703055289219473E-017
   4.1500000000000009E-002    -5.2254024451825760E-017
   4.3000000000000010E-002    -6.6326553846615606E-017
   4.4500000000000012E-002    -5.4785292258219552E-017
   4.6000000000000013E-002    -1.4781030838959828E-017
   4.7500000000000014E-002     4.4386328554201426E-017
   4.9000000000000016E-002     1.0185658958299282E-016
   5.0500000000000017E-002     1.3129161550178783E-016
   5.2000000000000018E-002     1.1125149434132033E-016
   5.3500000000000020E-002     3.6342156718947501E-017
   5.5000000000000021E-002    -7.5740329512268886E-017
   5.6500000000000022E-002    -1.8563947978342395E-016
   5.8000000000000024E-002    -2.4397289152632542E-016
   5.9500000000000025E-002    -2.1075096027754749E-016
   6.1000000000000026E-002    -7.5967908071930232E-017
   6.2500000000000028E-002     1.2759909901892698E-016
   6.4000000000000029E-002     3.2731061736972211E-016
   6.5500000000000030E-002     4.3236167798655736E-016
   6.7000000000000032E-002     3.6974386914429848E-016
   6.8500000000000033E-002     1.2232523141944484E-016
   7.0000000000000034E-002    -2.4745300049166309E-016
   7.1500000000000036E-002    -6.0302372405107400E-016
   7.3000000000000037E-002    -7.7430016465291506E-016
   7.4500000000000038E-002    -6.2557521848866603E-016
   7.6000000000000040E-002    -1.2842783888737659E-016
   7.7500000000000041E-002     5.9151439445400079E-016
   7.9000000000000042E-002     1.2629839876410897E-015
   8.0500000000000044E-002     1.5462632916058435E-015
   8.2000000000000045E-002     1.1667265254563588E-015
   8.3500000000000046E-002     6.3585551562049414E-017
   8.5000000000000048E-002    -1.5072581591977854E-015
   8.6500000000000049E-002    -2.9772952858735374E-015
   8.8000000000000050E-002    -3.6110823052835757E-015
   8.9499999999999996E-002    -2.7782157089608958E-015
   9.0999999999999998E-002    -2.7630079342300880E-016
   9.2499999999999999E-002     3.4183593320858180E-015
   9.4000000000000000E-002     7.1072418803022429E-015
   9.5500000000000002E-002     9.1261962963579978E-015
   9.7000000000000003E-002     7.8991253571627161E-015
   9.8500000000000004E-002     2.6576733280652120E-015
  0.10000000000000001         -5.9213409868179385E-015
  0.10150000000000001         -1.5462161713802264E-014
  0.10300000000000001         -2.2266007607532033E-014
  0.10450000000000001         -2.2384148730931942E-014
  0.10600000000000001         -1.3186330978928859E-014
  0.10750000000000001          5.0559386473280067E-015
  0.10900000000000001          2.8226291712807048E-014
  0.11050000000000001          4.8677176913768886E-014
  0.11200000000000002          5.7108684774022122E-014
  0.11350000000000002          4.5779541313456849E-014
  0.11500000000000002          1.2189420495455546E-014
  0.11650000000000002         -3.8111415782145382E-014
  0.11800000000000002         -9.1019145576083027E-014
  0.11950000000000002         -1.2664566190272551E-013
  0.12100000000000002         -1.2531025280304183E-013
  0.12250000000000003         -7.5383976036337275E-014
  0.12400000000000003          1.9563377253179046E-014
  0.12550000000000003          1.3737873059377955E-013
  0.12700000000000003          2.4020431453743076E-013
  0.12850000000000003          2.8437857383340117E-013
  0.13000000000000003          2.3555401108495795E-013
  0.13150000000000003          8.4631889088693849E-014
  0.13300000000000003         -1.4147498650172894E-013
  0.13450000000000004         -3.7990030342745124E-013
  0.13600000000000004         -5.4568187351089559E-013
  0.13750000000000004         -5.5782197266472673E-013
  0.13900000000000004         -3.7078039494024044E-013
  0.14050000000000004         -7.5321363677706972E-016
  0.14200000000000004          4.6462468002032076E-013
  0.14350000000000004          8.8097920535714637E-013
  0.14500000000000005          1.0866787821441559E-012
  0.14650000000000005          9.5808846665674528E-013
  0.14800000000000005          4.6347310869193897E-013
  0.14950000000000005         -3.0495249125364207E-013
  0.15100000000000005         -1.1375660297816164E-012
  0.15250000000000000         -1.7582114544486606E-012
  0.15400000000000000         -1.9096040896877124E-012
  0.15550000000000000         -1.4484887278297523E-012
  0.15700000000000000         -4.1728750158544705E-013
  0.15850000000000000          9.3841965907727623E-013
  0.16000000000000000          2.2224050126361402E-012
  0.16150000000000000          3.0025294691020865E-012
  0.16300000000000001          2.9552149832533585E-012
  0.16450000000000001          1.9907939235596488E-012
  0.16600000000000001          3.1079111581409243E-013
  0.16750000000000001         -1.6327979383545869E-012
  0.16900000000000001         -3.2724480227528002E-012
  0.17050000000000001         -4.1131918322277451E-012
  0.17200000000000001         -3.9065311966395119E-012
  0.17350000000000002         -2.7402556402607171E-012
  0.17500000000000002         -1.0003435149664393E-012
  0.17650000000000002          7.9019112721719758E-013
  0.17800000000000002          2.1962591266246713E-012
  0.17950000000000002          3.0626663392710868E-012
  0.18100000000000002          3.5753202857968492E-012
  0.18250000000000002          4.1374460090850883E-012
  0.18400000000000002          5.0847780334638224E-012
  0.18550000000000003          6.3493324616176501E-012
  0.18700000000000003          7.2377501205226798E-012
  0.18850000000000003          6.4846629784583913E-012
  0.19000000000000003          2.6605558559803039E-012
  0.19150000000000003         -5.1272781788739406E-012
  0.19300000000000003         -1.6457686340821621E-011
  0.19450000000000003         -2.9067242586004987E-011
  0.19600000000000004         -3.8896757443308726E-011
  0.19750000000000004         -4.0905389306259930E-011
  0.19900000000000004         -3.0595014816995984E-011
  0.20050000000000004         -5.8910856606916132E-012
  0.20200000000000004          3.1212576216822988E-011
  0.20350000000000004          7.3912734147559878E-011
  0.20500000000000004          1.1127342214979443E-010
  0.20650000000000004          1.3045876919841697E-010
  0.20800000000000005          1.2015481749722553E-010
  0.20950000000000005          7.4334874370308015E-011
  0.21100000000000005         -4.7528608913041331E-012
  0.21250000000000005         -1.0543813786616198E-010
  0.21400000000000005         -2.0796162394435135E-010
  0.21550000000000005         -2.8823460546589587E-010
  0.21700000000000000         -3.2321559752880499E-010
  0.21850000000000000         -2.9652805451959990E-010
  0.22000000000000000         -2.0278423347276037E-010
  0.22150000000000000         -4.9418381760837947E-011
  0.22300000000000000          1.4441586340531832E-010
  0.22450000000000001          3.5140633577722091E-010
  0.22600000000000001          5.4086630884052710E-010
  0.22750000000000001          6.8321174917210894E-010
  0.22900000000000001          7.5291892339234242E-010
  0.23050000000000001          7.2958914836238370E-010
  0.23200000000000001          5.9780107028338024E-010
  0.23350000000000001          3.4724902749623682E-010
  0.23500000000000001         -2.5164666774307088E-011
  0.23650000000000002         -5.1030400562387362E-010
  0.23800000000000002         -1.0792890892674499E-009
  0.23950000000000002         -1.6756673403418436E-009
  0.24100000000000002         -2.2107744425706281E-009
  0.24250000000000002         -2.5661091363656586E-009
  0.24400000000000002         -2.6054639520561558E-009
  0.24550000000000002         -2.1971576712040272E-009
  0.24700000000000003         -1.2436085263633805E-009
  0.24850000000000003          2.8735947249172355E-010
  0.25000000000000000          2.3366358621736731E-009
  0.25150000000000006          4.7400453562960399E-009
  0.25300000000000000          7.2307114107619177E-009
  0.25450000000000006          9.4574149322554893E-009
  0.25600000000000001          1.1014282611027364E-008
  0.25750000000000006          1.1473754148326055E-008
  0.25900000000000001          1.0413690071590280E-008
  0.26050000000000006          7.4312676315087809E-009
  0.26200000000000001          2.1403794201314509E-009
  0.26350000000000007         -5.8455349854704018E-009
  0.26500000000000001         -1.6938898195139719E-008
  0.26650000000000007         -3.1603282683594961E-008
  0.26800000000000002         -5.0371383382743280E-008
  0.26950000000000007         -7.3852786723363792E-008
  0.27100000000000002         -1.0273435014237063E-007
  0.27250000000000008         -1.3778145571203743E-007
  0.27400000000000002         -1.7985117904148111E-007
  0.27550000000000008         -2.2992683546283987E-007
  0.27700000000000002         -2.8917920714361738E-007
  0.27850000000000008         -3.5905148219015191E-007
  0.28000000000000003         -4.4135828657768833E-007
  0.28149999999999997         -5.3838437563648922E-007
  0.28300000000000003         -6.5296936145932920E-007
  0.28449999999999998         -7.8856899835104353E-007
  0.28600000000000003         -9.4929331425380723E-007
  0.28749999999999998         -1.1399314181104674E-006
  0.28900000000000003         -1.3659784361111456E-006
  0.29049999999999998         -1.6336844870583456E-006
  0.29200000000000004         -1.9501404652584017E-006
  0.29349999999999998         -2.3234062609827978E-006
  0.29500000000000004         -2.7626792030537678E-006
  0.29649999999999999         -3.2784918349321859E-006
  0.29800000000000004         -3.8829211979783962E-006
  0.29949999999999999         -4.5898002795208020E-006
  0.30100000000000005         -5.4149220851049364E-006
  0.30250000000000010         -6.3762484273830356E-006
  0.30400000000000005         -7.4941256675890165E-006
  0.30550000000000010         -8.7915360164003779E-006
  0.30700000000000005         -1.0294380331533105E-005
  0.30850000000000011         -1.2031813129127538E-005
  0.31000000000000005         -1.4036609520982642E-005
  0.31150000000000011         -1.6345546020897706E-005
  0.31300000000000006         -1.8999794043842270E-005
  0.31450000000000000         -2.2045276863330544E-005
  0.31600000000000006         -2.5533023595917962E-005
  0.31750000000000000         -2.9519498450895850E-005
  0.31900000000000006         -3.4066937435595731E-005
  0.32050000000000001         -3.9243729582253278E-005
  0.32200000000000006         -4.5124815219454480E-005
  0.32350000000000001         -5.1792150618007400E-005
  0.32500000000000007         -5.9335213234305342E-005
  0.32650000000000001         -6.7851473457254628E-005
  0.32800000000000007         -7.7446857938494272E-005
  0.32950000000000002         -8.8236098287691381E-005
  0.33100000000000007         -1.0034299591621875E-004
  0.33250000000000002         -1.1390058233550157E-004
  0.33400000000000007         -1.2905112700710753E-004
  0.33550000000000002         -1.4594615723528240E-004
  0.33700000000000008         -1.6474629477387465E-004
  0.33850000000000002         -1.8562113891744563E-004
  0.34000000000000008         -2.0874902334464993E-004
  0.34150000000000003         -2.3431666882686126E-004
  0.34300000000000008         -2.6251873125639376E-004
  0.34450000000000003         -2.9355709894009197E-004
  0.34600000000000009         -3.2764000870114080E-004
  0.34750000000000003         -3.6498085714299199E-004
  0.34900000000000009         -4.0579670695285280E-004
  0.35050000000000003         -4.5030680286687404E-004
  0.35200000000000009         -4.9873057105681378E-004
  0.35350000000000004         -5.5128559704837004E-004
  0.35500000000000009         -6.0818544334835718E-004
  0.35650000000000004         -6.6963690408268235E-004
  0.35800000000000010         -7.3583738362539711E-004
  0.35950000000000004         -8.0697201941148813E-004
  0.36100000000000010         -8.8320999777450953E-004
  0.36250000000000004         -9.6470108783598988E-004
  0.36400000000000010         -1.0515718462294505E-003
  0.36550000000000005         -1.1439213546579115E-003
  0.36700000000000010         -1.2418170827744703E-003
  0.36850000000000005         -1.3452905084308363E-003
  0.37000000000000011         -1.4543330045802137E-003
  0.37150000000000005         -1.5688912887938172E-003
  0.37300000000000011         -1.6888629186891961E-003
  0.37450000000000006         -1.8140922002323982E-003
  0.37600000000000011         -1.9443657001507607E-003
  0.37750000000000006         -2.0794082959260229E-003
  0.37900000000000000         -2.2188788057476154E-003
  0.38050000000000006         -2.3623667602837078E-003
  0.38200000000000001         -2.5093898150192950E-003
  0.38350000000000006         -2.6593900868545476E-003
  0.38500000000000001         -2.8117332902743461E-003
  0.38650000000000007         -2.9657072294587950E-003
  0.38800000000000001         -3.1205209319338650E-003
  0.38950000000000007         -3.2753054287552557E-003
  0.39100000000000001         -3.4291150221823505E-003
  0.39250000000000007         -3.5809287396387926E-003
  0.39400000000000002         -3.7296541845716368E-003
  0.39550000000000007         -3.8741301706332644E-003
  0.39700000000000002         -4.0131327055568230E-003
  0.39850000000000008         -4.1453806748716661E-003
  0.40000000000000002         -4.2695436357176562E-003
  0.40150000000000008         -4.3842497199843081E-003
  0.40300000000000002         -4.4880937655203826E-003
  0.40450000000000008         -4.5796523982098653E-003
  0.40600000000000003         -4.6574911041466511E-003
  0.40750000000000008         -4.7201805402699278E-003
  0.40900000000000003         -4.7663077918855172E-003
  0.41050000000000009         -4.7944927405055588E-003
  0.41200000000000003         -4.8034006339319141E-003
  0.41350000000000009         -4.7917584060572617E-003
  0.41500000000000004         -4.7583709390376329E-003
  0.41650000000000009         -4.7021350166113534E-003
  0.41800000000000004         -4.6220541557250305E-003
  0.41950000000000010         -4.5172558347470193E-003
  0.42100000000000004         -4.3870039023221723E-003
  0.42250000000000010         -4.2307120232190631E-003
  0.42400000000000004         -4.0479593664055971E-003
  0.42550000000000010         -3.8384999612608413E-003
  0.42700000000000005         -3.6022753776460631E-003
  0.42850000000000010         -3.3394235603697274E-003
  0.43000000000000005         -3.0502875204784278E-003
  0.43150000000000011         -2.7354190380370767E-003
  0.43300000000000005         -2.3955845000222255E-003
  0.43450000000000011         -2.0317639390071019E-003
  0.43600000000000005         -1.6451520585052818E-003
  0.43750000000000011         -1.2371538790749302E-003
  0.43900000000000006         -8.0938017883859840E-004
  0.44050000000000000         -3.6363982273728977E-004
  0.44200000000000006          9.8069668890734019E-005
  0.44350000000000001          5.7357440727168164E-004
  0.44500000000000006          1.0605386919698865E-003
  0.44650000000000001          1.5564813313177332E-003
  0.44800000000000006          2.0587952079578991E-003
  0.44950000000000001          2.5647677832302232E-003
  0.45100000000000007          3.0716037816363663E-003
  0.45250000000000001          3.5764477236661326E-003
  0.45400000000000007          4.0764081784047087E-003
  0.45550000000000002          4.5685835932763857E-003
  0.45700000000000007          5.0500862496200014E-003
  0.45850000000000002          5.5180685809122273E-003
  0.46000000000000008          5.9697486661535962E-003
  0.46150000000000002          6.4024357243090777E-003
  0.46300000000000008          6.8135546749412490E-003
  0.46450000000000002          7.2006715283572309E-003
  0.46600000000000008          7.5615137523011317E-003
  0.46750000000000003          7.8939927876424017E-003
  0.46900000000000008          8.1962205524298837E-003
  0.47050000000000003          8.4665296672122459E-003
  0.47200000000000009          8.7034839336014129E-003
  0.47350000000000003          8.9058891297498655E-003
  0.47500000000000009          9.0728058304073451E-003
  0.47650000000000003          9.2035546245679157E-003
  0.47800000000000009          9.2977187646243187E-003
  0.47950000000000004          9.3551511519443277E-003
  0.48100000000000009          9.3759704004629067E-003
  0.48250000000000004          9.3605585175428798E-003
  0.48400000000000010          9.3095533416479685E-003
  0.48550000000000004          9.2238387489553524E-003
  0.48700000000000010          9.1045351721009884E-003
  0.48850000000000005          8.9529807889204491E-003
  0.49000000000000010          8.7707146217811238E-003
  0.49150000000000005          8.5594642524106195E-003
  0.49300000000000010          8.3211234168822350E-003
  0.49450000000000005          8.0577350570097284E-003
  0.49600000000000011          7.7714699532235075E-003
  0.49750000000000005          7.4646047296944417E-003
  0.49900000000000011          7.1395018735692182E-003
  0.50050000000000006          6.7985867942975476E-003
  0.50200000000000011          6.4443219538825860E-003
  0.50350000000000006          6.0791877901837377E-003
  0.50500000000000000          5.7056562450640141E-003
  0.50650000000000006          5.3261723551986800E-003
  0.50800000000000001          4.9431343312601331E-003
  0.50950000000000006          4.5588751409246118E-003
  0.51100000000000001          4.1756487478646544E-003
  0.51250000000000007          3.7956130898983828E-003
  0.51400000000000001          3.4208181390913265E-003
  0.51550000000000007          3.0531933704611848E-003
  0.51700000000000002          2.6945374707312304E-003
  0.51850000000000007          2.3465089634245304E-003
  0.52000000000000002          2.0106189669710124E-003
  0.52150000000000007          1.6882253577641848E-003
  0.52300000000000002          1.3805293189831452E-003
  0.52450000000000008          1.0885731753566058E-003
  0.52600000000000002          8.1324041180768996E-004
  0.52750000000000008          5.5525760280202138E-004
  0.52900000000000003          3.1519692277292839E-004
  0.53050000000000008          9.3480364602851687E-005
  0.53200000000000003         -1.0961514072811662E-004
  0.53350000000000009         -2.9395189222422541E-004
  0.53500000000000003         -4.5952478709232009E-004
  0.53650000000000009         -6.0645394948583996E-004
  0.53800000000000003         -7.3497678944841151E-004
  0.53950000000000009         -8.4543926605534715E-004
  0.54100000000000004         -9.3828698998274474E-004
  0.54250000000000009         -1.0140561146089625E-003
  0.54400000000000004         -1.0733634683555407E-003
  0.54550000000000010         -1.1168978726805012E-003
  0.54700000000000004         -1.1454102139226844E-003
  0.54850000000000010         -1.1597047005836854E-003
  0.55000000000000004         -1.1606308839084264E-003
  0.55150000000000010         -1.1490749472390168E-003
  0.55300000000000005         -1.1259527310968648E-003
  0.55450000000000010         -1.0922022748027281E-003
  0.55600000000000005         -1.0487773384469231E-003
  0.55750000000000011         -9.9663975888076520E-004
  0.55900000000000005         -9.3675388720009054E-004
  0.56050000000000011         -8.7007998528809390E-004
  0.56200000000000006         -7.9756943881913503E-004
  0.56350000000000011         -7.2016016930186806E-004
  0.56500000000000006         -6.3877309523819497E-004
  0.56650000000000011         -5.5430967174601678E-004
  0.56800000000000006         -4.6764907144076595E-004
  0.56950000000000001         -3.7964614524462257E-004
  0.57100000000000006         -2.9112922178266114E-004
  0.57250000000000001         -2.0289791156422808E-004
  0.57400000000000007         -1.1572119491811373E-004
  0.57550000000000001         -3.0335816951251074E-005
  0.57700000000000007          5.2555062909899357E-005
  0.57850000000000001          1.3228288443856674E-004
  0.58000000000000007          2.0821446703641859E-004
  0.58150000000000002          2.7975237500966089E-004
  0.58300000000000007          3.4633503045808616E-004
  0.58450000000000002          4.0743656331086535E-004
  0.58600000000000008          4.6256590794858840E-004
  0.58750000000000002          5.1126589850610221E-004
  0.58900000000000008          5.5311232539330499E-004
  0.59050000000000002          5.8771316406485937E-004
  0.59200000000000008          6.1470822039512690E-004
  0.59350000000000003          6.3376931719152159E-004
  0.59500000000000008          6.4460015634855341E-004
  0.59650000000000003          6.4693662140529742E-004
  0.59800000000000009          6.4054650482437520E-004
  0.59950000000000003          6.2522867698754678E-004
  0.60100000000000009          6.0081191321609945E-004
  0.60250000000000004          5.6715326901244745E-004
  0.60400000000000009          5.2413710261807033E-004
  0.60550000000000004          4.7167377715178730E-004
  0.60700000000000010          4.0969927232438529E-004
  0.60850000000000004          3.3817514667711476E-004
  0.61000000000000010          2.5708890248754427E-004
  0.61150000000000004          1.6645444395463178E-004
  0.61300000000000010          6.6312432941192213E-005
  0.61450000000000005         -4.3269405284180553E-005
  0.61600000000000010         -1.6219598044283297E-004