 -0.19999999999999998          0.0000000000000000     
 -0.19849999999999998          0.0000000000000000     
 -0.19699999999999998          0.0000000000000000     
 -0.19549999999999998          0.0000000000000000     
 -0.19399999999999998          0.0000000000000000     
 -0.19249999999999998          0.0000000000000000     
 -0.19099999999999998          0.0000000000000000     
 -0.18949999999999997          0.0000000000000000     
 -0.18799999999999997          0.0000000000000000     
 -0.18649999999999997          0.0000000000000000     
 -0.18500000000000000          0.0000000000000000     
 -0.18350000000000000          0.0000000000000000     
 -0.18200000000000000          0.0000000000000000     
 -0.18049999999999999          0.0000000000000000     
 -0.17899999999999999          0.0000000000000000     
 -0.17749999999999999          0.0000000000000000     
 -0.17599999999999999          0.0000000000000000     
 -0.17449999999999999          0.0000000000000000     
 -0.17299999999999999          0.0000000000000000     
 -0.17149999999999999          0.0000000000000000     
 -0.16999999999999998          0.0000000000000000     
 -0.16849999999999998          0.0000000000000000     
 -0.16699999999999998          0.0000000000000000     
 -0.16549999999999998          0.0000000000000000     
 -0.16399999999999998          0.0000000000000000     
 -0.16249999999999998          0.0000000000000000     
 -0.16099999999999998          0.0000000000000000     
 -0.15949999999999998          0.0000000000000000     
 -0.15799999999999997          0.0000000000000000     
 -0.15649999999999997          0.0000000000000000     
 -0.15499999999999997          0.0000000000000000     
 -0.15349999999999997          0.0000000000000000     
 -0.15199999999999997          0.0000000000000000     
 -0.15049999999999997          0.0000000000000000     
 -0.14899999999999997          0.0000000000000000     
 -0.14749999999999999          0.0000000000000000     
 -0.14599999999999999          0.0000000000000000     
 -0.14449999999999999          0.0000000000000000     
 -0.14299999999999999          0.0000000000000000     
 -0.14149999999999999          0.0000000000000000     
 -0.13999999999999999          0.0000000000000000     
 -0.13849999999999998          0.0000000000000000     
 -0.13699999999999998          0.0000000000000000     
 -0.13549999999999998          0.0000000000000000     
 -0.13399999999999998          0.0000000000000000     
 -0.13249999999999998          0.0000000000000000     
 -0.13099999999999998          0.0000000000000000     
 -0.12949999999999998          0.0000000000000000     
 -0.12799999999999997          0.0000000000000000     
 -0.12650000000000000          0.0000000000000000     
 -0.12499999999999999          0.0000000000000000     
 -0.12349999999999998          0.0000000000000000     
 -0.12199999999999998          0.0000000000000000     
 -0.12049999999999998          0.0000000000000000     
 -0.11899999999999998          0.0000000000000000     
 -0.11749999999999998          0.0000000000000000     
 -0.11599999999999998          0.0000000000000000     
 -0.11449999999999998          0.0000000000000000     
 -0.11299999999999998          0.0000000000000000     
 -0.11149999999999999          0.0000000000000000     
 -0.10999999999999999          0.0000000000000000     
 -0.10849999999999999          0.0000000000000000     
 -0.10699999999999998          0.0000000000000000     
 -0.10549999999999998          0.0000000000000000     
 -0.10399999999999998          0.0000000000000000     
 -0.10249999999999998          0.0000000000000000     
 -0.10099999999999998          0.0000000000000000     
  -9.9499999999999977E-002     0.0000000000000000     
  -9.7999999999999976E-002     0.0000000000000000     
  -9.6499999999999975E-002     0.0000000000000000     
  -9.4999999999999987E-002     0.0000000000000000     
  -9.3499999999999986E-002     0.0000000000000000     
  -9.1999999999999985E-002     0.0000000000000000     
  -9.0499999999999983E-002     0.0000000000000000     
  -8.8999999999999982E-002     0.0000000000000000     
  -8.7499999999999981E-002     0.0000000000000000     
  -8.5999999999999979E-002     0.0000000000000000     
  -8.4499999999999978E-002     0.0000000000000000     
  -8.2999999999999977E-002     0.0000000000000000     
  -8.1499999999999975E-002     0.0000000000000000     
  -7.9999999999999988E-002     0.0000000000000000     
  -7.8499999999999986E-002     0.0000000000000000     
  -7.6999999999999985E-002     0.0000000000000000     
  -7.5499999999999984E-002     0.0000000000000000     
  -7.3999999999999982E-002     0.0000000000000000     
  -7.2499999999999981E-002     0.0000000000000000     
  -7.0999999999999980E-002     0.0000000000000000     
  -6.9499999999999978E-002     0.0000000000000000     
  -6.7999999999999977E-002     0.0000000000000000     
  -6.6499999999999976E-002     0.0000000000000000     
  -6.4999999999999974E-002     0.0000000000000000     
  -6.3499999999999973E-002     0.0000000000000000     
  -6.1999999999999972E-002     0.0000000000000000     
  -6.0499999999999970E-002     0.0000000000000000     
  -5.8999999999999969E-002     0.0000000000000000     
  -5.7499999999999968E-002     0.0000000000000000     
  -5.5999999999999966E-002     0.0000000000000000     
  -5.4499999999999993E-002     0.0000000000000000     
  -5.2999999999999992E-002     0.0000000000000000     
  -5.1499999999999990E-002     0.0000000000000000     
  -4.9999999999999989E-002     0.0000000000000000     
  -4.8499999999999988E-002     0.0000000000000000     
  -4.6999999999999986E-002     0.0000000000000000     
  -4.5499999999999985E-002     0.0000000000000000     
  -4.3999999999999984E-002     0.0000000000000000     
  -4.2499999999999982E-002     0.0000000000000000     
  -4.0999999999999981E-002     0.0000000000000000     
  -3.9499999999999980E-002     0.0000000000000000     
  -3.7999999999999978E-002     0.0000000000000000     
  -3.6499999999999977E-002     0.0000000000000000     
  -3.4999999999999976E-002     0.0000000000000000     
  -3.3499999999999974E-002     0.0000000000000000     
  -3.1999999999999973E-002     0.0000000000000000     
  -3.0499999999999972E-002     0.0000000000000000     
  -2.8999999999999970E-002     0.0000000000000000     
  -2.7499999999999969E-002     0.0000000000000000     
  -2.5999999999999968E-002     0.0000000000000000     
  -2.4499999999999966E-002     0.0000000000000000     
  -2.2999999999999993E-002     0.0000000000000000     
  -2.1499999999999991E-002     0.0000000000000000     
  -1.9999999999999990E-002     0.0000000000000000     
  -1.8499999999999989E-002     0.0000000000000000     
  -1.6999999999999987E-002     0.0000000000000000     
  -1.5499999999999986E-002     0.0000000000000000     
  -1.3999999999999985E-002     0.0000000000000000     
  -1.2499999999999983E-002     0.0000000000000000     
  -1.0999999999999982E-002     0.0000000000000000     
  -9.4999999999999807E-003     0.0000000000000000     
  -7.9999999999999793E-003     0.0000000000000000     
  -6.4999999999999780E-003     0.0000000000000000     
  -4.9999999999999767E-003     0.0000000000000000     
  -3.4999999999999754E-003     0.0000000000000000     
  -1.9999999999999740E-003     0.0000000000000000     
  -4.9999999999997269E-004     0.0000000000000000     
   1.0000000000000286E-003     0.0000000000000000     
   2.5000000000000300E-003     0.0000000000000000     
   4.0000000000000313E-003     0.0000000000000000     
   5.5000000000000326E-003     0.0000000000000000     
   7.0000000000000340E-003     0.0000000000000000     
   8.5000000000000075E-003     0.0000000000000000     
   1.0000000000000009E-002     0.0000000000000000     
   1.1500000000000010E-002     0.0000000000000000     
   1.3000000000000012E-002     0.0000000000000000     
   1.4500000000000013E-002     0.0000000000000000     
   1.6000000000000014E-002     0.0000000000000000     
   1.7500000000000016E-002     0.0000000000000000     
   1.9000000000000017E-002     0.0000000000000000     
   2.0500000000000018E-002     0.0000000000000000     
   2.2000000000000020E-002     0.0000000000000000     
   2.3500000000000021E-002     0.0000000000000000     
   2.5000000000000022E-002     0.0000000000000000     
   2.6500000000000024E-002     0.0000000000000000     
   2.8000000000000025E-002     0.0000000000000000     
   2.9500000000000026E-002     0.0000000000000000     
   3.1000000000000028E-002     0.0000000000000000     
   3.2500000000000029E-002     0.0000000000000000     
   3.4000000000000030E-002     0.0000000000000000     
   3.5500000000000032E-002     0.0000000000000000     
   3.7000000000000033E-002     0.0000000000000000     
   3.8500000000000034E-002     0.0000000000000000     
   4.0000000000000008E-002     0.0000000000000000     
   4.1500000000000009E-002     0.0000000000000000     
   4.3000000000000010E-002    -3.0741253582134334E-040
   4.4500000000000012E-002    -3.9492746596229879E-040
   4.6000000000000013E-002    -3.1516199731792808E-040
   4.7500000000000014E-002     0.0000000000000000     
   4.9000000000000016E-002     4.3986860536734396E-040
   5.0500000000000017E-002     1.3064586953150822E-038
   5.2000000000000018E-002     1.7168275901339634E-038
   5.3500000000000020E-002     1.4506989262379650E-038
   5.5000000000000021E-002     0.0000000000000000     
   5.6500000000000022E-002    -1.5749875233914862E-038
   5.8000000000000024E-002    -3.6211043832703433E-038
   5.9500000000000025E-002    -4.8216974496466637E-038
   6.1000000000000026E-002    -4.1686890290755113E-038
   6.2500000000000028E-002    -3.9567794172705708E-040
   6.4000000000000029E-002     3.8790758741800733E-038
   6.5500000000000030E-002     9.4163821190102426E-038
   6.7000000000000032E-002     1.2947337825272749E-037
   6.8500000000000033E-002     1.1827197251804089E-037
   7.0000000000000034E-002     4.4673640316667926E-038
   7.1500000000000036E-002    -8.3795424255038516E-038
   7.3000000000000037E-002    -2.3056238180051515E-037
   7.4500000000000038E-002    -3.3381830312716666E-037
   7.6000000000000040E-002    -3.2567496779065485E-037
   7.7500000000000041E-002    -1.6153920923510013E-037
   7.9000000000000042E-002     1.4921434828861805E-037
   8.0500000000000044E-002     5.2514480755623293E-037
   8.2000000000000045E-002     8.2083230232093160E-037
   8.3500000000000046E-002     8.6778769326388591E-037
   8.5000000000000048E-002     5.4214134256369756E-037
   8.6500000000000049E-002    -1.6149712798625873E-037
   8.8000000000000050E-002    -1.0811968856175764E-036
   8.9499999999999996E-002    -1.8953675993363261E-036
   9.0999999999999998E-002    -2.2044495274544826E-036
   9.2499999999999999E-002    -1.6773700855574323E-036
   9.4000000000000000E-002    -2.2147598769196977E-037
   9.5500000000000002E-002     1.8902263728636096E-036
   9.7000000000000003E-002     4.0046374309265139E-036
   9.8500000000000004E-002     5.2318706736771418E-036
  0.10000000000000001          4.7381108429729182E-036
  0.10150000000000001          2.1132353513348591E-036
  0.10300000000000001         -2.3170994557929850E-036
  0.10450000000000001         -7.3824705033212284E-036
  0.10600000000000001         -1.1269644176405397E-035
  0.10750000000000001         -1.2046822944179669E-035
  0.10900000000000001         -8.3929339841483141E-036
  0.11050000000000001         -2.9858493969425870E-037
  0.11200000000000002          1.0546448807992039E-035
  0.11350000000000002          2.0914586924564247E-035
  0.11500000000000002          2.6829270983124177E-035
  0.11650000000000002          2.4834929748270102E-035
  0.11800000000000002          1.3383675210886866E-035
  0.11950000000000002         -6.1479391429199600E-036
  0.12100000000000002         -2.9257196253457329E-035
  0.12250000000000003         -4.9154096255093350E-035
  0.12400000000000003         -5.8525555442791766E-035
  0.12550000000000003         -5.1763703530576076E-035
  0.12700000000000003         -2.6982714437925554E-035
  0.12850000000000003          1.2833315271452761E-035
  0.13000000000000003          5.9945181125626781E-035
  0.13150000000000003          1.0321448474120429E-034
  0.13300000000000003          1.3028794905427971E-034
  0.13450000000000004          1.3001339777052425E-034
  0.13600000000000004          9.4612626868235313E-035
  0.13750000000000004          2.1499266678142844E-035
  0.13900000000000004         -8.4994861625435160E-035
  0.14050000000000004         -2.1165360092187504E-034
  0.14200000000000004         -3.3431858313278839E-034
  0.14350000000000004         -4.1689310785018940E-034
  0.14500000000000005         -4.1368859096641658E-034
  0.14650000000000005         -2.7789770528867762E-034
  0.14800000000000005          2.1988010004851417E-035
  0.14950000000000005          4.7894809976871056E-034
  0.15100000000000005          1.0231799684630555E-033
  0.15250000000000000          1.5075980880264617E-033
  0.15400000000000000          1.7168024201236735E-033
  0.15550000000000000          1.4113642852293081E-033
  0.15700000000000000          4.1060325992047738E-034
  0.15850000000000000         -1.2983954037105493E-033
  0.16000000000000000         -3.4567089476684390E-033
  0.16150000000000000         -5.4815888632718413E-033
  0.16300000000000001         -6.5180018857785831E-033
  0.16450000000000001         -5.6298361988735089E-033
  0.16600000000000001         -2.1281866797342878E-033
  0.16750000000000001          4.0236891865900821E-033
  0.16900000000000001          1.1851793308226382E-032
  0.17050000000000001          1.9226511702323732E-032
  0.17200000000000001          2.3097699404813070E-032
  0.17350000000000002          2.0208159812928856E-032
  0.17500000000000002          8.2441694364563604E-033
  0.17650000000000002         -1.2808846611359404E-032
  0.17800000000000002         -3.9528403926589737E-032
  0.17950000000000002         -6.4675386185514195E-032
  0.18100000000000002         -7.8078537922590421E-032
  0.18250000000000002         -6.9045560190365854E-032
  0.18400000000000002         -3.0109164700396392E-032
  0.18550000000000003          3.8672339414423081E-032
  0.18700000000000003          1.2620295708232127E-031
  0.18850000000000003          2.0928545480922311E-031
  0.19000000000000003          2.5551138881668771E-031
  0.19150000000000003          2.3083412929369804E-031
  0.19300000000000003          1.1117261136513120E-031
  0.19450000000000003         -1.0435549471948456E-031
  0.19600000000000004         -3.8261312385871548E-031
  0.19750000000000004         -6.5297720846459199E-031
  0.19900000000000004         -8.1568813989718096E-031
  0.20050000000000004         -7.6421319420595629E-031
  0.20200000000000004         -4.1981571670884777E-031
  0.20350000000000004          2.2853030093272264E-031
  0.20500000000000004          1.0905300114814143E-030
  0.20650000000000004          1.9616417839151637E-030
  0.20800000000000005          2.5441190599727871E-030
  0.20950000000000005          2.5091781905271411E-030
  0.21100000000000005          1.5963608783042378E-030
  0.21250000000000005         -2.6815201636085856E-031
  0.21400000000000005         -2.8664844117514846E-030
  0.21550000000000005         -5.6382670139127860E-030
  0.21700000000000000         -7.7237075359166448E-030
  0.21850000000000000         -8.1249482707917096E-030
  0.22000000000000000         -5.9807524730185787E-030
  0.22150000000000000         -9.1001201176787542E-031
  0.22300000000000000          6.6610426007968287E-030
  0.22450000000000001          1.5302028890050990E-029
  0.22600000000000001          2.2629269621549510E-029
  0.22750000000000001          2.5688028292720018E-029
  0.22900000000000001          2.1676054679214102E-029
  0.23050000000000001          8.9124266990906245E-030
  0.23200000000000001         -1.2160948588202103E-029
  0.23350000000000001         -3.8252061329088975E-029
  0.23500000000000001         -6.3106267114309823E-029
  0.23650000000000002         -7.8288133727581053E-029
  0.23800000000000002         -7.4965045872521444E-029
  0.23950000000000002         -4.6527688434293390E-029
  0.24100000000000002          8.4421298558458198E-030
  0.24250000000000002          8.3643802116186246E-029
  0.24400000000000002          1.6392517681135830E-028
  0.24550000000000002          2.2643735069732211E-028
  0.24700000000000003          2.4461074803373075E-028
  0.24850000000000003          1.9482912186980240E-028
  0.25000000000000000          6.4810827466041024E-029
  0.25150000000000006         -1.3818583878239500E-028
  0.25300000000000000         -3.8187697538032403E-028
  0.25450000000000006         -6.0887564079680206E-028
  0.25600000000000001         -7.4410769950038237E-028
  0.25750000000000006         -7.1035967634386326E-028
  0.25900000000000001         -4.5043028757404734E-028
  0.26050000000000006          4.8164153104428217E-029
  0.26200000000000001          7.3223237657829754E-028
  0.26350000000000007          1.4732430644451096E-027
  0.26500000000000001          2.0760019143421046E-027
  0.26650000000000007          2.3099973624559327E-027
  0.26800000000000002          1.9627937728768703E-027
  0.26950000000000007          9.0828364174048601E-028
  0.27100000000000002         -8.2426426720228411E-028
  0.27250000000000008         -2.9997828229658081E-027
  0.27400000000000002         -5.1667917052685309E-027
  0.27550000000000008         -6.7042032458890650E-027
  0.27700000000000002         -6.9333619404903909E-027
  0.27850000000000008         -5.2876686516408922E-027
  0.28000000000000003         -1.5133186536482590E-027
  0.28149999999999997          4.1434329039090956E-027
  0.28300000000000003          1.0819261159316762E-026
  0.28449999999999998          1.7044647203765242E-026
  0.28600000000000003          2.0925648913726473E-026
  0.28749999999999998          2.0508069413361602E-026
  0.28900000000000003          1.4289977223712348E-026
  0.29049999999999998          1.7963105894998480E-027
  0.29200000000000004         -1.5917724387359234E-026
  0.29349999999999998         -3.5995234093339290E-026
  0.29500000000000004         -5.3893018001824786E-026
  0.29649999999999999         -6.3989216315657706E-026
  0.29800000000000004         -6.0694736887118183E-026
  0.29949999999999999         -3.9950470154492883E-026
  0.30100000000000005         -8.5033752419355396E-028
  0.30250000000000010          5.2992515928472583E-026
  0.30400000000000005          1.1278307713845789E-025
  0.30550000000000010          1.6500169617788190E-025
  0.30700000000000005          1.9324959583737438E-025
  0.30850000000000011          1.8148378023097833E-025
  0.31000000000000005          1.1828597759298520E-025
  0.31150000000000011          1.4252429772769005E-027
  0.31300000000000006         -1.5835032378234449E-025
  0.31450000000000000         -3.3551971699587430E-025
  0.31600000000000006         -4.9112567819762506E-025
  0.31750000000000000         -5.7796446318610948E-025
  0.31900000000000006         -5.4962603220814571E-025
  0.32050000000000001         -3.7241883660984658E-025
  0.32200000000000006         -3.8175034420641784E-026
  0.32350000000000001          4.2494693906928180E-025
  0.32500000000000007          9.4700199446496719E-025
  0.32650000000000001          1.4192619778391424E-024
  0.32800000000000007          1.7077542980926402E-024
  0.32950000000000002          1.6775162937528156E-024
  0.33100000000000007          1.2251944844183026E-024
  0.33250000000000002          3.1483839958833296E-025
  0.33400000000000007         -9.9070481733473834E-025
  0.33550000000000002         -2.5117803053073044E-024
  0.33700000000000008         -3.9559742423249796E-024
  0.33850000000000002         -4.9504280712325720E-024
  0.34000000000000008         -5.1038930641843414E-024
  0.34150000000000003         -4.0934673097985219E-024
  0.34300000000000008         -1.7635094289352727E-024
  0.34450000000000003          1.7825692321757574E-024
  0.34600000000000009          6.1213767943317298E-024
  0.34750000000000003          1.0503511776043446E-023
  0.34900000000000009          1.3921316197703129E-023
  0.35050000000000003          1.5258143876317004E-023
  0.35200000000000009          1.3510591027680394E-023
  0.35350000000000004          8.0557436541798711E-024
  0.35500000000000009         -1.0834047608756889E-024
  0.35650000000000004         -1.3035324634617314E-023
  0.35800000000000010         -2.6005582288500995E-023
  0.35950000000000004         -3.7387463220611982E-023
  0.36100000000000010         -4.4090130679216697E-023
  0.36250000000000004         -4.3078178199075349E-023
  0.36400000000000010         -3.2067426481574598E-023
  0.36550000000000005         -1.0270553593885565E-023
  0.36700000000000010          2.0957180559343050E-023
  0.36850000000000005          5.7744813176121305E-023
  0.37000000000000011          9.3770016874617654E-023
  0.37150000000000005          1.2087951657339915E-022
  0.37300000000000011          1.3029867107039066E-022
  0.37450000000000006          1.1434529168058835E-022
  0.37600000000000011          6.8429244476240807E-023
  0.37750000000000006         -7.0072266971102432E-024
  0.37900000000000000         -1.0504138949293861E-022
  0.38050000000000006         -2.1176983693087937E-022
  0.38200000000000001         -3.0714301821815015E-022
  0.38350000000000006         -3.6735151975758255E-022
  0.38500000000000001         -3.6871726111823166E-022
  0.38650000000000007         -2.9271362565318134E-022
  0.38800000000000001         -1.3139317237012534E-022
  0.38950000000000007          1.0778883107427976E-022
  0.39100000000000001          3.9893086851369614E-022
  0.39250000000000007          6.9756481883543325E-022
  0.39400000000000002          9.4432385428198077E-022
  0.39550000000000007          1.0727324191602928E-021
  0.39700000000000002          1.0207035106546055E-021
  0.39850000000000008          7.4446124656669851E-022
  0.40000000000000002          2.3275409607547095E-022
  0.40150000000000008         -4.8142394284112163E-022
  0.40300000000000002         -1.3146595041773190E-021
  0.40450000000000008         -2.1352794436912129E-021
  0.40600000000000003         -2.7757386656147813E-021
  0.40750000000000008         -3.0556151028020240E-021
  0.40900000000000003         -2.8136036111256458E-021
  0.41050000000000009         -1.9446941294052441E-021
  0.41200000000000003         -4.3666601579261213E-022
  0.41350000000000009          1.6013973068705059E-021
  0.41500000000000004          3.9262901805038657E-021
  0.41650000000000009          6.1702891601832838E-021
  0.41800000000000004          7.8773634466933420E-021
  0.41950000000000010          8.5662046087272575E-021
  0.42100000000000004          7.8151815300817073E-021
  0.42250000000000010          5.3589147726637007E-021
  0.42400000000000004          1.1812570582912129E-021
  0.42550000000000010         -4.4137995585762311E-021
  0.42700000000000005         -1.0772373886442594E-020
  0.42850000000000010         -1.6918411312019337E-020
  0.43000000000000005         -2.1648654195172024E-020
  0.43150000000000011         -2.3694662816468814E-020
  0.43300000000000005         -2.1939281753702864E-020
  0.43450000000000011         -1.5661758607135154E-020
  0.43600000000000005         -4.7740553103785857E-021
  0.43750000000000011          9.9968823940806681E-021
  0.43900000000000006          2.7027519250856828E-020
  0.44050000000000000          4.3856797811656917E-020
  0.44200000000000006          5.7410402447593818E-020
  0.44350000000000001          6.4391321608915579E-020
  0.44500000000000006          6.1808324308213940E-020
  0.44650000000000001          4.7582934642675099E-020
  0.44800000000000006          2.1147270700993781E-020
  0.44950000000000001         -1.6074334480385448E-020
  0.45100000000000007         -6.0411809533280283E-020
  0.45250000000000001         -1.0602304270259592E-019
  0.45400000000000007         -1.4536037898592062E-019
  0.45550000000000002         -1.7004338326509383E-019
  0.45700000000000007         -1.7208498518864533E-019
  0.45850000000000002         -1.4534587437020495E-019
  0.46000000000000008         -8.7024396801852938E-020
  0.46150000000000002          1.0603728534057158E-021
  0.46300000000000008          1.1165511721156632E-019
  0.46450000000000002          2.3197211185404659E-019
  0.46600000000000008          3.4448221156169970E-019
  0.46750000000000003          4.2867371229821120E-019
  0.46900000000000008          4.6370731391693668E-019
  0.47050000000000003          4.3173634703176682E-019
  0.47200000000000009          3.2150213235890658E-019
  0.47350000000000003          1.3168677148391583E-019
  0.47500000000000009         -1.2656840154090391E-019
  0.47650000000000003         -4.2856251687488232E-019
  0.47800000000000009         -7.3683777209432732E-019
  0.47950000000000004         -1.0041704365012151E-018
  0.48100000000000009         -1.1787539108014018E-018
  0.48250000000000004         -1.2112363514765912E-018
  0.48400000000000010         -1.0629182698743329E-018
  0.48550000000000004         -7.1409498401167470E-019
  0.48700000000000010         -1.7129922674161850E-019
  0.48850000000000005          5.2788661639473689E-019
  0.49000000000000010          1.3136777983972350E-018
  0.49150000000000005          2.0875224235476760E-018
  0.49300000000000010          2.7305519550602978E-018
  0.49450000000000005          3.1168155582195325E-018
  0.49600000000000011          3.1303226548427715E-018
  0.49750000000000005          2.6841679748265450E-018
  0.49900000000000011          1.7393807167987226E-018
  0.50050000000000006          3.2073367956610331E-019
  0.50200000000000011         -1.4733517999849048E-018
  0.50350000000000006         -3.4693615131486127E-018
  0.50500000000000000         -5.4275569469153739E-018
  0.50650000000000006         -7.0619015739970382E-018
  0.50800000000000001         -8.0704083046320020E-018
  0.50950000000000006         -8.1737144123999699E-018
  0.51100000000000001         -7.1581619814917387E-018
  0.51250000000000007         -4.9184010170041074E-018
  0.51400000000000001         -1.4936935879617920E-018
  0.51550000000000007          2.9081034006492569E-018
  0.51700000000000002          7.9043125483483046E-018
  0.51850000000000007          1.2953063729218428E-017
  0.52000000000000002          1.7392731128616653E-017
  0.52150000000000007          2.0504398544824881E-017
  0.52300000000000002          2.1593554997120434E-017
  0.52450000000000008          2.0084101508482302E-017
  0.52600000000000002          1.5615080591497595E-017
  0.52750000000000008          8.1285453562257132E-018
  0.52900000000000003         -2.0638114902565713E-018
  0.53050000000000008         -1.4247161943393304E-017
  0.53200000000000003         -2.7313067014682580E-017
  0.53350000000000009         -3.9818397685991342E-017
  0.53500000000000003         -5.0095251880054991E-017
  0.53650000000000009         -5.6407860669771719E-017
  0.53800000000000003         -5.7146263377378922E-017
  0.53950000000000009         -5.1040885564582931E-017
  0.54100000000000004         -3.7377009515887660E-017
  0.54250000000000009         -1.6184937299567858E-017
  0.54400000000000004          1.1619648661626329E-017
  0.54550000000000010          4.4169331168457108E-017
  0.54700000000000004          7.8672612618786406E-017
  0.54850000000000010          1.1154878728315479E-016
  0.55000000000000004          1.3867408824794740E-016
  0.55150000000000010          1.5573197423662168E-016
  0.55300000000000005          1.5864884768607578E-016
  0.55450000000000010          1.4408419828396334E-016
  0.55600000000000005          1.0993398182786517E-016
  0.55750000000000011          5.5797791958846687E-017
  0.55900000000000005         -1.6644413209810425E-017
  0.56050000000000011         -1.0339991838322791E-016
  0.56200000000000006         -1.9812447582401027E-016
  0.56350000000000011         -2.9231553999652625E-016
  0.56500000000000006         -3.7576087455808136E-016
  0.56650000000000011         -4.3724420598269410E-016
  0.56800000000000006         -4.6548688222709166E-016
  0.56950000000000001         -4.5027774347169037E-016
  0.57100000000000006         -3.8371698096579605E-016
  0.57250000000000001         -2.6147664479179513E-016
  0.57400000000000007         -8.3960768511773778E-017
  0.57550000000000001          1.4276474882416210E-016
  0.57700000000000007          4.0640363583989867E-016
  0.57850000000000001          6.8834613207626212E-016
  0.58000000000000007          9.6417299625388701E-016
  0.58150000000000002          1.2048146907184629E-015
  0.58300000000000007          1.3783868816590495E-015
  0.58450000000000002          1.4526649442844082E-015
  0.58600000000000008          1.3980979136474277E-015
  0.58750000000000002          1.1911879169381146E-015
  0.58900000000000008          8.1800169485078447E-016
  0.59050000000000002          2.7751431226115709E-016
  0.59200000000000008         -4.1555212708072953E-016
  0.59350000000000003         -1.2287575103500936E-015
  0.59500000000000008         -2.1111961385463356E-015
  0.59650000000000003         -2.9942870636404544E-015
  0.59800000000000009         -3.7943491149388033E-015
  0.59950000000000003         -4.4170834083246091E-015
  0.60100000000000009         -4.7639534109248864E-015
  0.60250000000000004         -4.7402782955411926E-015
  0.60400000000000009         -4.2646546323903759E-015
  0.60550000000000004         -3.2791510025617302E-015
  0.60700000000000010         -1.7595166772208283E-015
  0.60850000000000004          2.7548883238086561E-016
  0.61000000000000010          2.7566398393143732E-015
  0.61150000000000004          5.5596932472833481E-015
  0.61300000000000010          8.5047140626736154E-015
  0.61450000000000005          1.1360109089283589E-014
  0.61600000000000010          1.3851953443081579E-014