 -0.19999999999999998          0.0000000000000000     
 -0.19849999999999998          0.0000000000000000     
 -0.19699999999999998          0.0000000000000000     
 -0.19549999999999998          0.0000000000000000     
 -0.19399999999999998          0.0000000000000000     
 -0.19249999999999998          0.0000000000000000     
 -0.19099999999999998          0.0000000000000000     
 -0.18949999999999997          0.0000000000000000     
 -0.18799999999999997          0.0000000000000000     
 -0.18649999999999997          0.0000000000000000     
 -0.18500000000000000          0.0000000000000000     
 -0.18350000000000000          0.0000000000000000     
 -0.18200000000000000          0.0000000000000000     
 -0.18049999999999999          0.0000000000000000     
 -0.17899999999999999          0.0000000000000000     
 -0.17749999999999999          0.0000000000000000     
 -0.17599999999999999          0.0000000000000000     
 -0.17449999999999999          0.0000000000000000     
 -0.17299999999999999          0.0000000000000000     
 -0.17149999999999999          0.0000000000000000     
 -0.16999999999999998          0.0000000000000000     
 -0.16849999999999998          0.0000000000000000     
 -0.16699999999999998          0.0000000000000000     
 -0.16549999999999998          0.0000000000000000     
 -0.16399999999999998          0.0000000000000000     
 -0.16249999999999998          0.0000000000000000     
 -0.16099999999999998          0.0000000000000000     
 -0.15949999999999998          0.0000000000000000     
 -0.15799999999999997          0.0000000000000000     
 -0.15649999999999997          0.0000000000000000     
 -0.15499999999999997          0.0000000000000000     
 -0.15349999999999997          0.0000000000000000     
 -0.15199999999999997          0.0000000000000000     
 -0.15049999999999997          0.0000000000000000     
 -0.14899999999999997          0.0000000000000000     
 -0.14749999999999999          0.0000000000000000     
 -0.14599999999999999          0.0000000000000000     
 -0.14449999999999999          0.0000000000000000     
 -0.14299999999999999          0.0000000000000000     
 -0.14149999999999999          0.0000000000000000     
 -0.13999999999999999          0.0000000000000000     
 -0.13849999999999998          0.0000000000000000     
 -0.13699999999999998          0.0000000000000000     
 -0.13549999999999998          0.0000000000000000     
 -0.13399999999999998          0.0000000000000000     
 -0.13249999999999998          0.0000000000000000     
 -0.13099999999999998          0.0000000000000000     
 -0.12949999999999998          0.0000000000000000     
 -0.12799999999999997          0.0000000000000000     
 -0.12650000000000000          0.0000000000000000     
 -0.12499999999999999          0.0000000000000000     
 -0.12349999999999998          0.0000000000000000     
 -0.12199999999999998          0.0000000000000000     
 -0.12049999999999998          0.0000000000000000     
 -0.11899999999999998          0.0000000000000000     
 -0.11749999999999998          0.0000000000000000     
 -0.11599999999999998          0.0000000000000000     
 -0.11449999999999998          0.0000000000000000     
 -0.11299999999999998          0.0000000000000000     
 -0.11149999999999999          0.0000000000000000     
 -0.10999999999999999          0.0000000000000000     
 -0.10849999999999999          0.0000000000000000     
 -0.10699999999999998          0.0000000000000000     
 -0.10549999999999998          0.0000000000000000     
 -0.10399999999999998          0.0000000000000000     
 -0.10249999999999998          0.0000000000000000     
 -0.10099999999999998          0.0000000000000000     
  -9.9499999999999977E-002     0.0000000000000000     
  -9.7999999999999976E-002     0.0000000000000000     
  -9.6499999999999975E-002     0.0000000000000000     
  -9.4999999999999987E-002     0.0000000000000000     
  -9.3499999999999986E-002     0.0000000000000000     
  -9.1999999999999985E-002     0.0000000000000000     
  -9.0499999999999983E-002     0.0000000000000000     
  -8.8999999999999982E-002     0.0000000000000000     
  -8.7499999999999981E-002     0.0000000000000000     
  -8.5999999999999979E-002     0.0000000000000000     
  -8.4499999999999978E-002     0.0000000000000000     
  -8.2999999999999977E-002     0.0000000000000000     
  -8.1499999999999975E-002     0.0000000000000000     
  -7.9999999999999988E-002     0.0000000000000000     
  -7.8499999999999986E-002     0.0000000000000000     
  -7.6999999999999985E-002     0.0000000000000000     
  -7.5499999999999984E-002     0.0000000000000000     
  -7.3999999999999982E-002    -1.1140433380737152E-038
  -7.2499999999999981E-002    -1.0265763520333950E-038
  -7.0999999999999980E-002     0.0000000000000000     
  -6.9499999999999978E-002     2.7347838039593112E-038
  -6.7999999999999977E-002     6.1866206635801068E-038
  -6.6499999999999976E-002     7.7297886686213247E-038
  -6.4999999999999974E-002     4.2668570445932960E-038
  -6.3499999999999973E-002    -6.6223583765762519E-038
  -6.1999999999999972E-002    -2.3874290673164476E-037
  -6.0499999999999970E-002    -3.9172048826880746E-037
  -5.8999999999999969E-002    -3.8053226015794780E-037
  -5.7499999999999968E-002    -4.9124867986933801E-038
  -5.5999999999999966E-002     6.5384454689890673E-037
  -5.4499999999999993E-002     1.5276028588930211E-036
  -5.2999999999999992E-002     2.0457778418209114E-036
  -5.1499999999999990E-002     1.4652704368151309E-036
  -4.9999999999999989E-002    -7.8963818520896745E-037
  -4.8499999999999988E-002    -4.5271500421275738E-036
  -4.6999999999999986E-002    -8.2470976174186281E-036
  -4.5499999999999985E-002    -9.1288549160349541E-036
  -4.3999999999999984E-002    -4.0136168762049007E-036
  -4.2499999999999982E-002     8.5178166061567691E-036
  -4.0999999999999981E-002     2.5614843463665132E-035
  -3.9499999999999980E-002     3.8686240095106759E-035
  -3.7999999999999978E-002     3.4941896677968849E-035
  -3.6499999999999977E-002     3.2454483029052201E-036
  -3.4999999999999976E-002    -5.6549136320336324E-035
  -3.3499999999999974E-002    -1.2477818312673420E-034
  -3.1999999999999973E-002    -1.6038207652205304E-034
  -3.0499999999999972E-002    -1.1321659926251197E-034
  -2.8999999999999970E-002     4.7913705620636175E-035
  -2.7499999999999969E-002     2.9938457493838315E-034
  -2.5999999999999968E-002     5.3818959008407451E-034
  -2.4499999999999966E-002     5.9387156010962198E-034
  -2.2999999999999993E-002     2.9504175483819797E-034
  -2.1499999999999991E-002    -4.1593975908420575E-034
  -1.9999999999999990E-002    -1.3637554317946478E-033
  -1.8499999999999989E-002    -2.0932553884229335E-033
  -1.6999999999999987E-002    -1.9758544741647669E-033
  -1.5499999999999986E-002    -5.0280974299257151E-034
  -1.3999999999999985E-002     2.3021346207172671E-033
  -1.2499999999999983E-002     5.5413307347677076E-033
  -1.0999999999999982E-002     7.4416991349253467E-033
  -9.4999999999999807E-003     5.9149155957312323E-033
  -7.9999999999999793E-003    -3.1918844942398916E-034
  -6.4999999999999780E-003    -1.0404619106639592E-032
  -4.9999999999999767E-003    -2.0530087337408423E-032
  -3.4999999999999754E-003    -2.4452244565418704E-032
  -1.9999999999999740E-003    -1.5860829141156421E-032
  -4.9999999999997269E-004     7.7640000361372950E-033
   1.0000000000000286E-003     4.1290626937938990E-032
   2.5000000000000300E-003     7.0447473365338698E-032
   4.0000000000000313E-003     7.5023968582181477E-032
   5.5000000000000326E-003     3.7561575205811515E-032
   7.0000000000000340E-003    -4.4539679442082701E-032
   8.5000000000000075E-003    -1.4882533119283403E-031
   1.0000000000000009E-002    -2.2669493496929664E-031
   1.1500000000000010E-002    -2.1720187177067861E-031
   1.3000000000000012E-002    -7.5896151969831252E-032
   1.4500000000000013E-002     1.8994461611491095E-031
   1.6000000000000014E-002     4.9682038761741241E-031
   1.7500000000000016E-002     6.9134340899007286E-031
   1.9000000000000017E-002     6.0032432666545353E-031
   2.0500000000000018E-002     1.1909817282512235E-031
   2.2000000000000020E-002    -6.9227865397530989E-031
   2.3500000000000021E-002    -1.5555996246144958E-030
   2.5000000000000022E-002    -2.0162430928381440E-030
   2.6500000000000024E-002    -1.6054230623395814E-030
   2.8000000000000025E-002    -9.3429925151991321E-032
   2.9500000000000026E-002     2.2612163655769198E-030
   3.1000000000000028E-002     4.6065500528860105E-030
   3.2500000000000029E-002     5.6648113804907610E-030
   3.4000000000000030E-002     4.2147175765533194E-030
   3.5500000000000032E-002    -2.2148304363499335E-031
   3.7000000000000033E-002    -6.7592785585293688E-030
   3.8500000000000034E-002    -1.2966319185191171E-029
   4.0000000000000008E-002    -1.5412563848025194E-029
   4.1500000000000009E-002    -1.1006130224707607E-029
   4.3000000000000010E-002     1.2286220120692971E-030
   4.4500000000000012E-002     1.8662300242548187E-029
   4.6000000000000013E-002     3.4767701276914419E-029
   4.7500000000000014E-002     4.0707992956393112E-029
   4.9000000000000016E-002     2.8816851781894661E-029
   5.0500000000000017E-002    -2.9867955498238470E-030
   5.2000000000000018E-002    -4.7693940496995124E-029
   5.3500000000000020E-002    -8.8772283278194564E-029
   5.5000000000000021E-002    -1.0431769072362831E-028
   5.6500000000000022E-002    -7.5626004073481482E-029
   5.8000000000000024E-002     2.2531267239836454E-030
   5.9500000000000025E-002     1.1238510519286941E-028
   6.1000000000000026E-002     2.1520789556402714E-028
   6.2500000000000028E-002     2.5847595896065700E-028
   6.4000000000000029E-002     1.9726395742533192E-028
   6.5500000000000030E-002     1.8290798682688304E-029
   6.7000000000000032E-002    -2.4142905544912491E-028
   6.8500000000000033E-002    -4.9262477940978840E-028
   7.0000000000000034E-002    -6.1564615322316818E-028
   7.1500000000000036E-002    -5.0466539447221287E-028
   7.3000000000000037E-002    -1.2166533139037776E-028
   7.4500000000000038E-002     4.6132972635610667E-028
   7.6000000000000040E-002     1.0553896855580615E-027
   7.7500000000000041E-002     1.3986143018675738E-027
   7.9000000000000042E-002     1.2482790934849804E-027
   8.0500000000000044E-002     4.9581305127547793E-028
   8.2000000000000045E-002    -7.3941124390912765E-028
   8.3500000000000046E-002    -2.0862039002064761E-027
   8.5000000000000048E-002    -3.0006397554711694E-027
   8.6500000000000049E-002    -2.9458881446159177E-027
   8.8000000000000050E-002    -1.6256191085412399E-027
   8.9499999999999996E-002     8.1374786243779667E-028
   9.0999999999999998E-002     3.7082096968715512E-027
   9.2499999999999999E-002     5.9981163496321724E-027
   9.4000000000000000E-002     6.5519617822012702E-027
   9.5500000000000002E-002     4.6131381029312211E-027
   9.7000000000000003E-002     2.1778015820632335E-028
   9.8500000000000004E-002    -5.5962985074401341E-027
  0.10000000000000001         -1.0929925965824922E-026
  0.10150000000000001         -1.3545089106122061E-026
  0.10300000000000001         -1.1656206783946330E-026
  0.10450000000000001         -4.7423795682541919E-027
  0.10600000000000001          5.9319117195437945E-027
  0.10750000000000001          1.7355125789253679E-026
  0.10900000000000001          2.5474377854860628E-026
  0.11050000000000001          2.6445255306922800E-026
  0.11200000000000002          1.8075089781315341E-026
  0.11350000000000002          9.7460043985410117E-028
  0.11500000000000002         -2.1044573014906907E-026
  0.11650000000000002         -4.1595565238533381E-026
  0.11800000000000002         -5.3321318611399816E-026
  0.11950000000000002         -5.0102510295818984E-026
  0.12100000000000002         -2.9254852668898368E-026
  0.12250000000000003          6.9536683881099460E-027
  0.12400000000000003          5.0988284185302627E-026
  0.12550000000000003          9.1160212591551247E-026
  0.12700000000000003          1.1404100381285517E-025
  0.12850000000000003          1.0775568090756637E-025
  0.13000000000000003          6.5547516460132149E-026
  0.13150000000000003         -1.1068538198022163E-026
  0.13300000000000003         -1.1026853262638904E-025
  0.13450000000000004         -2.0972077570619150E-025
  0.13600000000000004         -2.7894251491266709E-025
  0.13750000000000004         -2.8478212855485007E-025
  0.13900000000000004         -2.0011776603234344E-025
  0.14050000000000004         -1.4900000851631203E-026
  0.14200000000000004          2.5274963070254311E-025
  0.14350000000000004          5.4919203733301612E-025
  0.14500000000000005          7.8643066809609394E-025
  0.14650000000000005          8.5606188066633921E-025
  0.14800000000000005          6.5771490336433911E-025
  0.14950000000000005          1.3888965788428574E-025
  0.15100000000000005         -6.6305167823962956E-025
  0.15250000000000000         -1.5916131748599230E-024
  0.15400000000000000         -2.3719813530628858E-024
  0.15550000000000000         -2.6561182578854715E-024
  0.15700000000000000         -2.1160648018632790E-024
  0.15850000000000000         -5.7286298808222653E-025
  0.16000000000000000          1.8706653170617703E-024
  0.16150000000000000          4.7406632264445615E-024
  0.16300000000000001          7.1985591168961369E-024
  0.16450000000000001          8.1823722110751713E-024
  0.16600000000000001          6.6900203992696492E-024
  0.16750000000000001          2.1632131222130670E-024
  0.16900000000000001         -5.1228369779224025E-024
  0.17050000000000001         -1.3799956549637806E-023
  0.17200000000000001         -2.1423571316120413E-023
  0.17350000000000002         -2.4873475734431697E-023
  0.17500000000000002         -2.1156684802808692E-023
  0.17650000000000002         -8.4980585788212781E-024
  0.17800000000000002          1.2540528867742418E-023
  0.17950000000000002          3.8284731385418797E-023
  0.18100000000000002          6.1918730896058043E-023
  0.18250000000000002          7.4511360337114190E-023
  0.18400000000000002          6.7171662475224803E-023
  0.18550000000000003          3.4058258564252418E-023
  0.18700000000000003         -2.4426310479175877E-023
  0.18850000000000003         -9.9246540849512793E-023
  0.19000000000000003         -1.7225833547827936E-022
  0.19150000000000003         -2.1855199516086738E-022
  0.19300000000000003         -2.1194257187200824E-022
  0.19450000000000003         -1.3303389567099140E-022
  0.19600000000000004          2.1773313980914740E-023
  0.19750000000000004          2.3288445252120897E-022
  0.19900000000000004          4.5472720814405237E-022
  0.20050000000000004          6.2023335135761623E-022
  0.20200000000000004          6.5391121595772022E-022
  0.20350000000000004          4.9259865543055933E-022
  0.20500000000000004          1.1021703476220876E-022
  0.20650000000000004         -4.5976973878029108E-022
  0.20800000000000005         -1.1120808560885929E-021
  0.20950000000000005         -1.6751249926349005E-021
  0.21100000000000005         -1.9391318859428714E-021
  0.21250000000000005         -1.7065257585339646E-021
  0.21400000000000005         -8.5719716365886564E-022
  0.21550000000000005          5.8584709241690959E-022
  0.21700000000000000          2.4102496024427069E-021
  0.21850000000000000          4.2084281659555808E-021
  0.22000000000000000          5.4282626182965493E-021
  0.22150000000000000          5.4853290333805407E-021
  0.22300000000000000          3.9251236033351902E-021
  0.22450000000000001          6.0495219706780018E-022
  0.22600000000000001         -4.1511109749945374E-021
  0.22750000000000001         -9.4789243631970103E-021
  0.22900000000000001         -1.4032394503244878E-020
  0.23050000000000001         -1.6201694780305150E-020
  0.23200000000000001         -1.4484012877649599E-020
  0.23350000000000001         -7.9529900375208543E-021
  0.23500000000000001          3.2731066411553848E-021
  0.23650000000000002          1.7697665926549828E-020
  0.23800000000000002          3.2386170176293427E-020
  0.23950000000000002          4.3290157869564578E-020
  0.24100000000000002          4.5993311147674262E-020
  0.24250000000000002          3.6813905674473446E-020
  0.24400000000000002          1.4077955460600134E-020
  0.24550000000000002         -2.0730379550806367E-020
  0.24700000000000003         -6.2296303640245183E-020
  0.24850000000000003         -1.0162058783203993E-019
  0.25000000000000000         -1.2721355032315121E-019
  0.25150000000000006         -1.2735759960108720E-019
  0.25300000000000000         -9.3179633637425100E-020
  0.25450000000000006         -2.1976164794477167E-020
  0.25600000000000001          8.0009895582247158E-020
  0.25750000000000006          1.9627025977741130E-019
  0.25900000000000001          3.0098332737059817E-019
  0.26050000000000006          3.6271173225945737E-019
  0.26200000000000001          3.5075486740763823E-019
  0.26350000000000007          2.4335083141321934E-019
  0.26500000000000001          3.6198267456324025E-020
  0.26650000000000007         -2.5078510846971265E-019
  0.26800000000000002         -5.7073814721502649E-019
  0.26950000000000007         -8.5310868877105050E-019
  0.27100000000000002         -1.0139085092163657E-018
  0.27250000000000008         -9.7255198975760340E-019
  0.27400000000000002         -6.7309077150847641E-019
  0.27550000000000008         -1.0591297957274999E-019
  0.27700000000000002          6.7531191606047181E-019
  0.27850000000000008          1.5470418930350606E-018
  0.28000000000000003          2.3243495535122984E-018
  0.28149999999999997          2.7869387088968017E-018
  0.28300000000000003          2.7216187210503940E-018
  0.28449999999999998          1.9759044211231907E-018
  0.28600000000000003          5.1319164936644661E-019
  0.28749999999999998         -1.5431621219470353E-018
  0.28900000000000003         -3.8905457195710755E-018
  0.29049999999999998         -6.0643538146737133E-018
  0.29200000000000004         -7.4983621566329243E-018
  0.29349999999999998         -7.6265766351376669E-018
  0.29500000000000004         -6.0148602605305528E-018
  0.29649999999999999         -2.5004822503893715E-018
  0.29800000000000004          2.6901924076802449E-018
  0.29949999999999999          8.8789273244468459E-018
  0.30100000000000005          1.4957506155283726E-017
  0.30250000000000010          1.9513112053487091E-017
  0.30400000000000005          2.1057917092351742E-017
  0.30550000000000010          1.8340555667311280E-017
  0.30700000000000005          1.0692876566548241E-017
  0.30850000000000011         -1.6549762606104412E-018
  0.31000000000000005         -1.7369155165938919E-017
  0.31150000000000011         -3.3991166201306228E-017
  0.31300000000000006         -4.8155999463302380E-017
  0.31450000000000000         -5.6066697820970894E-017
  0.31600000000000006         -5.4191975011320075E-017
  0.31750000000000000         -4.0097305055619531E-017
  0.31900000000000006         -1.3267920465871543E-017
  0.32050000000000001          2.4252599951439383E-017
  0.32200000000000006          6.7591120933801734E-017
  0.32350000000000001          1.0929408533407172E-016
  0.32500000000000007          1.4018059593605952E-016
  0.32650000000000001          1.5077912384027945E-016
  0.32800000000000007          1.3320255067640990E-016
  0.32950000000000002          8.3189628368601130E-017
  0.33100000000000007          1.9398796782320174E-018
  0.33250000000000002         -1.0268243599874517E-016
  0.33400000000000007         -2.1597638919909784E-016
  0.33550000000000002         -3.1755796361086456E-016
  0.33700000000000008         -3.8393999847197745E-016
  0.33850000000000002         -3.9238135420260602E-016
  0.34000000000000008         -3.2556046510831211E-016
  0.34150000000000003         -1.7636106788203994E-016
  0.34300000000000008          4.8134498032438466E-017
  0.34450000000000003          3.2440887841059120E-016
  0.34600000000000009          6.1288345846400033E-016
  0.34750000000000003          8.6145659584163690E-016
  0.34900000000000009          1.0122864631728409E-015
  0.35050000000000003          1.0113041306438948E-015
  0.35200000000000009          8.1931156384856177E-016
  0.35350000000000004          4.2296153461328080E-016
  0.35500000000000009         -1.5644813021481984E-016
  0.35650000000000004         -8.5849189049339012E-016
  0.35800000000000010         -1.5852588872490583E-015
  0.35950000000000004         -2.2102147978779042E-015
  0.36100000000000010         -2.5943126589212079E-015
  0.36250000000000004         -2.6080757215882913E-015
  0.36400000000000010         -2.1570355872487806E-015
  0.36550000000000005         -1.2067392754876631E-015
  0.36700000000000010          1.9719176543080336E-016
  0.36850000000000005          1.9185591308371387E-015
  0.37000000000000011          3.7335504553101904E-015
  0.37150000000000005          5.3495565870235260E-015
  0.37300000000000011          6.4399903329669839E-015
  0.37450000000000006          6.6925388177649140E-015
  0.37600000000000011          5.8654681245435656E-015
  0.37750000000000006          3.8441414317327605E-015
  0.37900000000000000          6.8829860489536896E-016
  0.38050000000000006         -3.3396854083797898E-015
  0.38200000000000001         -7.7741398809555604E-015
  0.38350000000000006         -1.1978720818177679E-014
  0.38500000000000001         -1.5213674127194715E-014
  0.38650000000000007         -1.6733705553107360E-014
  0.38800000000000001         -1.5906728857245674E-014
  0.38950000000000007         -1.2338570417615385E-014
  0.39100000000000001         -5.9849744005671688E-015
  0.39250000000000007          2.7691730397657401E-015
  0.39400000000000002          1.3082050939346862E-014
  0.39550000000000007          2.3692504354193689E-014
  0.39700000000000002          3.3029482779599846E-014
  0.39850000000000008          3.9389793064915619E-014
  0.40000000000000002          4.1169724620964927E-014
  0.40150000000000008          3.7125445076006422E-014
  0.40300000000000002          2.6628499130060540E-014
  0.40450000000000008          9.8777366384397610E-015
  0.40600000000000003         -1.1970963159931723E-014
  0.40750000000000008         -3.6790289809675207E-014
  0.40900000000000003         -6.1604211372982729E-014
  0.41050000000000009         -8.2853466806782628E-014
  0.41200000000000003         -9.6790300623789975E-014
  0.41350000000000009         -9.9968511683511421E-014
  0.41500000000000004         -8.9776611658750007E-014
  0.41650000000000009         -6.4947955692691275E-014
  0.41800000000000004         -2.5975017338309636E-014
  0.41950000000000010          2.4642988550005780E-014
  0.42100000000000004          8.2377854686851818E-014
  0.42250000000000010          1.4091321754652273E-013
  0.42400000000000004          1.9265757391694249E-013
  0.42550000000000010          2.2950431230336184E-013
  0.42700000000000005          2.4378000095354638E-013
  0.42850000000000010          2.2928987058484563E-013
  0.43000000000000005          1.8234572642616139E-013
  0.43150000000000011          1.0264875581897088E-013
  0.43300000000000005         -6.1001793456837410E-015
  0.43450000000000011         -1.3597369200671879E-013
  0.43600000000000005         -2.7505578419705275E-013
  0.43750000000000011         -4.0818315530410179E-013
  0.43900000000000006         -5.1817635926245794E-013
  0.44050000000000000         -5.8749219829748439E-013
  0.44200000000000006         -6.0017407015537732E-013
  0.44350000000000001         -5.4392965679196121E-013
  0.44500000000000006         -4.1213036907247401E-013
  0.44650000000000001         -2.0550832668427672E-013
  0.44800000000000006          6.6670202090236066E-014
  0.44950000000000001          3.8615428009226150E-013
  0.45100000000000007          7.2613326636757688E-013
  0.45250000000000001          1.0526265390661681E-012
  0.45400000000000007          1.3268433172727353E-012
  0.45550000000000002          1.5084303473711587E-012
  0.45700000000000007          1.5594214561298222E-012
  0.45850000000000002          1.4486162232650385E-012
  0.46000000000000008          1.1560242364056790E-012
  0.46150000000000002          6.7695646486881137E-013
  0.46300000000000008          2.5299929418423856E-014
  0.46450000000000002         -7.6447557512620256E-013
  0.46600000000000008         -1.6369961431866603E-012
  0.46750000000000003         -2.5176726639706040E-012
  0.46900000000000008         -3.3165918724068191E-012
  0.47050000000000003         -3.9346229960460607E-012
  0.47200000000000009         -4.2715484423343660E-012
  0.47350000000000003         -4.2357956179678542E-012
  0.47500000000000009         -3.7551192721688001E-012
  0.47650000000000003         -2.7873791414778600E-012
  0.47800000000000009         -1.3303851595272175E-012
  0.47950000000000004          5.7029098409183114E-013
  0.48100000000000009          2.8166577663602215E-012
  0.48250000000000004          5.2578006973124063E-012
  0.48400000000000010          7.6943160935086146E-012
  0.48550000000000004          9.8881234304522633E-012
  0.48700000000000010          1.1577684389544280E-011
  0.48850000000000005          1.2498128842512370E-011
  0.49000000000000010          1.2405265682289814E-011
  0.49150000000000005          1.1101936066886174E-011
  0.49300000000000010          8.4647270152294168E-012
  0.49450000000000005          4.4686798265935762E-012
  0.49600000000000011         -7.9249299613693629E-013
  0.49750000000000005         -7.0931830816066152E-012
  0.49900000000000011         -1.4071892727135828E-011
  0.50050000000000006         -2.1238246242164745E-011
  0.50200000000000011         -2.7992120647032502E-011
  0.50350000000000006         -3.3655131344295671E-011
  0.50500000000000000         -3.7513814298118736E-011
  0.50650000000000006         -3.8872702343270894E-011
  0.50800000000000001         -3.7114656798244524E-011
  0.50950000000000006         -3.1764793825115798E-011
  0.51100000000000001         -2.2553641191700642E-011
  0.51250000000000007         -9.4746959670380487E-012
  0.51400000000000001          7.1687027101373435E-012
  0.51550000000000007          2.6732170201382710E-011
  0.51700000000000002          4.8219267220014901E-011
  0.51850000000000007          7.0294522346856745E-011
  0.52000000000000002          9.1323142575756615E-011
  0.52150000000000007          1.0943869445911602E-010
  0.52300000000000002          1.2263856346257946E-010
  0.52450000000000008          1.2890502741121069E-010
  0.52600000000000002          1.2634785987394415E-010
  0.52750000000000008          1.1336265650189222E-010
  0.52900000000000003          8.8796927317720005E-011
  0.53050000000000008          5.2114592220275524E-011
  0.53200000000000003          3.5478217729613079E-012
  0.53350000000000009         -5.5775527226484271E-011
  0.53500000000000003         -1.2374143073636204E-010
  0.53650000000000009         -1.9720838412024449E-010
  0.53800000000000003         -2.7202651000274552E-010
  0.53950000000000009         -3.4312676660065662E-010
  0.54100000000000004         -4.0468689087254979E-010
  0.54250000000000009         -4.5037769277557311E-010
  0.54400000000000004         -4.7368761407188957E-010
  0.54550000000000010         -4.6831911000837723E-010
  0.54700000000000004         -4.2864404662823256E-010
  0.54850000000000010         -3.5019918035985816E-010
  0.55000000000000004         -2.3019706122836856E-010
  0.55150000000000010         -6.8021629520121610E-011
  0.55300000000000005          1.3432501809890190E-010
  0.55450000000000010          3.7186292328720363E-010
  0.55600000000000005          6.3639907508583437E-010
  0.55750000000000011          9.1645324440530300E-010
  0.55900000000000005          1.1973783542599588E-009
  0.56050000000000011          1.4616994557458598E-009
  0.56200000000000006          1.6896906015817931E-009
  0.56350000000000011          1.8601896612057759E-009
  0.56500000000000006          1.9516471692983693E-009
  0.56650000000000011          1.9433769050706207E-009
  0.56800000000000006          1.8169721920418389E-009
  0.56950000000000001          1.5578263539278598E-009
  0.57100000000000006          1.1566857282442476E-009
  0.57250000000000001          6.1115213557248447E-010
  0.57400000000000007         -7.2959568840852598E-011
  0.57550000000000001         -8.8050209169353382E-010
  0.57700000000000007         -1.7862086310642494E-009
  0.57850000000000001         -2.7543282453070659E-009
  0.58000000000000007         -3.7387557099071880E-009
  0.58150000000000002         -4.6837182349254923E-009
  0.58300000000000007         -5.5250573208343643E-009
  0.58450000000000002         -6.1921194931037292E-009
  0.58600000000000008         -6.6102447138215970E-009
  0.58750000000000002         -6.7038218785093252E-009
  0.58900000000000008         -6.3998277593853252E-009
  0.59050000000000002         -5.6317697335852019E-009
  0.59200000000000008         -4.3439089077178497E-009
  0.59350000000000003         -2.4956454631832224E-009
  0.59500000000000008         -6.5948512825733909E-011
  0.59650000000000003          2.9423303846114990E-009
  0.59800000000000009          6.4983387031098419E-009
  0.59950000000000003          1.0539429483033949E-008
  0.60100000000000009          1.4967690935337101E-008
  0.60250000000000004          1.9646858314074326E-008
  0.60400000000000009          2.4399571588679808E-008
  0.60550000000000004          2.9004927004249796E-008
  0.60700000000000010          3.3196087882585811E-008
  0.60850000000000004          3.6657876043388485E-008
  0.61000000000000010          3.9024052082222298E-008
  0.61150000000000004          3.9873912521190472E-008
  0.61300000000000010          3.8727870172207019E-008
  0.61450000000000005          3.5041526155980791E-008
  0.61600000000000010          2.8197760468693626E-008