 -0.19999999999999998          0.0000000000000000     
 -0.19849999999999998          0.0000000000000000     
 -0.19699999999999998          0.0000000000000000     
 -0.19549999999999998          0.0000000000000000     
 -0.19399999999999998          0.0000000000000000     
 -0.19249999999999998          0.0000000000000000     
 -0.19099999999999998          0.0000000000000000     
 -0.18949999999999997          0.0000000000000000     
 -0.18799999999999997          0.0000000000000000     
 -0.18649999999999997          0.0000000000000000     
 -0.18500000000000000          0.0000000000000000     
 -0.18350000000000000          0.0000000000000000     
 -0.18200000000000000          0.0000000000000000     
 -0.18049999999999999          0.0000000000000000     
 -0.17899999999999999          0.0000000000000000     
 -0.17749999999999999          0.0000000000000000     
 -0.17599999999999999          0.0000000000000000     
 -0.17449999999999999          0.0000000000000000     
 -0.17299999999999999          0.0000000000000000     
 -0.17149999999999999          0.0000000000000000     
 -0.16999999999999998          0.0000000000000000     
 -0.16849999999999998          0.0000000000000000     
 -0.16699999999999998          0.0000000000000000     
 -0.16549999999999998         -9.3125678737747021E-053
 -0.16399999999999998         -2.1680470745794701E-052
 -0.16249999999999998          4.4536537590972565E-052
 -0.16099999999999998          3.4035790837233358E-051
 -0.15949999999999998          3.3813375147179429E-040
 -0.15799999999999997          2.8220306086004343E-038
 -0.15649999999999997          8.2227321953699633E-038
 -0.15499999999999997          9.9899774149030303E-038
 -0.15349999999999997         -1.0234706001984433E-037
 -0.15199999999999997         -8.1910660918540970E-037
 -0.15049999999999997         -1.8727154813292634E-036
 -0.14899999999999997         -1.1105386326049149E-036
 -0.14749999999999999          7.1229427928360251E-036
 -0.14599999999999999          2.9072964464422874E-035
 -0.14449999999999999          5.4937113998363487E-035
 -0.14299999999999999          2.4905701991688971E-035
 -0.14149999999999999         -1.9159025104483565E-034
 -0.13999999999999999         -7.0593076761480670E-034
 -0.13849999999999998         -1.2728250379593654E-033
 -0.13699999999999998         -7.3074078970323435E-034
 -0.13549999999999998          3.1873654172868679E-033
 -0.13399999999999998          1.2227388818635202E-032
 -0.13249999999999998          2.2593910196943771E-032
 -0.13099999999999998          1.7599851906055800E-032
 -0.12949999999999998         -3.3918714750274255E-032
 -0.12799999999999997         -1.5667358259204814E-031
 -0.12650000000000000         -3.1020138987105559E-031
 -0.12499999999999999         -3.0793512013251453E-031
 -0.12349999999999998          2.0026200628341281E-031
 -0.12199999999999998          1.5213885022262488E-030
 -0.12049999999999998          3.3559677557227042E-030
 -0.11899999999999998          4.0298920123331164E-030
 -0.11749999999999998          2.6163279121143483E-031
 -0.11599999999999998         -1.1212383566830019E-029
 -0.11449999999999998         -2.9089348747548074E-029
 -0.11299999999999998         -4.1127292356761092E-029
 -0.11149999999999999         -2.1332912395272380E-029
 -0.10999999999999999          5.9750092704626476E-029
 -0.10849999999999999          2.0365873693245638E-028
 -0.10699999999999998          3.3752006877556442E-028
 -0.10549999999999998          2.8601999217518234E-028
 -0.10399999999999998         -1.7716564440616572E-028
 -0.10249999999999998         -1.1430423744187031E-027
 -0.10099999999999998         -2.2683720533289324E-027
  -9.9499999999999977E-002    -2.5447853378818154E-027
  -9.7999999999999976E-002    -4.8375139448162410E-028
  -9.6499999999999975E-002     4.9322822697359321E-027
  -9.4999999999999987E-002     1.2555445571296406E-026
  -9.3499999999999986E-002     1.7471971354820622E-026
  -9.1999999999999985E-002     1.1266203146467249E-026
  -9.0499999999999983E-002    -1.3853886892776047E-026
  -8.8999999999999982E-002    -5.6604878825104291E-026
  -8.7499999999999981E-002    -9.7138593171010891E-026
  -8.5999999999999979E-002    -9.4543628313975894E-026
  -8.4499999999999978E-002    -1.5484279391054448E-027
  -8.2999999999999977E-002     1.9857598739384096E-025
  -8.1499999999999975E-002     4.4335579363577076E-025
  -7.9999999999999988E-002     5.6291833385214628E-025
  -7.8499999999999986E-002     3.1892269264379688E-025
  -7.6999999999999985E-002    -4.5603981355512186E-025
  -7.5499999999999984E-002    -1.6413916440905723E-024
  -7.3999999999999982E-002    -2.6468024794322152E-024
  -7.2499999999999981E-002    -2.4556683906088610E-024
  -7.0999999999999980E-002    -6.8949441831496890E-026
  -6.9499999999999978E-002     4.6526776796179652E-024
  -6.7999999999999977E-002     1.0084414630441219E-023
  -6.6499999999999976E-002     1.2555646105478966E-023
  -6.4999999999999974E-002     7.4641921962457990E-024
  -6.3499999999999973E-002    -7.9044799189918995E-024
  -6.1999999999999972E-002    -3.0643392272767780E-023
  -6.0499999999999970E-002    -4.9739385100261161E-023
  -5.8999999999999969E-002    -4.7782025561923214E-023
  -5.7499999999999968E-002    -8.9209839962277569E-024
  -5.5999999999999966E-002     6.8036271549724303E-023
  -5.4499999999999993E-002     1.5723693278624505E-022
  -5.2999999999999992E-002     2.0385765207327451E-022
  -5.1499999999999990E-002     1.4190493647438898E-022
  -4.9999999999999989E-002    -6.6692833429331288E-023
  -4.8499999999999988E-002    -3.8449481748546854E-022
  -4.6999999999999986E-002    -6.7045392195657963E-022
  -4.5499999999999985E-002    -7.0492705074553666E-022
  -4.3999999999999984E-002    -2.8689317661392741E-022
  -4.2499999999999982E-002     6.1526063200358663E-022
  -4.0999999999999981E-002     1.7276794536291500E-021
  -3.9499999999999980E-002     2.4525457210588812E-021
  -3.7999999999999978E-002     2.0558893470815590E-021
  -3.6499999999999977E-002     6.6856561813886120E-023
  -3.4999999999999976E-002    -3.2453876266708780E-021
  -3.3499999999999974E-002    -6.5850644041385544E-021
  -3.1999999999999973E-002    -7.8377494066229038E-021
  -3.0499999999999972E-002    -4.9339030935715254E-021
  -2.8999999999999970E-002     2.8036748130229590E-021
  -2.7499999999999969E-002     1.3412439704987892E-020
  -2.5999999999999968E-002     2.1995607292485207E-020
  -2.4499999999999966E-002     2.2105442042711506E-020
  -2.2999999999999993E-002     8.8690040093829486E-021
  -2.1499999999999991E-002    -1.7138359244507048E-020
  -1.9999999999999990E-002    -4.7268463928581432E-020
  -1.8499999999999989E-002    -6.5706623553608755E-020
  -1.6999999999999987E-002    -5.5211761225926227E-020
  -1.5499999999999986E-002    -6.7098907372809961E-021
  -1.3999999999999985E-002     7.1078249429841286E-020
  -1.2499999999999983E-002     1.4773218977255987E-019
  -1.0999999999999982E-002     1.7812538502246998E-019
  -9.4999999999999807E-003     1.2152994516070744E-019
  -7.9999999999999793E-003    -3.2540360042441173E-020
  -6.4999999999999780E-003    -2.4364147288446331E-019
  -4.9999999999999767E-003    -4.1932822829080657E-019
  -3.4999999999999754E-003    -4.4346806399789045E-019
  -1.9999999999999740E-003    -2.3120137577246799E-019
  -4.9999999999997269E-004     2.0872528669821334E-019
   1.0000000000000286E-003     7.3633452556996924E-019
   2.5000000000000300E-003     1.0996987794649066E-018
   4.0000000000000313E-003     1.0252349315983984E-018
   5.5000000000000326E-003     3.5935952783758061E-019
   7.0000000000000340E-003    -7.9512986056056102E-019
   8.5000000000000075E-003    -2.0254106044552071E-018
   1.0000000000000009E-002    -2.7016892923488536E-018
   1.1500000000000010E-002    -2.2267097336188296E-018
   1.3000000000000012E-002    -3.7015540688356510E-019
   1.4500000000000013E-002     2.4582055268755837E-018
   1.6000000000000014E-002     5.1675076096168472E-018
   1.7500000000000016E-002     6.2900884911757037E-018
   1.9000000000000017E-002     4.6039755639822153E-018
   2.0500000000000018E-002    -1.3250310941829906E-019
   2.2000000000000020E-002    -6.6766960701497500E-018
   2.3500000000000021E-002    -1.2377615097188579E-017
   2.5000000000000022E-002    -1.4007575271282151E-017
   2.6500000000000024E-002    -9.1972981921174783E-018
   2.8000000000000025E-002     2.0434139002990899E-018
   2.9500000000000026E-002     1.6464980458058578E-017
   3.1000000000000028E-002     2.8047570499981620E-017
   3.2500000000000029E-002     3.0028417719013702E-017
   3.4000000000000030E-002     1.8006046405585553E-017
   3.5500000000000032E-002    -7.0628529537604522E-018
   3.7000000000000033E-002    -3.7500416261150621E-017
   3.8500000000000034E-002    -6.0396759089763166E-017
   4.0000000000000008E-002    -6.2156133902680973E-017
   4.1500000000000009E-002    -3.4865747745745957E-017
   4.3000000000000010E-002     1.8033748084339786E-017
   4.4500000000000012E-002     7.9750717221717947E-017
   4.6000000000000013E-002     1.2393508971388557E-016
   4.7500000000000014E-002     1.2422992564362948E-016
   4.9000000000000016E-002     6.6769042761729625E-017
   5.0500000000000017E-002    -3.9451458600681765E-017
   5.2000000000000018E-002    -1.5989401833978026E-016
   5.3500000000000020E-002    -2.4303810274773846E-016
   5.5000000000000021E-002    -2.3942898493961010E-016
   5.6500000000000022E-002    -1.2530116174316601E-016
   5.8000000000000024E-002     7.8979081297859818E-017
   5.9500000000000025E-002     3.0573203124011485E-016
   6.1000000000000026E-002     4.5781258742378871E-016
   6.2500000000000028E-002     4.4505808696988984E-016
   6.4000000000000029E-002     2.2760195509500472E-016
   6.5500000000000030E-002    -1.5205447965411159E-016
   6.7000000000000032E-002    -5.6601729340958371E-016
   6.8500000000000033E-002    -8.3622719356061727E-016
   7.0000000000000034E-002    -8.0202592904288086E-016
   7.1500000000000036E-002    -3.9778100382906018E-016
   7.3000000000000037E-002     2.9215327803445561E-016
   7.4500000000000038E-002     1.0320665248430010E-015
   7.6000000000000040E-002     1.5017093831447423E-015
   7.7500000000000041E-002     1.4187409492621590E-015
   7.9000000000000042E-002     6.7586564151405282E-016
   8.0500000000000044E-002    -5.6537469061760551E-016
   8.2000000000000045E-002    -1.8774643766295152E-015
   8.3500000000000046E-002    -2.6898597821457631E-015
   8.5000000000000048E-002    -2.5075797812780746E-015
   8.6500000000000049E-002    -1.1520722241822305E-015
   8.8000000000000050E-002     1.0774234638611209E-015
   8.9499999999999996E-002     3.4139978753498932E-015
   9.0999999999999998E-002     4.8436398272124093E-015
   9.2499999999999999E-002     4.4917682457803084E-015
   9.4000000000000000E-002     2.0467807926132062E-015
   9.5500000000000002E-002    -1.9569173461639788E-015
   9.7000000000000003E-002    -6.1565877795919275E-015
   9.8500000000000004E-002    -8.7478711366929299E-015
  0.10000000000000001         -8.1644267135211704E-015
  0.10150000000000001         -3.8273940321432768E-015
  0.10300000000000001          3.3448823629365402E-015
  0.10450000000000001          1.0949970474045873E-014
  0.10600000000000001          1.5764919993694459E-014
  0.10750000000000001          1.4938575188826585E-014
  0.10900000000000001          7.3318722962726158E-015
  0.11050000000000001         -5.5350703264632385E-015
  0.11200000000000002         -1.9439096439717353E-014
  0.11350000000000002         -2.8566675606500281E-014
  0.11500000000000002         -2.7607126622478934E-014
  0.11650000000000002         -1.4187260573401000E-014
  0.11800000000000002          9.3018940589693645E-015
  0.11950000000000002          3.5424616608446546E-014
  0.12100000000000002          5.3496802852106415E-014
  0.12250000000000003          5.3255698258412521E-014
  0.12400000000000003          2.9362587788928749E-014
  0.12550000000000003         -1.4922530949426626E-014
  0.12700000000000003         -6.6649921117523709E-014
  0.12850000000000003         -1.0582704007695626E-013
  0.13000000000000003         -1.1173132546836043E-013
  0.13150000000000003         -7.1304894449160220E-014
  0.13300000000000003          1.3212391339736041E-014
  0.13450000000000004          1.2069796477747088E-013
  0.13600000000000004          2.1414460288908017E-013
  0.13750000000000004          2.5083481130042262E-013
  0.13900000000000004          1.9762480508199166E-013
  0.14050000000000004          4.6751702676815860E-014
  0.14200000000000004         -1.7379430049268755E-013
  0.14350000000000004         -4.0072331606897897E-013
  0.14500000000000005         -5.4936795993056239E-013
  0.14650000000000005         -5.3932847065162947E-013
  0.14800000000000005         -3.2532903184595312E-013
  0.14950000000000005          7.6688840213007420E-014
  0.15100000000000005          5.7881423978581553E-013
  0.15250000000000000          1.0332574502157060E-012
  0.15400000000000000          1.2683640939206496E-012
  0.15550000000000000          1.1414927409412733E-012
  0.15700000000000000          5.9436662091882989E-013
  0.15850000000000000         -3.0727542583142922E-013
  0.16000000000000000         -1.3661963775544809E-012
  0.16150000000000000         -2.2872194235748931E-012
  0.16300000000000001         -2.7488338589458746E-012
  0.16450000000000001         -2.4970111402650765E-012
  0.16600000000000001         -1.4357437096138780E-012
  0.16750000000000001          3.1401238820848439E-013
  0.16900000000000001          2.4094966018596553E-012
  0.17050000000000001          4.3443125278062639E-012
  0.17200000000000001          5.5606946720216450E-012
  0.17350000000000002          5.5902336915258402E-012
  0.17500000000000002          4.1871897663467210E-012
  0.17650000000000002          1.4184593610119845E-012
  0.17800000000000002         -2.3152153405025384E-012
  0.17950000000000002         -6.3341210860591882E-012
  0.18100000000000002         -9.7980300003182816E-012
  0.18250000000000002         -1.1860608478367764E-011
  0.18400000000000002         -1.1826542717165690E-011
  0.18550000000000003         -9.2831844227891512E-012
  0.18700000000000003         -4.1912501390673599E-012
  0.18850000000000003          3.0668913891236159E-012
  0.19000000000000003          1.1674536160411640E-011
  0.19150000000000003          2.0398874967074171E-011
  0.19300000000000003          2.7647568510726162E-011
  0.19450000000000003          3.1587187957722201E-011
  0.19600000000000004          3.0356706744496715E-011
  0.19750000000000004          2.2401679788403647E-011
  0.19900000000000004          6.9241457550442485E-012
  0.20050000000000004         -1.5608388410586650E-011
  0.20200000000000004         -4.3010865473894303E-011
  0.20350000000000004         -7.1148018328276359E-011
  0.20500000000000004         -9.4093789501134687E-011
  0.20650000000000004         -1.0481198612937613E-010
  0.20800000000000005         -9.6385786736762004E-011
  0.20950000000000005         -6.3679543488737450E-011
  0.21100000000000005         -5.1600133494358768E-012
  0.21250000000000005          7.5520722409342299E-011
  0.21400000000000005          1.6863018788045105E-010
  0.21550000000000005          2.5854830367533601E-010
  0.21700000000000000          3.2529134446228294E-010
  0.21850000000000000          3.4736934945239807E-010
  0.22000000000000000          3.0569875167510945E-010
  0.22150000000000000          1.8803066952323386E-010
  0.22300000000000000         -6.8324448343629404E-012
  0.22450000000000001         -2.6583364611643627E-010
  0.22600000000000001         -5.6022046181438142E-010
  0.22750000000000001         -8.4644385312236394E-010
  0.22900000000000001         -1.0697174858065507E-009
  0.23050000000000001         -1.1702384085337616E-009
  0.23200000000000001         -1.0917288499652009E-009
  0.23350000000000001         -7.9160953165228210E-010
  0.23500000000000001         -2.5176115842885166E-010
  0.23650000000000002          5.1148379394887205E-010
  0.23800000000000002          1.4397425771030861E-009
  0.23950000000000002          2.4291380890573492E-009
  0.24100000000000002          3.3326986555748754E-009
  0.24250000000000002          3.9699346470711495E-009
  0.24400000000000002          4.1442329526396934E-009
  0.24550000000000002          3.6676858725961268E-009
  0.24700000000000003          2.3917470097215320E-009
  0.24850000000000003          2.4085215272431538E-010
  0.25000000000000000         -2.7548528068078002E-009
  0.25150000000000006         -6.4320381431115714E-009
  0.25300000000000000         -1.0476103350836278E-008
  0.25450000000000006         -1.4415607596914838E-008
  0.25600000000000001         -1.7630632165209276E-008
  0.25750000000000006         -1.9374364796922867E-008
  0.25900000000000001         -1.8804975001680226E-008
  0.26050000000000006         -1.5023038655920490E-008
  0.26200000000000001         -7.1084878378142059E-009
  0.26350000000000007          5.8491388479666904E-009
  0.26500000000000001          2.4732862662374338E-008
  0.26650000000000007          5.0397285828186371E-008
  0.26800000000000002          8.3687268786041195E-008
  0.26950000000000007          1.2547710187939374E-007
  0.27100000000000002          1.7672966784492898E-007
  0.27250000000000008          2.3857348856753484E-007
  0.27400000000000002          3.1239462985069389E-007
  0.27550000000000008          3.9994004780406887E-007
  0.27700000000000002          5.0342741958388200E-007
  0.27850000000000008          6.2565834209392873E-007
  0.28000000000000003          7.7012967438846351E-007
  0.28149999999999997          9.4113991411670073E-007
  0.28300000000000003          1.1438894501952449E-006
  0.28449999999999998          1.3845742296434245E-006
  0.28600000000000003          1.6704789063633747E-006
  0.28749999999999998          2.0100722047882844E-006
  0.28900000000000003          2.4131166474267261E-006
  0.29049999999999998          2.8908043181429022E-006
  0.29200000000000004          3.4559251085833370E-006
  0.29349999999999998          4.1230792524144110E-006
  0.29500000000000004          4.9089406278218394E-006
  0.29649999999999999          5.8325656936351424E-006
  0.29800000000000004          6.9157494308360110E-006
  0.29949999999999999          8.1834204559377371E-006
  0.30100000000000005          9.6640695473449145E-006
  0.30250000000000010          1.1390200446322534E-005
  0.30400000000000005          1.3398801946421729E-005
  0.30550000000000010          1.5731851504017072E-005
  0.30700000000000005          1.8436836769114208E-005
  0.30850000000000011          2.1567302554363106E-005
  0.31000000000000005          2.5183461534633624E-005
  0.31150000000000011          2.9352807998121908E-005
  0.31300000000000006          3.4150798771808039E-005
  0.31450000000000000          3.9661568031014463E-005
  0.31600000000000006          4.5978702349431902E-005
  0.31750000000000000          5.3206000867153251E-005
  0.31900000000000006          6.1458295487692454E-005
  0.32050000000000001          7.0862286378561314E-005
  0.32200000000000006          8.1557374869109460E-005
  0.32350000000000001          9.3696525222829169E-005
  0.32500000000000007          1.0744714347590382E-004
  0.32650000000000001          1.2299186761137909E-004
  0.32800000000000007          1.4052941693423090E-004
  0.32950000000000002          1.6027535023495395E-004
  0.33100000000000007          1.8246275052205186E-004
  0.33250000000000002          2.0734276789188919E-004
  0.33400000000000007          2.3518512490234807E-004
  0.33550000000000002          2.6627833948017889E-004
  0.33700000000000008          3.0092987165993240E-004
  0.33850000000000002          3.3946608315049362E-004
  0.34000000000000008          3.8223179839360890E-004
  0.34150000000000003          4.2958986633198214E-004
  0.34300000000000008          4.8192029197627621E-004
  0.34450000000000003          5.3961927535574436E-004
  0.34600000000000009          6.0309795276328052E-004
  0.34750000000000003          6.7278043578826473E-004
  0.34900000000000009          7.4910211045900585E-004
  0.35050000000000003          8.3250674973749930E-004
  0.35200000000000009          9.2344393910841313E-004
  0.35350000000000004          1.0223656766072016E-003
  0.35500000000000009          1.1297224097282252E-003
  0.35650000000000004          1.2459587725341804E-003
  0.35800000000000010          1.3715081861604686E-003
  0.35950000000000004          1.5067885559194060E-003
  0.36100000000000010          1.6521953550756674E-003
  0.36250000000000004          1.8080956461575411E-003
  0.36400000000000010          1.9748205728942715E-003
  0.36550000000000005          2.1526594010431084E-003
  0.36700000000000010          2.3418507678185096E-003
  0.36850000000000005          2.5425750733950995E-003
  0.37000000000000011          2.7549471305169824E-003
  0.37150000000000005          2.9790077638488554E-003
  0.37300000000000011          3.2147147744124686E-003
  0.37450000000000006          3.4619356752721227E-003
  0.37600000000000011          3.7204390801288175E-003
  0.37750000000000006          3.9898859419622255E-003
  0.37900000000000000          4.2698246100704275E-003
  0.38050000000000006          4.5596805228341683E-003
  0.38200000000000001          4.8587513221452295E-003
  0.38350000000000006          5.1661986300178108E-003
  0.38500000000000001          5.4810467110857804E-003
  0.38650000000000007          5.8021747392889341E-003
  0.38800000000000001          6.1283163478482424E-003
  0.38950000000000007          6.4580585072637059E-003
  0.39100000000000001          6.7898393770756292E-003
  0.39250000000000007          7.1219535279970596E-003
  0.39400000000000002          7.4525526009779535E-003
  0.39550000000000007          7.7796511803380885E-003
  0.39700000000000002          8.1011334735896310E-003
  0.39850000000000008          8.4147665453015597E-003
  0.40000000000000002          8.7182051147172077E-003
  0.40150000000000008          9.0090095780413978E-003
  0.40300000000000002          9.2846564452513571E-003
  0.40450000000000008          9.5425608648448800E-003
  0.40600000000000003          9.7800927659843079E-003
  0.40750000000000008          9.9945973747634937E-003
  0.40900000000000003          1.0183415001926250E-002
  0.41050000000000009          1.0343908187849648E-002
  0.41200000000000003          1.0473484966394274E-002
  0.41350000000000009          1.0569628979383574E-002
  0.41500000000000004          1.0629920821112979E-002
  0.41650000000000009          1.0652069921938682E-002
  0.41800000000000004          1.0633939521656543E-002
  0.41950000000000010          1.0573571693353817E-002
  0.42100000000000004          1.0469220875175593E-002
  0.42250000000000010          1.0319376037754955E-002
  0.42400000000000004          1.0122784958251899E-002
  0.42550000000000010          9.8784799752964052E-003
  0.42700000000000005          9.5857991919208307E-003
  0.42850000000000010          9.2444020480644401E-003
  0.43000000000000005          8.8542921740936142E-003
  0.43150000000000011          8.4158226953692204E-003
  0.43300000000000005          7.9297154069261772E-003
  0.43450000000000011          7.3970613725059739E-003
  0.43600000000000005          6.8193283677248856E-003
  0.43750000000000011          6.1983572874645208E-003
  0.43900000000000006          5.5363605920504006E-003
  0.44050000000000000          4.8359127523020205E-003
  0.44200000000000006          4.0999365426826959E-003
  0.44350000000000001          3.3316867555377317E-003
  0.44500000000000006          2.5347303902862081E-003
  0.44650000000000001          1.7129216274658773E-003
  0.44800000000000006          8.7037494842109203E-004
  0.44950000000000001          1.1434269339266276E-005
  0.45100000000000007         -8.5936217647473708E-004
  0.45250000000000001         -1.7373184728603887E-003
  0.45400000000000007         -2.6176201782519689E-003
  0.45550000000000002         -3.4953746977241080E-003
  0.45700000000000007         -4.3656530711046922E-003
  0.45850000000000002         -5.2235336900696575E-003
  0.46000000000000008         -6.0641457756099261E-003
  0.46150000000000002         -6.8827127295941429E-003
  0.46300000000000008         -7.6745943174378944E-003
  0.46450000000000002         -8.4353279871256012E-003
  0.46600000000000008         -9.1606705270780749E-003
  0.46750000000000003         -9.8466303240038692E-003
  0.46900000000000008         -1.0489509810389439E-002
  0.47050000000000003         -1.1085933102590397E-002
  0.47200000000000009         -1.1632871629703397E-002
  0.47350000000000003         -1.2127673629045474E-002
  0.47500000000000009         -1.2568082324029169E-002
  0.47650000000000003         -1.2952255742899944E-002
  0.47800000000000009         -1.3278773911897896E-002
  0.47950000000000004         -1.3546647344791937E-002
  0.48100000000000009         -1.3755319607217559E-002
  0.48250000000000004         -1.3904668505140926E-002
  0.48400000000000010         -1.3994996319864677E-002
  0.48550000000000004         -1.4027024058352103E-002
  0.48700000000000010         -1.4001872979577550E-002
  0.48850000000000005         -1.3921043947332503E-002
  0.49000000000000010         -1.3786403876145222E-002
  0.49150000000000005         -1.3600153681853322E-002
  0.49300000000000010         -1.3364803767454400E-002
  0.49450000000000005         -1.3083146066472416E-002
  0.49600000000000011         -1.2758216692212726E-002
  0.49750000000000005         -1.2393262097909983E-002
  0.49900000000000011         -1.1991709227871307E-002
  0.50050000000000006         -1.1557126233543149E-002
  0.50200000000000011         -1.1093190773431577E-002
  0.50350000000000006         -1.0603650115517260E-002
  0.50500000000000000         -1.0092286740002152E-002
  0.50650000000000006         -9.5628813747075866E-003
  0.50800000000000001         -9.0191852894796268E-003
  0.50950000000000006         -8.4648868618595052E-003
  0.51100000000000001         -7.9035838527021594E-003
  0.51250000000000007         -7.3387519538300897E-003
  0.51400000000000001         -6.7737264632545327E-003
  0.51550000000000007         -6.2116750618815865E-003
  0.51700000000000002         -5.6555838638546992E-003
  0.51850000000000007         -5.1082382341203613E-003
  0.52000000000000002         -4.5722100311292486E-003
  0.52150000000000007         -4.0498470289647859E-003
  0.52300000000000002         -3.5432645959017255E-003
  0.52450000000000008         -3.0543417875147335E-003
  0.52600000000000002         -2.5847166535889633E-003
  0.52750000000000008         -2.1357877181704572E-003
  0.52900000000000003         -1.7087166523627063E-003
  0.53050000000000008         -1.3044336127785705E-003
  0.53200000000000003         -9.2364351451354910E-004
  0.53350000000000009         -5.6683432088540809E-004
  0.53500000000000003         -2.3428660928833867E-004
  0.53650000000000009          7.3914236570554010E-005
  0.53800000000000003          3.5786540535786865E-004
  0.53950000000000009          6.1783256196059342E-004
  0.54100000000000004          8.5423534976617279E-004
  0.54250000000000009          1.0676329181283726E-003
  0.54400000000000004          1.2587096959474468E-003
  0.54550000000000010          1.4282607374551703E-003
  0.54700000000000004          1.5771768501108461E-003
  0.54850000000000010          1.7064295183432377E-003
  0.55000000000000004          1.8170558948848452E-003
  0.55150000000000010          1.9101451269614644E-003
  0.55300000000000005          1.9868252246714115E-003
  0.55450000000000010          2.0482526135367730E-003
  0.55600000000000005          2.0955989907344296E-003
  0.55750000000000011          2.1300421779879468E-003
  0.55900000000000005          2.1527549928783717E-003
  0.56050000000000011          2.1648957769357332E-003
  0.56200000000000006          2.1675991212207943E-003
  0.56350000000000011          2.1619695569984171E-003
  0.56500000000000006          2.1490756153646896E-003
  0.56650000000000011          2.1299472274123837E-003
  0.56800000000000006          2.1055722621137339E-003
  0.56950000000000001          2.0768914976931081E-003
  0.57100000000000006          2.0447958502550030E-003
  0.57250000000000001          2.0101231596459605E-003
  0.57400000000000007          1.9736580130856763E-003
  0.57550000000000001          1.9361308492387927E-003
  0.57700000000000007          1.8982204221932742E-003
  0.57850000000000001          1.8605544934392683E-003
  0.58000000000000007          1.8237108542006782E-003
  0.58150000000000002          1.7882179808592583E-003
  0.58300000000000007          1.7545551729083663E-003
  0.58450000000000002          1.7231552524288652E-003
  0.58600000000000008          1.6944075925229979E-003
  0.58750000000000002          1.6686631425005935E-003
  0.58900000000000008          1.6462383504819780E-003
  0.59050000000000002          1.6274177956448954E-003
  0.59200000000000008          1.6124563153674710E-003
  0.59350000000000003          1.6015792026089521E-003
  0.59500000000000008          1.5949850093986389E-003
  0.59650000000000003          1.5928481739470217E-003
  0.59800000000000009          1.5953237560768960E-003
  0.59950000000000003          1.6025512999106812E-003
  0.60100000000000009          1.6146577109065810E-003
  0.60250000000000004          1.6317584302203696E-003
  0.60400000000000009          1.6539565047758486E-003
  0.60550000000000004          1.6813433386310955E-003
  0.60700000000000010          1.7139989565100821E-003
  0.60850000000000004          1.7519945804396373E-003
  0.61000000000000010          1.7953952446311588E-003
  0.61150000000000004          1.8442605757086005E-003
  0.61300000000000010          1.8986430865712981E-003
  0.61450000000000005          1.9585853607633191E-003
  0.61600000000000010          2.0241171259949998E-003