 -0.19999999999999998          0.0000000000000000     
 -0.19849999999999998          0.0000000000000000     
 -0.19699999999999998          0.0000000000000000     
 -0.19549999999999998          0.0000000000000000     
 -0.19399999999999998          0.0000000000000000     
 -0.19249999999999998          0.0000000000000000     
 -0.19099999999999998          0.0000000000000000     
 -0.18949999999999997          0.0000000000000000     
 -0.18799999999999997          0.0000000000000000     
 -0.18649999999999997          0.0000000000000000     
 -0.18500000000000000          0.0000000000000000     
 -0.18350000000000000          0.0000000000000000     
 -0.18200000000000000          0.0000000000000000     
 -0.18049999999999999          0.0000000000000000     
 -0.17899999999999999          0.0000000000000000     
 -0.17749999999999999          0.0000000000000000     
 -0.17599999999999999          0.0000000000000000     
 -0.17449999999999999          0.0000000000000000     
 -0.17299999999999999          0.0000000000000000     
 -0.17149999999999999          0.0000000000000000     
 -0.16999999999999998          0.0000000000000000     
 -0.16849999999999998          2.4815391981276858E-039
 -0.16699999999999998          1.7649203599372975E-038
 -0.16549999999999998          1.2641800344104796E-037
 -0.16399999999999998          5.1700264341873739E-037
 -0.16249999999999998          1.2749190618570131E-036
 -0.16099999999999998          7.6438405066995400E-037
 -0.15949999999999998         -8.2832002147603067E-036
 -0.15799999999999997         -4.2011280140942784E-035
 -0.15649999999999997         -1.0826260364806542E-034
 -0.15499999999999997         -1.2671149393266660E-034
 -0.15349999999999997          2.3506362513453261E-034
 -0.15199999999999997          1.6407657484387873E-033
 -0.15049999999999997          4.4577706195606586E-033
 -0.14899999999999997          6.4121570065698712E-033
 -0.14749999999999999         -1.4892650484671759E-033
 -0.14599999999999999         -3.6290490511703693E-032
 -0.14449999999999999         -1.0906905613189590E-031
 -0.14299999999999999         -1.7929165230991474E-031
 -0.14149999999999999         -8.3229559486027370E-032
 -0.13999999999999999          4.8639714927234027E-031
 -0.13849999999999998          1.7672456350041724E-030
 -0.13699999999999998          3.2812788931444597E-030
 -0.13549999999999998          2.8720893192881815E-030
 -0.13399999999999998         -3.6131315653438142E-030
 -0.13249999999999998         -1.9964231397017844E-029
 -0.13099999999999998         -4.2564849845294578E-029
 -0.12949999999999998         -4.9990733500499850E-029
 -0.12799999999999997          1.5141740079071838E-030
 -0.12650000000000000          1.5833203931370443E-028
 -0.12499999999999999          4.0815520087228537E-028
 -0.12349999999999998          5.8722363782669490E-028
 -0.12199999999999998          3.2738972629601574E-028
 -0.12049999999999998         -8.1858779245989313E-028
 -0.11899999999999998         -2.9412759046499703E-027
 -0.11749999999999998         -5.0812727866005927E-027
 -0.11599999999999998         -4.7313957776471654E-027
 -0.11449999999999998          1.5767097641429624E-027
 -0.11299999999999998          1.5714054815983996E-026
 -0.11149999999999999          3.3572824185841079E-026
 -0.10999999999999999          4.1268329931513135E-026
 -0.10849999999999999          1.6844925676983354E-026
 -0.10699999999999998         -5.7272490894049051E-026
 -0.10549999999999998         -1.7073461243014148E-025
 -0.10399999999999998         -2.6138424012566251E-025
 -0.10249999999999998         -2.1468679408030410E-025
 -0.10099999999999998          8.6349286338050709E-026
  -9.9499999999999977E-002     6.5320966701611447E-025
  -9.7999999999999976E-002     1.2662663481372485E-024
  -9.6499999999999975E-002     1.4308156349354152E-024
  -9.4999999999999987E-002     5.3850966623273019E-025
  -9.3499999999999986E-002    -1.7089306684837909E-024
  -9.1999999999999985E-002    -4.7400570960517981E-024
  -9.0499999999999983E-002    -6.7842629193857531E-024
  -8.8999999999999982E-002    -5.2693703159190864E-024
  -8.7499999999999981E-002     1.7493083304748112E-024
  -8.5999999999999979E-002     1.3448674186192953E-023
  -8.4499999999999978E-002     2.4582770318310192E-023
  -8.2999999999999977E-002     2.6086476881816533E-023
  -8.1499999999999975E-002     9.2534528476754607E-024
  -7.9999999999999988E-002    -2.7119068933803847E-023
  -7.8499999999999986E-002    -7.0128938749088476E-023
  -7.6999999999999985E-002    -9.2424154413657090E-023
  -7.5499999999999984E-002    -6.2982764563742376E-023
  -7.3999999999999982E-002     3.1538164033311452E-023
  -7.2499999999999981E-002     1.6430199530501707E-022
  -7.0999999999999980E-002     2.6158859648896197E-022
  -6.9499999999999978E-002     2.2802628120723680E-022
  -6.7999999999999977E-002     5.6764276924332171E-024
  -6.6499999999999976E-002    -3.5649165865317111E-022
  -6.4999999999999974E-002    -6.7005459963536768E-022
  -6.3499999999999973E-002    -6.6136298430846523E-022
  -6.1999999999999972E-002    -1.2767731073045001E-022
  -6.0499999999999970E-002     8.5863993425540205E-022
  -5.8999999999999969E-002     1.8235732199680224E-021
  -5.7499999999999968E-002     1.9896775709450135E-021
  -5.5999999999999966E-002     6.6959354325193354E-022
  -5.4499999999999993E-002    -2.1519494217146342E-021
  -5.2999999999999992E-002    -5.3611851434768621E-021
  -5.1499999999999990E-002    -6.7981117653501288E-021
  -4.9999999999999989E-002    -4.1531894585158385E-021
  -4.8499999999999988E-002     3.4684794368500427E-021
  -4.6999999999999986E-002     1.4020970127729203E-020
  -4.5499999999999985E-002     2.2115001735780096E-020
  -4.3999999999999984E-002     2.0662644418366005E-020
  -4.2499999999999982E-002     4.6100056221176755E-021
  -4.0999999999999981E-002    -2.4579670636847159E-020
  -3.9499999999999980E-002    -5.6229135173010192E-020
  -3.7999999999999978E-002    -7.2204681752776709E-020
  -3.6499999999999977E-002    -5.4255174869283222E-020
  -3.4999999999999976E-002     4.9413504546533054E-021
  -3.3499999999999974E-002     9.2097374715569331E-020
  -3.1999999999999973E-002     1.7152197451306651E-019
  -3.0499999999999972E-002     1.9575075836987498E-019
  -2.8999999999999970E-002     1.2752322224146936E-019
  -2.7499999999999969E-002    -3.5213759746075502E-020
  -2.5999999999999968E-002    -2.4465018348907456E-019
  -2.4499999999999966E-002    -4.1109663222258279E-019
  -2.2999999999999993E-002    -4.3705297958522116E-019
  -2.1499999999999991E-002    -2.6675037073447670E-019
  -1.9999999999999990E-002     7.2022041632327761E-020
  -1.8499999999999989E-002     4.5997309108079962E-019
  -1.6999999999999987E-002     7.2673493183337363E-019
  -1.5499999999999986E-002     7.3005089888268723E-019
  -1.3999999999999985E-002     4.3821580483115245E-019
  -1.2499999999999983E-002    -3.2199814463671917E-020
  -1.0999999999999982E-002    -4.5828337650185898E-019
  -9.4999999999999807E-003    -6.2852922756317204E-019
  -7.9999999999999793E-003    -4.8356612342173397E-019
  -6.4999999999999780E-003    -1.9492897593871791E-019
  -4.9999999999999767E-003    -1.0756227522606427E-019
  -3.4999999999999754E-003    -5.3338127727660308E-019
  -1.9999999999999740E-003    -1.4756570776109307E-018
  -4.9999999999997269E-004    -2.4412187546065150E-018
   1.0000000000000286E-003    -2.5065744370728178E-018
   2.5000000000000300E-003    -7.1448116573870741E-019
   4.0000000000000313E-003     3.2935764413277205E-018
   5.5000000000000326E-003     8.6856005843815298E-018
   7.0000000000000340E-003     1.3256896612665621E-017
   8.5000000000000075E-003     1.3945180603816141E-017
   1.0000000000000009E-002     8.0611552742056012E-018
   1.1500000000000010E-002    -5.1227670293884284E-018
   1.3000000000000012E-002    -2.3100268785182922E-017
   1.4500000000000013E-002    -3.9928269922429390E-017
   1.6000000000000014E-002    -4.7575290433802832E-017
   1.7500000000000016E-002    -3.8719198882036839E-017
   1.9000000000000017E-002    -1.0194402029862438E-017
   2.0500000000000018E-002     3.4224834905689223E-017
   2.2000000000000020E-002     8.3070710110038954E-017
   2.3500000000000021E-002     1.1929709678093427E-016
   2.5000000000000022E-002     1.2512012309963637E-016
   2.6500000000000024E-002     8.8344245408116200E-017
   2.8000000000000025E-002     8.1588008262149852E-018
   2.9500000000000026E-002    -1.0172075915816104E-016
   3.1000000000000028E-002    -2.1404628094869160E-016
   3.2500000000000029E-002    -2.9345282609765454E-016
   3.4000000000000030E-002    -3.0527372563560737E-016
   3.5500000000000032E-002    -2.2574379685517573E-016
   3.7000000000000033E-002    -5.1185651530864206E-017
   3.8500000000000034E-002     1.9604909899505576E-016
   4.0000000000000008E-002     4.6660766658935310E-016
   4.1500000000000009E-002     6.8928910347691624E-016
   4.3000000000000010E-002     7.8292440431318270E-016
   4.4500000000000012E-002     6.7479717070019842E-016
   4.6000000000000013E-002     3.2399585045180223E-016
   4.7500000000000014E-002    -2.5421684796565729E-016
   4.9000000000000016E-002    -9.6979085309107826E-016
   5.0500000000000017E-002    -1.6540924179132590E-015
   5.2000000000000018E-002    -2.0799943217184326E-015
   5.3500000000000020E-002    -2.0109991765438196E-015
   5.5000000000000021E-002    -1.2760661131681081E-015
   5.6500000000000022E-002     1.4488728603595380E-016
   5.8000000000000024E-002     2.0513004964740481E-015
   5.9500000000000025E-002     4.0007550545361175E-015
   6.1000000000000026E-002     5.3647441987196280E-015
   6.2500000000000028E-002     5.4728868537863780E-015
   6.4000000000000029E-002     3.8285583259931360E-015
   6.5500000000000030E-002     3.4580485050539728E-016
   6.7000000000000032E-002    -4.4693832040755105E-015
   6.8500000000000033E-002    -9.4784716009212113E-015
   7.0000000000000034E-002    -1.3075453886198210E-014
   7.1500000000000036E-002    -1.3572261409321094E-014
   7.3000000000000037E-002    -9.7466275679616678E-015
   7.4500000000000038E-002    -1.4182402696625678E-015
   7.6000000000000040E-002     1.0135376439287653E-014
   7.7500000000000041E-002     2.2119105758990808E-014
   7.9000000000000042E-002     3.0655065159884855E-014
   8.0500000000000044E-002     3.1728395358709152E-014
   8.2000000000000045E-002     2.2493935630947833E-014
   8.3500000000000046E-002     2.6247703950348891E-015
   8.5000000000000048E-002    -2.4733576380563312E-014
   8.6500000000000049E-002    -5.2850081809459415E-014
   8.8000000000000050E-002    -7.2452047759801567E-014
   8.9499999999999996E-002    -7.3964888537090127E-014
   9.0999999999999998E-002    -5.0609519349330571E-014
   9.2499999999999999E-002    -1.6277774993979045E-015
   9.4000000000000000E-002     6.5377376850633221E-014
   9.5500000000000002E-002     1.3405165013725015E-013
   9.7000000000000003E-002     1.8164174462744720E-013
   9.8500000000000004E-002     1.8426587877957161E-013
  0.10000000000000001          1.2439933761158171E-013
  0.10150000000000001         -1.0778974735273017E-015
  0.10300000000000001         -1.7466885814288292E-013
  0.10450000000000001         -3.5651374808374625E-013
  0.10600000000000001         -4.8922326351634332E-013
  0.10750000000000001         -5.1004263963683454E-013
  0.10900000000000001         -3.6904531953343642E-013
  0.11050000000000001         -4.9722230576811286E-014
  0.11200000000000002          4.1364252909877373E-013
  0.11350000000000002          9.2831045114763794E-013
  0.11500000000000002          1.3508272967735431E-012
  0.11650000000000002          1.5130284874390136E-012
  0.11800000000000002          1.2645940346182533E-012
  0.11950000000000002          5.2491324932040922E-013
  0.12100000000000002         -6.6806629084954983E-013
  0.12250000000000003         -2.1273691084840571E-012
  0.12400000000000003         -3.5197331650686270E-012
  0.12550000000000003         -4.4114522933949780E-012
  0.12700000000000003         -4.3580034843606507E-012
  0.12850000000000003         -3.0260738450372217E-012
  0.13000000000000003         -3.2427069627898475E-013
  0.13150000000000003          3.4905610764666420E-012
  0.13300000000000003          7.7675079982461658E-012
  0.13450000000000004          1.1506634026058441E-011
  0.13600000000000004          1.3510161570411572E-011
  0.13750000000000004          1.2632035028519796E-011
  0.13900000000000004          8.0909343399390275E-012
  0.14050000000000004         -2.1356994348327024E-013
  0.14200000000000004         -1.1459281194527709E-011
  0.14350000000000004         -2.3814570430855783E-011
  0.14500000000000005         -3.4571537595994687E-011
  0.14650000000000005         -4.0529755210164320E-011
  0.14800000000000005         -3.8610841836381547E-011
  0.14950000000000005         -2.6625788172439409E-011
  0.15100000000000005         -4.0612249974472814E-012
  0.15250000000000000          2.7289011373420187E-011
  0.15400000000000000          6.3032256777010995E-011
  0.15550000000000000          9.6384619308163040E-011
  0.15700000000000000          1.1897002458484401E-010
  0.15850000000000000          1.2219847579549647E-010
  0.16000000000000000          9.9083463715078379E-011
  0.16150000000000000          4.6227994358492501E-011
  0.16300000000000001         -3.4397134538415808E-011
  0.16450000000000001         -1.3431196368222859E-010
  0.16600000000000001         -2.3842765536748168E-010
  0.16750000000000001         -3.2627898489586992E-010
  0.16900000000000001         -3.7467851677082277E-010
  0.17050000000000001         -3.6161567735812701E-010
  0.17200000000000001         -2.7093342921357271E-010
  0.17350000000000002         -9.7055801912754642E-011
  0.17500000000000002          1.5113335244553829E-010
  0.17650000000000002          4.4819100419929631E-010
  0.17800000000000002          7.5258579969480022E-010
  0.17950000000000002          1.0102152016194298E-009
  0.18100000000000002          1.1609852581046537E-009
  0.18250000000000002          1.1479315300913908E-009
  0.18400000000000002          9.2782611752139359E-010
  0.18550000000000003          4.8178606385250527E-010
  0.18700000000000003         -1.7584183981270606E-010
  0.18850000000000003         -9.9203297432298664E-010
  0.19000000000000003         -1.8745012723816355E-009
  0.19150000000000003         -2.6968738200482082E-009
  0.19300000000000003         -3.3097928478643327E-009
  0.19450000000000003         -3.5573157409185368E-009
  0.19600000000000004         -3.2972043125544116E-009
  0.19750000000000004         -2.4230856204258972E-009
  0.19900000000000004         -8.8609685278927360E-010
  0.20050000000000004          1.2864261117180466E-009
  0.20200000000000004          3.9773505756652520E-009
  0.20350000000000004          6.9727717855632720E-009
  0.20500000000000004          9.9623321829875783E-009
  0.20650000000000004          1.2546493430703181E-008
  0.20800000000000005          1.4249433942205390E-008
  0.20950000000000005          1.4535341474491535E-008
  0.21100000000000005          1.2825264487975405E-008
  0.21250000000000005          8.5113860880485983E-009
  0.21400000000000005          9.6572516152753384E-010
  0.21550000000000005         -1.0459243945866217E-008
  0.21700000000000000         -2.6439769223918215E-008
  0.21850000000000000         -4.7700586219599848E-008
  0.22000000000000000         -7.5045011581163104E-008
  0.22150000000000000         -1.0939432332393591E-007
  0.22300000000000000         -1.5183485123433238E-007
  0.22450000000000001         -2.0367100001439373E-007
  0.22600000000000001         -2.6648254061289069E-007
  0.22750000000000001         -3.4218509754850669E-007
  0.22900000000000001         -4.3309363890136687E-007
  0.23050000000000001         -5.4198940073525990E-007
  0.23200000000000001         -6.7219149231194969E-007
  0.23350000000000001         -8.2763522675957765E-007
  0.23500000000000001         -1.0129590742904288E-006
  0.23650000000000002         -1.2336037877880809E-006
  0.23800000000000002         -1.4959251417328359E-006
  0.23950000000000002         -1.8073243874397017E-006
  0.24100000000000002         -2.1763970308917491E-006
  0.24250000000000002         -2.6131031105827994E-006
  0.24400000000000002         -3.1289610749246009E-006
  0.24550000000000002         -3.7372675735680743E-006
  0.24700000000000003         -4.4533421442749678E-006
  0.24850000000000003         -5.2948011828474623E-006
  0.25000000000000000         -6.2818599325778263E-006
  0.25150000000000006         -7.4376676591783272E-006
  0.25300000000000000         -8.7886725469166340E-006
  0.25450000000000006         -1.0365017290683425E-005
  0.25600000000000001         -1.2200973832589247E-005
  0.25750000000000006         -1.4335409965412506E-005
  0.25900000000000001         -1.6812292951998652E-005
  0.26050000000000006         -1.9681236083335461E-005
  0.26200000000000001         -2.2998077353017748E-005
  0.26350000000000007         -2.6825506273523933E-005
  0.26500000000000001         -3.1233722216811072E-005
  0.26650000000000007         -3.6301136212801594E-005
  0.26800000000000002         -4.2115126773174219E-005
  0.26950000000000007         -4.8772798810507744E-005
  0.27100000000000002         -5.6381806392520563E-005
  0.27250000000000008         -6.5061188463082318E-005
  0.27400000000000002         -7.4942232819761342E-005
  0.27550000000000008         -8.6169349797397300E-005
  0.27700000000000002         -9.8900973180150904E-005
  0.27850000000000008         -1.1331040438764678E-004
  0.28000000000000003         -1.2958666337115521E-004
  0.28149999999999997         -1.4793527608024642E-004
  0.28300000000000003         -1.6857901864578335E-004
  0.28449999999999998         -1.9175851391146090E-004
  0.28600000000000003         -2.1773292443136479E-004
  0.28749999999999998         -2.4678029495341048E-004
  0.28900000000000003         -2.7919790987137238E-004
  0.29049999999999998         -3.1530252661315537E-004
  0.29200000000000004         -3.5543016314089652E-004
  0.29349999999999998         -3.9993606830982312E-004
  0.29500000000000004         -4.4919414205200209E-004
  0.29649999999999999         -5.0359635370764155E-004
  0.29800000000000004         -5.6355179484855397E-004
  0.29949999999999999         -6.2948502123684382E-004
  0.30100000000000005         -7.0183459540216261E-004
  0.30250000000000010         -7.8105089852171811E-004
  0.30400000000000005         -8.6759366266193298E-004
  0.30550000000000010         -9.6192877795590361E-004
  0.30700000000000005         -1.0645252145092196E-003
  0.30850000000000011         -1.1758508840968122E-003
  0.31000000000000005         -1.2963687322835784E-003
  0.31150000000000011         -1.4265313070050446E-003
  0.31300000000000006         -1.5667755565049579E-003
  0.31450000000000000         -1.7175173076694160E-003
  0.31600000000000006         -1.8791443839571084E-003
  0.31750000000000000         -2.0520105569263765E-003
  0.31900000000000006         -2.2364277834539814E-003
  0.32050000000000001         -2.4326590301275812E-003
  0.32200000000000006         -2.6409105586280013E-003
  0.32350000000000001         -2.8613227121204350E-003
  0.32500000000000007         -3.0939625327964515E-003
  0.32650000000000001         -3.3388144825469597E-003
  0.32800000000000007         -3.5957718541496410E-003
  0.32950000000000002         -3.8646290976031700E-003
  0.33100000000000007         -4.1450731964073687E-003
  0.33250000000000002         -4.4366764287452690E-003
  0.33400000000000007         -4.7388860625779475E-003
  0.33550000000000002         -5.0510198913253021E-003
  0.33700000000000008         -5.3722588231792517E-003
  0.33850000000000002         -5.7016421600203301E-003
  0.34000000000000008         -6.0380624559573728E-003
  0.34150000000000003         -6.3802638364234485E-003
  0.34300000000000008         -6.7268377887026998E-003
  0.34450000000000003         -7.0762228101360139E-003
  0.34600000000000009         -7.4267062720375643E-003
  0.34750000000000003         -7.7764273043720647E-003
  0.34900000000000009         -8.1233782028112475E-003
  0.35050000000000003         -8.4654147722268216E-003
  0.35200000000000009         -8.8002612268906905E-003
  0.35350000000000004         -9.1255215793697303E-003
  0.35500000000000009         -9.4386921634478788E-003
  0.35650000000000004         -9.7371748718588363E-003
  0.35800000000000010         -1.0018292815827501E-002
  0.35950000000000004         -1.0279310607083939E-002
  0.36100000000000010         -1.0517452475415967E-002
  0.36250000000000004         -1.0729925942035048E-002
  0.36400000000000010         -1.0913943408443802E-002
  0.36550000000000005         -1.1066747089968923E-002
  0.36700000000000010         -1.1185636150473494E-002
  0.36850000000000005         -1.1267989498053341E-002
  0.37000000000000011         -1.1311295568123686E-002
  0.37150000000000005         -1.1313183081591210E-002
  0.37300000000000011         -1.1271445190534829E-002
  0.37450000000000006         -1.1184072386086555E-002
  0.37600000000000011         -1.1049276745632802E-002
  0.37750000000000006         -1.0865515632073344E-002
  0.37900000000000000         -1.0631521304961852E-002
  0.38050000000000006         -1.0346320551101643E-002
  0.38200000000000001         -1.0009257693189097E-002
  0.38350000000000006         -9.6200182357990133E-003
  0.38500000000000001         -9.1786397247328594E-003
  0.38650000000000007         -8.6855285345665278E-003
  0.38800000000000001         -8.1414694327805737E-003
  0.38950000000000007         -7.5476298660586763E-003
  0.39100000000000001         -6.9055635314966002E-003
  0.39250000000000007         -6.2172122168021524E-003
  0.39400000000000002         -5.4848995243087645E-003
  0.39550000000000007         -4.7113225751634624E-003
  0.39700000000000002         -3.8995404600867499E-003
  0.39850000000000008         -3.0529563446749092E-003
  0.40000000000000002         -2.1752956863461716E-003
  0.40150000000000008         -1.2705813923600678E-003
  0.40300000000000002         -3.4310569370533950E-004
  0.40450000000000008          6.0260125296841035E-004
  0.40600000000000003          1.5618044858961792E-003
  0.40750000000000008          2.5296021495350273E-003
  0.40900000000000003          3.5009644203014764E-003
  0.41050000000000009          4.4707773443399962E-003
  0.41200000000000003          5.4338852871207086E-003
  0.41350000000000009          6.3851363945111560E-003
  0.41500000000000004          7.3194254563995476E-003
  0.41650000000000009          8.2317369823888820E-003
  0.41800000000000004          9.1171926082933424E-003
  0.41950000000000010          9.9710899193539287E-003
  0.42100000000000004          1.0788947305054884E-002
  0.42250000000000010          1.1566541945019090E-002
  0.42400000000000004          1.2299946087727172E-002
  0.42550000000000010          1.2985563174032350E-002
  0.42700000000000005          1.3620156042650232E-002
  0.42850000000000010          1.4200874470118793E-002
  0.43000000000000005          1.4725277134380918E-002
  0.43150000000000011          1.5191353197280488E-002
  0.43300000000000005          1.5597536579338087E-002
  0.43450000000000011          1.5942710686982567E-002
  0.43600000000000005          1.6226222616143218E-002
  0.43750000000000011          1.6447874878226423E-002
  0.43900000000000006          1.6607928234017438E-002
  0.44050000000000000          1.6707089912894324E-002
  0.44200000000000006          1.6746501958717727E-002
  0.44350000000000001          1.6727718484821325E-002
  0.44500000000000006          1.6652695988560909E-002
  0.44650000000000001          1.6523764009745229E-002
  0.44800000000000006          1.6343594343630821E-002
  0.44950000000000001          1.6115173869513888E-002
  0.45100000000000007          1.5841765603552146E-002
  0.45250000000000001          1.5526880794250450E-002
  0.45400000000000007          1.5174241481132930E-002
  0.45550000000000002          1.4787735354071033E-002
  0.45700000000000007          1.4371385753904301E-002
  0.45850000000000002          1.3929304515689245E-002
  0.46000000000000008          1.3465652955993154E-002
  0.46150000000000002          1.2984606360039411E-002
  0.46300000000000008          1.2490310053350759E-002
  0.46450000000000002          1.1986848405007938E-002
  0.46600000000000008          1.1478201504963648E-002
  0.46750000000000003          1.0968213519378517E-002
  0.46900000000000008          1.0460563393419886E-002
  0.47050000000000003          9.9587308894971277E-003
  0.47200000000000009          9.4659698937886450E-003
  0.47350000000000003          8.9852836822237325E-003
  0.47500000000000009          8.5194027786531512E-003
  0.47650000000000003          8.0707674444241012E-003
  0.47800000000000009          7.6415101995937068E-003
  0.47950000000000004          7.2334425704517619E-003
  0.48100000000000009          6.8480458520410042E-003
  0.48250000000000004          6.4864645040377117E-003
  0.48400000000000010          6.1495030943324591E-003
  0.48550000000000004          5.8376275574134051E-003
  0.48700000000000010          5.5509642087167160E-003
  0.48850000000000005          5.2893079056472031E-003
  0.49000000000000010          5.0521278554513799E-003
  0.49150000000000005          4.8385814885519712E-003
  0.49300000000000010          4.6475259947495184E-003
  0.49450000000000005          4.4775345238388248E-003
  0.49600000000000011          4.3269146949464349E-003
  0.49750000000000005          4.1937300406668515E-003
  0.49900000000000011          4.0758205587930196E-003
  0.50050000000000006          3.9708279490237725E-003
  0.50200000000000011          3.8762201236912236E-003
  0.50350000000000006          3.7893190714029870E-003
  0.50500000000000000          3.7073274189360420E-003
  0.50650000000000006          3.6273585651034543E-003
  0.50800000000000001          3.5464671465071859E-003
  0.50950000000000006          3.4616788426241885E-003
  0.51100000000000001          3.3700215060742042E-003
  0.51250000000000007          3.2685550011183409E-003
  0.51400000000000001          3.1544008030936696E-003
  0.51550000000000007          3.0247719170150011E-003
  0.51700000000000002          2.8770024860680296E-003
  0.51850000000000007          2.7085786156657785E-003
  0.52000000000000002          2.5171670818283573E-003
  0.52150000000000007          2.3006408819331858E-003
  0.52300000000000002          2.0571029897866258E-003
  0.52450000000000008          1.7849071250611026E-003
  0.52600000000000002          1.4826784378640726E-003
  0.52750000000000008          1.1493331577708960E-003
  0.52900000000000003          7.8409625192783772E-004
  0.53050000000000008          3.8651787793777745E-004
  0.53200000000000003         -4.3515896531047798E-005
  0.53350000000000009         -5.0577668029864022E-004
  0.53500000000000003         -9.9969132425304502E-004
  0.53650000000000009         -1.5243418137150921E-003
  0.53800000000000003         -2.0784667467722111E-003
  0.53950000000000009         -2.6604626988002734E-003
  0.54100000000000004         -3.2683895013820886E-003
  0.54250000000000009         -3.8999800603760140E-003
  0.54400000000000004         -4.5526594255962324E-003
  0.54550000000000010         -5.2235626808675370E-003
  0.54700000000000004         -5.9095591504978381E-003
  0.54850000000000010         -6.6072751687323641E-003
  0.55000000000000004         -7.3131152247183639E-003
  0.55150000000000010         -8.0232910308279115E-003
  0.55300000000000005         -8.7338460822579261E-003
  0.55450000000000010         -9.4406922565276330E-003
  0.55600000000000005         -1.0139647238332578E-002
  0.55750000000000011         -1.0826472641264837E-002
  0.55900000000000005         -1.1496911584012531E-002
  0.56050000000000011         -1.2146723277829993E-002
  0.56200000000000006         -1.2771712767487106E-002
  0.56350000000000011         -1.3367768502381847E-002
  0.56500000000000006         -1.3930896570027745E-002
  0.56650000000000011         -1.4457261507700422E-002
  0.56800000000000006         -1.4943222219618635E-002
  0.56950000000000001         -1.5385365442626225E-002
  0.57100000000000006         -1.5780532313604129E-002
  0.57250000000000001         -1.6125846566936025E-002
  0.57400000000000007         -1.6418733854965228E-002
  0.57550000000000001         -1.6656949735526588E-002
  0.57700000000000007         -1.6838589909370039E-002
  0.57850000000000001         -1.6962121837888033E-002
  0.58000000000000007         -1.7026390905231004E-002
  0.58150000000000002         -1.7030630198691304E-002
  0.58300000000000007         -1.6974468516854746E-002
  0.58450000000000002         -1.6857920766430251E-002
  0.58600000000000008         -1.6681399455419132E-002
  0.58750000000000002         -1.6445699041693823E-002
  0.58900000000000008         -1.6151996534618324E-002
  0.59050000000000002         -1.5801844388333708E-002
  0.59200000000000008         -1.5397147784201204E-002
  0.59350000000000003         -1.4940158290316169E-002
  0.59500000000000008         -1.4433439119949099E-002
  0.59650000000000003         -1.3879848331728034E-002
  0.59800000000000009         -1.3282511879435105E-002
  0.59950000000000003         -1.2644803759782552E-002
  0.60100000000000009         -1.1970317755064727E-002
  0.60250000000000004         -1.1262838170187320E-002
  0.60400000000000009         -1.0526313500719767E-002
  0.60550000000000004         -9.7648180263561896E-003
  0.60700000000000010         -8.9825221364416286E-003
  0.60850000000000004         -8.1836617385766114E-003
  0.61000000000000010         -7.3725057974647068E-003
  0.61150000000000004         -6.5533374862625365E-003
  0.61300000000000010         -5.7304194603103598E-003
  0.61450000000000005         -4.9079672156581433E-003
  0.61600000000000010         -4.0901215981077460E-003