 -0.19999999999999998          0.0000000000000000     
 -0.19849999999999998          0.0000000000000000     
 -0.19699999999999998          0.0000000000000000     
 -0.19549999999999998          0.0000000000000000     
 -0.19399999999999998          0.0000000000000000     
 -0.19249999999999998          0.0000000000000000     
 -0.19099999999999998          0.0000000000000000     
 -0.18949999999999997          0.0000000000000000     
 -0.18799999999999997          0.0000000000000000     
 -0.18649999999999997          0.0000000000000000     
 -0.18500000000000000          0.0000000000000000     
 -0.18350000000000000          0.0000000000000000     
 -0.18200000000000000          0.0000000000000000     
 -0.18049999999999999          0.0000000000000000     
 -0.17899999999999999          0.0000000000000000     
 -0.17749999999999999          0.0000000000000000     
 -0.17599999999999999          0.0000000000000000     
 -0.17449999999999999          0.0000000000000000     
 -0.17299999999999999          0.0000000000000000     
 -0.17149999999999999          0.0000000000000000     
 -0.16999999999999998          0.0000000000000000     
 -0.16849999999999998          0.0000000000000000     
 -0.16699999999999998          9.5479793224736374E-040
 -0.16549999999999998         -7.4572770981007512E-038
 -0.16399999999999998         -4.1172990375163015E-037
 -0.16249999999999998         -1.1270753565891965E-036
 -0.16099999999999998         -9.0869463831706500E-037
 -0.15949999999999998          6.8409740650813105E-036
 -0.15799999999999997          3.7941753869062695E-035
 -0.15649999999999997          1.0360539542430473E-034
 -0.15499999999999997          1.3517222009545865E-034
 -0.15349999999999997         -1.8626776713095153E-034
 -0.15199999999999997         -1.5539825232835416E-033
 -0.15049999999999997         -4.4983276777217994E-033
 -0.14899999999999997         -7.0512740411832360E-033
 -0.14749999999999999         -2.1198938501771387E-034
 -0.14599999999999999          3.4749305525938895E-032
 -0.14449999999999999          1.1393740770093518E-031
 -0.14299999999999999          2.0345139789123563E-031
 -0.14149999999999999          1.3523806594165391E-031
 -0.13999999999999999         -4.4114413388275351E-031
 -0.13849999999999998         -1.8703699964406471E-030
 -0.13699999999999998         -3.8013323457735883E-030
 -0.13549999999999998         -4.0061286480210878E-030
 -0.13399999999999998          2.3636997854408097E-030
 -0.13249999999999998          2.0761586984247889E-029
 -0.13099999999999998          4.9609242269980587E-029
 -0.12949999999999998          6.7161049941980275E-029
 -0.12799999999999997          2.1860386203415711E-029
 -0.12650000000000000         -1.5226319889231235E-028
 -0.12499999999999999         -4.6912807000562393E-028
 -0.12349999999999998         -7.7167730728031657E-028
 -0.12199999999999998         -6.2911736239133007E-028
 -0.12049999999999998          5.8456633931395926E-028
 -0.11899999999999998          3.2274159006223424E-027
 -0.11749999999999998          6.4994591486656829E-027
 -0.11599999999999998          7.5465165108931985E-027
 -0.11449999999999998          1.6216173357888320E-027
 -0.11299999999999998         -1.5321026075154417E-026
 -0.11149999999999999         -4.1072362640728219E-026
 -0.10999999999999999         -6.0731272756388176E-026
 -0.10849999999999999         -4.5205575679922363E-026
 -0.10699999999999998          3.7292717304201130E-026
 -0.10549999999999998          1.9225564072310798E-025
 -0.10399999999999998          3.6045512025717861E-025
 -0.10249999999999998          3.9728603726287790E-025
 -0.10099999999999998          1.1083400883970490E-025
  -9.9499999999999977E-002    -6.1168074978144083E-025
  -9.7999999999999976E-002    -1.6117428840643302E-024
  -9.6499999999999975E-002    -2.3102638045112488E-024
  -9.4999999999999987E-002    -1.7822034114729099E-024
  -9.3499999999999986E-002     7.8610185463123753E-025
  -9.1999999999999985E-002     5.2862984935219722E-024
  -9.0499999999999983E-002     9.8938567535410129E-024
  -8.8999999999999982E-002     1.0988492148184473E-023
  -8.7499999999999981E-002     4.5026233587056961E-024
  -8.5999999999999979E-002    -1.1174319848620199E-023
  -8.4499999999999978E-002    -3.1804300178901062E-023
  -8.2999999999999977E-002    -4.5788236534222228E-023
  -8.1499999999999975E-002    -3.7285982668821811E-023
  -7.9999999999999988E-002     4.8544836741545146E-024
  -7.8499999999999986E-002     7.4952972928762475E-023
  -7.6999999999999985E-002     1.4228300938071825E-022
  -7.5499999999999984E-002     1.5613871047532387E-022
  -7.3999999999999982E-002     6.9876080055662991E-023
  -7.2499999999999981E-002    -1.2121241587525431E-022
  -7.0999999999999980E-002    -3.4780550327444310E-022
  -6.9499999999999978E-002    -4.6901967019998553E-022
  -6.7999999999999977E-002    -3.3112247216082160E-022
  -6.6499999999999976E-002     1.2472262538803001E-022
  -6.4999999999999974E-002     7.5575470462763473E-022
  -6.3499999999999973E-002     1.1948023274571287E-021
  -6.1999999999999972E-002     9.8476889832842503E-022
  -6.0499999999999970E-002    -1.2833539169430111E-022
  -5.8999999999999969E-002    -1.8631087507962879E-021
  -5.7499999999999968E-002    -3.2589753899452971E-021
  -5.5999999999999966E-002    -2.9553578332910004E-021
  -5.4499999999999993E-002     3.6543404822294990E-023
  -5.2999999999999992E-002     5.3215130716914911E-021
  -5.1499999999999990E-002     1.0459586464839805E-020
  -4.9999999999999989E-002     1.1370298650848797E-020
  -4.8499999999999988E-002     4.1985289960589221E-021
  -4.6999999999999986E-002    -1.1753650507555075E-020
  -4.5499999999999985E-002    -3.1415463580927665E-020
  -4.3999999999999984E-002    -4.3659078595760524E-020
  -4.2499999999999982E-002    -3.4943790790145120E-020
  -4.0999999999999981E-002     3.1989462496128366E-021
  -3.9499999999999980E-002     6.5519312099874445E-020
  -3.7999999999999978E-002     1.2816575982173657E-019
  -3.6499999999999977E-002     1.5275004357795543E-019
  -3.4999999999999976E-002     1.0164506593599957E-019
  -3.3499999999999974E-002    -3.8998654409679833E-020
  -3.1999999999999973E-002    -2.3850409195079143E-019
  -3.0499999999999972E-002    -4.1663424704231741E-019
  -2.8999999999999970E-002    -4.6467882788042951E-019
  -2.7499999999999969E-002    -2.9246580731850544E-019
  -2.5999999999999968E-002     1.1398059460554865E-019
  -2.4499999999999966E-002     6.5192449662398343E-019
  -2.2999999999999993E-002     1.1078924452024289E-018
  -2.1499999999999991E-002     1.2249020083878772E-018
  -1.9999999999999990E-002     8.1729000269715987E-019
  -1.8499999999999989E-002    -1.1149971987756153E-019
  -1.6999999999999987E-002    -1.3095613947309810E-018
  -1.5499999999999986E-002    -2.3250842188238230E-018
  -1.3999999999999985E-002    -2.6689989084093500E-018
  -1.2499999999999983E-002    -2.0378053335560664E-018
  -1.0999999999999982E-002    -4.9489896163383699E-019
  -9.4999999999999807E-003     1.4954210691812212E-018
  -7.9999999999999793E-003     3.2319222830758832E-018
  -6.4999999999999780E-003     4.0889828142103186E-018
  -4.9999999999999767E-003     3.8290715418831076E-018
  -3.4999999999999754E-003     2.7281906796053270E-018
  -1.9999999999999740E-003     1.3928200315205755E-018
  -4.9999999999997269E-004     3.1041425038144263E-019
   1.0000000000000286E-003    -6.3108877384901329E-019
   2.5000000000000300E-003    -2.3070427516939452E-018
   4.0000000000000313E-003    -5.9265393079747404E-018
   5.5000000000000326E-003    -1.2015989161301035E-017
   7.0000000000000340E-003    -1.9227703366877469E-017
   8.5000000000000075E-003    -2.3714223877013803E-017
   1.0000000000000009E-002    -1.9828754163558650E-017
   1.1500000000000010E-002    -2.4779748537208938E-018
   1.3000000000000012E-002     2.9374796380119496E-017
   1.4500000000000013E-002     6.9474672186230446E-017
   1.6000000000000014E-002     1.0325863161826677E-016
   1.7500000000000016E-002     1.1070915213518371E-016
   1.9000000000000017E-002     7.3434868036547889E-017
   2.0500000000000018E-002    -1.5664605337333392E-017
   2.2000000000000020E-002    -1.4374185136879319E-016
   2.3500000000000021E-002    -2.7485930691663699E-016
   2.5000000000000022E-002    -3.5595385488557128E-016
   2.6500000000000024E-002    -3.3260118364342874E-016
   2.8000000000000025E-002    -1.7112688575104987E-016
   2.9500000000000026E-002     1.2024930880864417E-016
   3.1000000000000028E-002     4.8031527984965410E-016
   3.2500000000000029E-002     8.0124348629593098E-016
   3.4000000000000030E-002     9.5469066264489483E-016
   3.5500000000000032E-002     8.3257268411970020E-016
   3.7000000000000033E-002     3.9067090265945633E-016
   3.8500000000000034E-002    -3.2017822767861816E-016
   4.0000000000000008E-002    -1.1486343610458038E-015
   4.1500000000000009E-002    -1.8692425677340900E-015
   4.3000000000000010E-002    -2.2364660975579838E-015
   4.4500000000000012E-002    -2.0525693759929426E-015
   4.6000000000000013E-002    -1.2304171913112830E-015
   4.7500000000000014E-002     1.6635360855110802E-016
   4.9000000000000016E-002     1.9160953139754769E-015
   5.0500000000000017E-002     3.6654232968970516E-015
   5.2000000000000018E-002     4.9818317936928208E-015
   5.3500000000000020E-002     5.4230905365404468E-015
   5.5000000000000021E-002     4.6169851385240478E-015
   5.6500000000000022E-002     2.3500116688114740E-015
   5.8000000000000024E-002    -1.3353793241088823E-015
   5.9500000000000025E-002    -6.0435750664246871E-015
   6.1000000000000026E-002    -1.0955015774682998E-014
   6.2500000000000028E-002    -1.4829100538659627E-014
   6.4000000000000029E-002    -1.6139155224282169E-014
   6.5500000000000030E-002    -1.3384427859039581E-014
   6.7000000000000032E-002    -5.5768677219633824E-015
   6.8500000000000033E-002     7.1771110217007906E-015
   7.0000000000000034E-002     2.3167405922329504E-014
   7.1500000000000036E-002     3.8874179738762811E-014
   7.3000000000000037E-002     4.9294690837187899E-014
   7.4500000000000038E-002     4.8938642781703421E-014
   7.6000000000000040E-002     3.3438295138274359E-014
   7.7500000000000041E-002     1.4697661306281432E-015
   7.9000000000000042E-002    -4.3556625586313473E-014
   8.0500000000000044E-002    -9.2713240671465428E-014
   8.2000000000000045E-002    -1.3229829282394301E-013
   8.3500000000000046E-002    -1.4642984315341449E-013
   8.5000000000000048E-002    -1.2130534292393006E-013
   8.6500000000000049E-002    -5.0322112151824150E-014
   8.8000000000000050E-002     6.1301308968411244E-014
   8.9499999999999996E-002     1.9404872510655631E-013
   9.0999999999999998E-002     3.1526314078758492E-013
   9.2499999999999999E-002     3.8474367414105769E-013
   9.4000000000000000E-002     3.6445133674234345E-013
   9.5500000000000002E-002     2.3062525602511480E-013
   9.7000000000000003E-002    -1.4623597304224493E-014
   9.8500000000000004E-002    -3.3586540304752839E-013
  0.10000000000000001         -6.6446950647800177E-013
  0.10150000000000001         -9.0843367453157757E-013
  0.10300000000000001         -9.7183236054054692E-013
  0.10450000000000001         -7.8099734519791452E-013
  0.10600000000000001         -3.1185342261036052E-013
  0.10750000000000001          3.8896768416603681E-013
  0.10900000000000001          1.1968030526904894E-012
  0.11050000000000001          1.9211432445973707E-012
  0.11200000000000002          2.3391812203190160E-012
  0.11350000000000002          2.2472689615293223E-012
  0.11500000000000002          1.5211503856820093E-012
  0.11650000000000002          1.7120021997198189E-013
  0.11800000000000002         -1.6232408865547494E-012
  0.11950000000000002         -3.5148733861863728E-012
  0.12100000000000002         -5.0336638637068468E-012
  0.12250000000000003         -5.6759790889647617E-012
  0.12400000000000003         -5.0259828360705293E-012
  0.12550000000000003         -2.8864780699579070E-012
  0.12700000000000003          6.1174591008363838E-013
  0.12850000000000003          4.9553652372656019E-012
  0.13000000000000003          9.2766259048246552E-012
  0.13150000000000003          1.2478149956190941E-011
  0.13300000000000003          1.3447752927524594E-011
  0.13450000000000004          1.1332296475392400E-011
  0.13600000000000004          5.8170899222121357E-012
  0.13750000000000004         -2.6573156995382040E-012
  0.13900000000000004         -1.2810291068247621E-011
  0.14050000000000004         -2.2621599498489721E-011
  0.14200000000000004         -2.9637324919088308E-011
  0.14350000000000004         -3.1455190202328070E-011
  0.14500000000000005         -2.6312752636320312E-011
  0.14650000000000005         -1.3659114792777137E-011
  0.14800000000000005          5.4317615224643642E-012
  0.14950000000000005          2.8140186625218401E-011
  0.15100000000000005          5.0163470344930164E-011
  0.15250000000000000          6.6379230502695872E-011
  0.15400000000000000          7.1833470176739389E-011
  0.15550000000000000          6.2885665829647628E-011
  0.15700000000000000          3.8275962509140399E-011
  0.15850000000000000         -1.4254784647658016E-013
  0.16000000000000000         -4.7227300889956713E-011
  0.16150000000000000         -9.5052093331741906E-011
  0.16300000000000001         -1.3408469589963475E-010
  0.16450000000000001         -1.5487365517344339E-010
  0.16600000000000001         -1.4994917776851088E-010
  0.16750000000000001         -1.1556530623542554E-010
  0.16900000000000001         -5.2909410778349592E-011
  0.17050000000000001          3.1511512258717510E-011
  0.17200000000000001          1.2644589731703353E-010
  0.17350000000000002          2.1738280940193108E-010
  0.17500000000000002          2.8871167155271574E-010
  0.17650000000000002          3.2618558687780067E-010
  0.17800000000000002          3.1926076556936701E-010
  0.17950000000000002          2.6291890212369887E-010
  0.18100000000000002          1.5869199242390510E-010
  0.18250000000000002          1.4770940850356964E-011
  0.18400000000000002         -1.5475368522587726E-010
  0.18550000000000003         -3.3133436175605100E-010
  0.18700000000000003         -4.9383480502074108E-010
  0.18850000000000003         -6.2056020709440038E-010
  0.19000000000000003         -6.9123550100439661E-010
  0.19150000000000003         -6.8880029621530876E-010
  0.19300000000000003         -6.0096814472030785E-010
  0.19450000000000003         -4.2155438352902808E-010
  0.19600000000000004         -1.5159317727833920E-010
  0.19750000000000004          1.9974793167601716E-010
  0.19900000000000004          6.1447434932754475E-010
  0.20050000000000004          1.0653316198905535E-009
  0.20200000000000004          1.5156671580126115E-009
  0.20350000000000004          1.9195905435934739E-009
  0.20500000000000004          2.2223802765882447E-009
  0.20650000000000004          2.3610400945506698E-009
  0.20800000000000005          2.2648696668233744E-009
  0.20950000000000005          1.8558996976876692E-009
  0.21100000000000005          1.0490578974904286E-009
  0.21250000000000005         -2.4805530755349843E-010
  0.21400000000000005         -2.1359250767725841E-009
  0.21550000000000005         -4.7245882258950433E-009
  0.21700000000000000         -8.1360913519997217E-009
  0.21850000000000000         -1.2508276233069788E-008
  0.22000000000000000         -1.8000326956435981E-008
  0.22150000000000000         -2.4800408878874777E-008
  0.22300000000000000         -3.3135632004054404E-008
  0.22450000000000001         -4.3284169405568411E-008
  0.22600000000000001         -5.5589103622728682E-008
  0.22750000000000001         -7.0473115793472187E-008
  0.22900000000000001         -8.8452955781259145E-008
  0.23050000000000001         -1.1015270378845202E-007
  0.23200000000000001         -1.3631522256836252E-007
  0.23350000000000001         -1.6781196402428708E-007
  0.23500000000000001         -2.0565205231858997E-007
  0.23650000000000002         -2.5099245556902621E-007
  0.23800000000000002         -3.0515177337382563E-007
  0.23950000000000002         -3.6963026479388789E-007
  0.24100000000000002         -4.4613841442567902E-007
  0.24250000000000002         -5.3663532307864065E-007
  0.24400000000000002         -6.4337753325078716E-007
  0.24550000000000002         -7.6897645005732431E-007
  0.24700000000000003         -9.1646214472024094E-007
  0.24850000000000003         -1.0893512396976773E-006
  0.25000000000000000         -1.2917154790439294E-006
  0.25150000000000006         -1.5282500690471309E-006
  0.25300000000000000         -1.8043397039309972E-006
  0.25450000000000006         -2.1261277775802440E-006
  0.25600000000000001         -2.5005862527352203E-006
  0.25750000000000006         -2.9355953701497210E-006
  0.25900000000000001         -3.4400326030098178E-006
  0.26050000000000006         -4.0238760255659699E-006
  0.26200000000000001         -4.6983249542516663E-006
  0.26350000000000007         -5.4759335594293371E-006
  0.26500000000000001         -6.3707583165606698E-006
  0.26650000000000007         -7.3985149248304623E-006
  0.26800000000000002         -8.5767395305659091E-006
  0.26950000000000007         -9.9249461305602656E-006
  0.27100000000000002         -1.1464791020967990E-005
  0.27250000000000008         -1.3220231289517729E-005
  0.27400000000000002         -1.5217685753790748E-005
  0.27550000000000008         -1.7486190512806717E-005
  0.27700000000000002         -2.0057567412172086E-005
  0.27850000000000008         -2.2966577220476518E-005
  0.28000000000000003         -2.6251088926451045E-005
  0.28149999999999997         -2.9952236173853614E-005
  0.28300000000000003         -3.4114566658502150E-005
  0.28449999999999998         -3.8786181612042697E-005
  0.28600000000000003         -4.4018847866938169E-005
  0.28749999999999998         -4.9868085933729700E-005
  0.28900000000000003         -5.6393225903276351E-005
  0.29049999999999998         -6.3657430707527048E-005
  0.29200000000000004         -7.1727689254358557E-005
  0.29349999999999998         -8.0674777128523459E-005
  0.29500000000000004         -9.0573147935680729E-005
  0.29649999999999999         -1.0150077675275779E-004
  0.29800000000000004         -1.1353894247855559E-004
  0.29949999999999999         -1.2677196708030009E-004
  0.30100000000000005         -1.4128684077216203E-004
  0.30250000000000010         -1.5717276417348406E-004
  0.30400000000000005         -1.7452058594721713E-004
  0.30550000000000010         -1.9342213486558545E-004
  0.30700000000000005         -2.1396948204653393E-004
  0.30850000000000011         -2.3625419633271525E-004
  0.31000000000000005         -2.6036630456789786E-004
  0.31150000000000011         -2.8639339398196881E-004
  0.31300000000000006         -3.1441936741964465E-004
  0.31450000000000000         -3.4452328975447888E-004
  0.31600000000000006         -3.7677804901046466E-004
  0.31750000000000000         -4.1124877382654897E-004
  0.31900000000000006         -4.4799147263451336E-004
  0.32050000000000001         -4.8705118846131986E-004
  0.32200000000000006         -5.2846038274003641E-004
  0.32350000000000001         -5.7223705800531644E-004
  0.32500000000000007         -6.1838275286157614E-004
  0.32650000000000001         -6.6688076606980526E-004
  0.32800000000000007         -7.1769443759893967E-004
  0.32950000000000002         -7.7076494095681643E-004
  0.33100000000000007         -8.2600955285178036E-004
  0.33250000000000002         -8.8332000240832131E-004
  0.33400000000000007         -9.4256059951919238E-004
  0.33550000000000002         -1.0035665221381292E-003
  0.33700000000000008         -1.0661421729208456E-003
  0.33850000000000002         -1.1300596992646179E-003
  0.34000000000000008         -1.1950580470954781E-003
  0.34150000000000003         -1.2608419954297108E-003
  0.34300000000000008         -1.3270815360373099E-003
  0.34450000000000003         -1.3934112438520924E-003
  0.34600000000000009         -1.4594302052077699E-003
  0.34750000000000003         -1.5247026793064351E-003
  0.34900000000000009         -1.5887584440669178E-003
  0.35050000000000003         -1.6510940119057087E-003
  0.35200000000000009         -1.7111744295121574E-003
  0.35350000000000004         -1.7684351502267048E-003
  0.35500000000000009         -1.8222841764075522E-003
  0.35650000000000004         -1.8721051089422994E-003
  0.35800000000000010         -1.9172605178340513E-003
  0.35950000000000004         -1.9570958183958796E-003
  0.36100000000000010         -1.9909438692212868E-003
  0.36250000000000004         -2.0181304742715339E-003
  0.36400000000000010         -2.0379791196984695E-003
  0.36550000000000005         -2.0498156094536056E-003
  0.36700000000000010         -2.0529748362681827E-003
  0.36850000000000005         -2.0468064038867643E-003
  0.37000000000000011         -2.0306815849522601E-003
  0.37150000000000005         -2.0040006142393262E-003
  0.37300000000000011         -1.9661994504954084E-003
  0.37450000000000006         -1.9167563056376449E-003
  0.37600000000000011         -1.8551989046122598E-003
  0.37750000000000006         -1.7811101902499224E-003
  0.37900000000000000         -1.6941369812129626E-003
  0.38050000000000006         -1.5939955742181266E-003
  0.38200000000000001         -1.4804788444703967E-003
  0.38350000000000006         -1.3534614832050353E-003
  0.38500000000000001         -1.2129048286456546E-003
  0.38650000000000007         -1.0588607029216974E-003
  0.38800000000000001         -8.9147535612507656E-004
  0.38950000000000007         -7.1099257712070509E-004
  0.39100000000000001         -5.1775649338591011E-004
  0.39250000000000007         -3.1221347960149175E-004
  0.39400000000000002         -9.4912749416722203E-005
  0.39550000000000007          1.3349435610575345E-004
  0.39700000000000002          3.7225578202872145E-004
  0.39850000000000008          6.2052181312358297E-004
  0.40000000000000002          8.7734794162532426E-004
  0.40150000000000008          1.1417001513627130E-003
  0.40300000000000002          1.4124599374666152E-003
  0.40450000000000008          1.6884314649803535E-003
  0.40600000000000003          1.9683496463147165E-003
  0.40750000000000008          2.2508891327282926E-003
  0.40900000000000003          2.5346727670604099E-003
  0.41050000000000009          2.8182825048000569E-003
  0.41200000000000003          3.1002685330843395E-003
  0.41350000000000009          3.3791598727747679E-003
  0.41500000000000004          3.6534780021407007E-003
  0.41650000000000009          3.9217469634940261E-003
  0.41800000000000004          4.1825076820361136E-003
  0.41950000000000010          4.4343288579078953E-003
  0.42100000000000004          4.6758206133538155E-003
  0.42250000000000010          4.9056448359903523E-003
  0.42400000000000004          5.1225272339890278E-003
  0.42550000000000010          5.3252704501366268E-003
  0.42700000000000005          5.5127624122398742E-003
  0.42850000000000010          5.6839875037287459E-003
  0.43000000000000005          5.8380359004344094E-003
  0.43150000000000011          5.9741097588296259E-003
  0.43300000000000005          6.0915312569453893E-003
  0.43450000000000011          6.1897475451799487E-003
  0.43600000000000005          6.2683377677543416E-003
  0.43750000000000011          6.3270155974826277E-003
  0.43900000000000006          6.3656318584190737E-003
  0.44050000000000000          6.3841741501735553E-003
  0.44200000000000006          6.3827660735709894E-003
  0.44350000000000001          6.3616664961505271E-003
  0.44500000000000006          6.3212674514417705E-003
  0.44650000000000001          6.2620890320208922E-003
  0.44800000000000006          6.1847743297147552E-003
  0.44950000000000001          6.0900842006006489E-003
  0.45100000000000007          5.9788895526491741E-003
  0.45250000000000001          5.8521601842953068E-003
  0.45400000000000007          5.7109592513087948E-003
  0.45550000000000002          5.5564326203645618E-003
  0.45700000000000007          5.3897968513803123E-003
  0.45850000000000002          5.2123279423367565E-003
  0.46000000000000008          5.0253492460099851E-003
  0.46150000000000002          4.8302196769187573E-003
  0.46300000000000008          4.6283218259764829E-003
  0.46450000000000002          4.4210524917325765E-003
  0.46600000000000008          4.2098079958406039E-003
  0.46750000000000003          3.9959738502737645E-003
  0.46900000000000008          3.7809133692513590E-003
  0.47050000000000003          3.5659563638325391E-003
  0.47200000000000009          3.3523885753419143E-003
  0.47350000000000003          3.1414418765860035E-003
  0.47500000000000009          2.9342843549247759E-003
  0.47650000000000003          2.7320130409204009E-003
  0.47800000000000009          2.5356462690958974E-003
  0.47950000000000004          2.3461170447047069E-003
  0.48100000000000009          2.1642652368714932E-003
  0.48250000000000004          1.9908326051016750E-003
  0.48400000000000010          1.8264591864306755E-003
  0.48550000000000004          1.6716818955533792E-003
  0.48700000000000010          1.5269344513696333E-003
  0.48850000000000005          1.3925454510202717E-003
  0.49000000000000010          1.2687377840852540E-003
  0.49150000000000005          1.1556286035397587E-003
  0.49300000000000010          1.0532287336709294E-003
  0.49450000000000005          9.6144535820998425E-004
  0.49600000000000011          8.8008835830882468E-004
  0.49750000000000005          8.0887393455244747E-004
  0.49900000000000011          7.4743086142561171E-004
  0.50050000000000006          6.9530322901087405E-004
  0.50200000000000011          6.5195647751886687E-004
  0.50350000000000006          6.1678430515470575E-004
  0.50500000000000000          5.8911630330453144E-004
  0.50650000000000006          5.6822717335986567E-004
  0.50800000000000001          5.5334513412428482E-004
  0.50950000000000006          5.4366003640571314E-004
  0.51100000000000001          5.3832963044869037E-004
  0.51250000000000007          5.3648746359818283E-004
  0.51400000000000001          5.3725299376665078E-004
  0.51550000000000007          5.3974041963037594E-004
  0.51700000000000002          5.4306939743913388E-004
  0.51850000000000007          5.4637589300995937E-004
  0.52000000000000002          5.4882100516290971E-004
  0.52150000000000007          5.4959898122615772E-004
  0.52300000000000002          5.4794557536575611E-004
  0.52450000000000008          5.4314434772270020E-004
  0.52600000000000002          5.3453494575450566E-004
  0.52750000000000008          5.2152037664543634E-004
  0.52900000000000003          5.0357698126781824E-004
  0.53050000000000008          4.8026120213746047E-004
  0.53200000000000003          4.5121697619444553E-004
  0.53350000000000009          4.1618198926826871E-004
  0.53500000000000003          3.7499257401626377E-004
  0.53650000000000009          3.2758928972392073E-004
  0.53800000000000003          2.7402137429103496E-004
  0.53950000000000009          2.1444812215469337E-004
  0.54100000000000004          1.4913863895411189E-004
  0.54250000000000009          7.8472324671934740E-005
  0.54400000000000004          2.9419493900693927E-006
  0.54550000000000010         -7.6844036218107897E-005
  0.54700000000000004         -1.6016154778582259E-004
  0.54850000000000010         -2.4617098980655658E-004
  0.55000000000000004         -3.3391958258397608E-004
  0.55150000000000010         -4.2234652526241395E-004
  0.55300000000000005         -5.1028792184759295E-004
  0.55450000000000010         -5.9648288370963906E-004
  0.55600000000000005         -6.7958089225281237E-004
  0.55750000000000011         -7.5814821423108615E-004
  0.55900000000000005         -8.3067588517648648E-004
  0.56050000000000011         -8.9558830703068051E-004
  0.56200000000000006         -9.5125166152642583E-004
  0.56350000000000011         -9.9598185091710409E-004
  0.56500000000000006         -1.0280547274940949E-003
  0.56650000000000011         -1.0457164185095555E-003
  0.56800000000000006         -1.0471965292873225E-003
  0.56950000000000001         -1.0307232311203736E-003
  0.57100000000000006         -9.9453913274499470E-004
  0.57250000000000001         -9.3691413296067769E-004
  0.57400000000000007         -8.5615877432375885E-004
  0.57550000000000001         -7.5063648078638537E-004
  0.57700000000000007         -6.1877614962429746E-004
  0.57850000000000001         -4.5908747516098386E-004
  0.58000000000000007         -2.7017677407364200E-004
  0.58150000000000002         -5.0763702767455884E-005
  0.58300000000000007          2.0030359308985390E-004
  0.58450000000000002          4.8403489337540961E-004
  0.58600000000000008          8.0128499132953168E-004
  0.58750000000000002          1.1527392730103971E-003
  0.58900000000000008          1.5388971670934355E-003
  0.59050000000000002          1.9600572151374923E-003
  0.59200000000000008          2.4163016011672350E-003
  0.59350000000000003          2.9074848446914922E-003
  0.59500000000000008          3.4332262780217369E-003
  0.59650000000000003          3.9929024615498621E-003
  0.59800000000000009          4.5856377610654885E-003
  0.59950000000000003          5.2102927825736622E-003
  0.60100000000000009          5.8654551458101369E-003
  0.60250000000000004          6.5494304180086903E-003
  0.60400000000000009          7.2602385530681143E-003
  0.60550000000000004          7.9956110350488489E-003
  0.60700000000000010          8.7529965279960157E-003
  0.60850000000000004          9.5295555381138576E-003
  0.61000000000000010          1.0322166951107520E-002
  0.61150000000000004          1.1127430917962283E-002
  0.61300000000000010          1.1941677355458171E-002
  0.61450000000000005          1.2760973608954760E-002
  0.61600000000000010          1.3581139832731366E-002