 -0.19999999999999998          0.0000000000000000     
 -0.19849999999999998          0.0000000000000000     
 -0.19699999999999998          0.0000000000000000     
 -0.19549999999999998          0.0000000000000000     
 -0.19399999999999998          0.0000000000000000     
 -0.19249999999999998          0.0000000000000000     
 -0.19099999999999998          0.0000000000000000     
 -0.18949999999999997          0.0000000000000000     
 -0.18799999999999997          0.0000000000000000     
 -0.18649999999999997          0.0000000000000000     
 -0.18500000000000000          0.0000000000000000     
 -0.18350000000000000          0.0000000000000000     
 -0.18200000000000000          0.0000000000000000     
 -0.18049999999999999          0.0000000000000000     
 -0.17899999999999999          0.0000000000000000     
 -0.17749999999999999          0.0000000000000000     
 -0.17599999999999999          0.0000000000000000     
 -0.17449999999999999          0.0000000000000000     
 -0.17299999999999999          0.0000000000000000     
 -0.17149999999999999          0.0000000000000000     
 -0.16999999999999998          0.0000000000000000     
 -0.16849999999999998          0.0000000000000000     
 -0.16699999999999998          0.0000000000000000     
 -0.16549999999999998          0.0000000000000000     
 -0.16399999999999998          0.0000000000000000     
 -0.16249999999999998          0.0000000000000000     
 -0.16099999999999998          0.0000000000000000     
 -0.15949999999999998          0.0000000000000000     
 -0.15799999999999997          0.0000000000000000     
 -0.15649999999999997          0.0000000000000000     
 -0.15499999999999997          0.0000000000000000     
 -0.15349999999999997          0.0000000000000000     
 -0.15199999999999997          0.0000000000000000     
 -0.15049999999999997          0.0000000000000000     
 -0.14899999999999997          0.0000000000000000     
 -0.14749999999999999          0.0000000000000000     
 -0.14599999999999999          0.0000000000000000     
 -0.14449999999999999          0.0000000000000000     
 -0.14299999999999999          0.0000000000000000     
 -0.14149999999999999          0.0000000000000000     
 -0.13999999999999999          0.0000000000000000     
 -0.13849999999999998          0.0000000000000000     
 -0.13699999999999998          0.0000000000000000     
 -0.13549999999999998          0.0000000000000000     
 -0.13399999999999998          0.0000000000000000     
 -0.13249999999999998          0.0000000000000000     
 -0.13099999999999998          0.0000000000000000     
 -0.12949999999999998          0.0000000000000000     
 -0.12799999999999997          0.0000000000000000     
 -0.12650000000000000          0.0000000000000000     
 -0.12499999999999999          0.0000000000000000     
 -0.12349999999999998          0.0000000000000000     
 -0.12199999999999998          0.0000000000000000     
 -0.12049999999999998          0.0000000000000000     
 -0.11899999999999998          0.0000000000000000     
 -0.11749999999999998          0.0000000000000000     
 -0.11599999999999998          0.0000000000000000     
 -0.11449999999999998          0.0000000000000000     
 -0.11299999999999998          0.0000000000000000     
 -0.11149999999999999          0.0000000000000000     
 -0.10999999999999999          0.0000000000000000     
 -0.10849999999999999          0.0000000000000000     
 -0.10699999999999998          0.0000000000000000     
 -0.10549999999999998          0.0000000000000000     
 -0.10399999999999998          0.0000000000000000     
 -0.10249999999999998          0.0000000000000000     
 -0.10099999999999998          0.0000000000000000     
  -9.9499999999999977E-002     0.0000000000000000     
  -9.7999999999999976E-002     0.0000000000000000     
  -9.6499999999999975E-002     0.0000000000000000     
  -9.4999999999999987E-002     0.0000000000000000     
  -9.3499999999999986E-002     0.0000000000000000     
  -9.1999999999999985E-002     0.0000000000000000     
  -9.0499999999999983E-002     0.0000000000000000     
  -8.8999999999999982E-002     0.0000000000000000     
  -8.7499999999999981E-002     0.0000000000000000     
  -8.5999999999999979E-002     0.0000000000000000     
  -8.4499999999999978E-002     0.0000000000000000     
  -8.2999999999999977E-002     0.0000000000000000     
  -8.1499999999999975E-002     0.0000000000000000     
  -7.9999999999999988E-002     0.0000000000000000     
  -7.8499999999999986E-002     0.0000000000000000     
  -7.6999999999999985E-002     0.0000000000000000     
  -7.5499999999999984E-002     0.0000000000000000     
  -7.3999999999999982E-002     0.0000000000000000     
  -7.2499999999999981E-002     0.0000000000000000     
  -7.0999999999999980E-002     0.0000000000000000     
  -6.9499999999999978E-002     0.0000000000000000     
  -6.7999999999999977E-002     0.0000000000000000     
  -6.6499999999999976E-002     0.0000000000000000     
  -6.4999999999999974E-002     0.0000000000000000     
  -6.3499999999999973E-002     0.0000000000000000     
  -6.1999999999999972E-002     0.0000000000000000     
  -6.0499999999999970E-002     0.0000000000000000     
  -5.8999999999999969E-002     0.0000000000000000     
  -5.7499999999999968E-002     0.0000000000000000     
  -5.5999999999999966E-002     0.0000000000000000     
  -5.4499999999999993E-002     0.0000000000000000     
  -5.2999999999999992E-002     0.0000000000000000     
  -5.1499999999999990E-002     0.0000000000000000     
  -4.9999999999999989E-002     0.0000000000000000     
  -4.8499999999999988E-002     0.0000000000000000     
  -4.6999999999999986E-002     0.0000000000000000     
  -4.5499999999999985E-002     0.0000000000000000     
  -4.3999999999999984E-002     0.0000000000000000     
  -4.2499999999999982E-002     0.0000000000000000     
  -4.0999999999999981E-002     0.0000000000000000     
  -3.9499999999999980E-002     0.0000000000000000     
  -3.7999999999999978E-002     0.0000000000000000     
  -3.6499999999999977E-002     0.0000000000000000     
  -3.4999999999999976E-002     0.0000000000000000     
  -3.3499999999999974E-002     0.0000000000000000     
  -3.1999999999999973E-002     0.0000000000000000     
  -3.0499999999999972E-002     0.0000000000000000     
  -2.8999999999999970E-002     0.0000000000000000     
  -2.7499999999999969E-002     0.0000000000000000     
  -2.5999999999999968E-002     0.0000000000000000     
  -2.4499999999999966E-002     0.0000000000000000     
  -2.2999999999999993E-002     0.0000000000000000     
  -2.1499999999999991E-002     0.0000000000000000     
  -1.9999999999999990E-002     0.0000000000000000     
  -1.8499999999999989E-002     0.0000000000000000     
  -1.6999999999999987E-002     0.0000000000000000     
  -1.5499999999999986E-002     0.0000000000000000     
  -1.3999999999999985E-002     0.0000000000000000     
  -1.2499999999999983E-002     0.0000000000000000     
  -1.0999999999999982E-002     0.0000000000000000     
  -9.4999999999999807E-003     0.0000000000000000     
  -7.9999999999999793E-003     0.0000000000000000     
  -6.4999999999999780E-003     0.0000000000000000     
  -4.9999999999999767E-003     0.0000000000000000     
  -3.4999999999999754E-003     0.0000000000000000     
  -1.9999999999999740E-003     0.0000000000000000     
  -4.9999999999997269E-004     0.0000000000000000     
   1.0000000000000286E-003     0.0000000000000000     
   2.5000000000000300E-003     0.0000000000000000     
   4.0000000000000313E-003     0.0000000000000000     
   5.5000000000000326E-003     0.0000000000000000     
   7.0000000000000340E-003     0.0000000000000000     
   8.5000000000000075E-003     0.0000000000000000     
   1.0000000000000009E-002     0.0000000000000000     
   1.1500000000000010E-002     0.0000000000000000     
   1.3000000000000012E-002     0.0000000000000000     
   1.4500000000000013E-002     0.0000000000000000     
   1.6000000000000014E-002     0.0000000000000000     
   1.7500000000000016E-002     0.0000000000000000     
   1.9000000000000017E-002     0.0000000000000000     
   2.0500000000000018E-002     0.0000000000000000     
   2.2000000000000020E-002     0.0000000000000000     
   2.3500000000000021E-002     0.0000000000000000     
   2.5000000000000022E-002     0.0000000000000000     
   2.6500000000000024E-002     0.0000000000000000     
   2.8000000000000025E-002     0.0000000000000000     
   2.9500000000000026E-002     0.0000000000000000     
   3.1000000000000028E-002     0.0000000000000000     
   3.2500000000000029E-002     0.0000000000000000     
   3.4000000000000030E-002     0.0000000000000000     
   3.5500000000000032E-002     0.0000000000000000     
   3.7000000000000033E-002     0.0000000000000000     
   3.8500000000000034E-002     0.0000000000000000     
   4.0000000000000008E-002     0.0000000000000000     
   4.1500000000000009E-002     0.0000000000000000     
   4.3000000000000010E-002     0.0000000000000000     
   4.4500000000000012E-002     0.0000000000000000     
   4.6000000000000013E-002     0.0000000000000000     
   4.7500000000000014E-002     0.0000000000000000     
   4.9000000000000016E-002     0.0000000000000000     
   5.0500000000000017E-002     0.0000000000000000     
   5.2000000000000018E-002     0.0000000000000000     
   5.3500000000000020E-002     0.0000000000000000     
   5.5000000000000021E-002     0.0000000000000000     
   5.6500000000000022E-002     0.0000000000000000     
   5.8000000000000024E-002     0.0000000000000000     
   5.9500000000000025E-002     0.0000000000000000     
   6.1000000000000026E-002     0.0000000000000000     
   6.2500000000000028E-002     0.0000000000000000     
   6.4000000000000029E-002     0.0000000000000000     
   6.5500000000000030E-002     0.0000000000000000     
   6.7000000000000032E-002     0.0000000000000000     
   6.8500000000000033E-002     0.0000000000000000     
   7.0000000000000034E-002     0.0000000000000000     
   7.1500000000000036E-002     0.0000000000000000     
   7.3000000000000037E-002     0.0000000000000000     
   7.4500000000000038E-002     0.0000000000000000     
   7.6000000000000040E-002     0.0000000000000000     
   7.7500000000000041E-002     0.0000000000000000     
   7.9000000000000042E-002     0.0000000000000000     
   8.0500000000000044E-002     0.0000000000000000     
   8.2000000000000045E-002     0.0000000000000000     
   8.3500000000000046E-002     0.0000000000000000     
   8.5000000000000048E-002     0.0000000000000000     
   8.6500000000000049E-002     0.0000000000000000     
   8.8000000000000050E-002     0.0000000000000000     
   8.9499999999999996E-002     0.0000000000000000     
   9.0999999999999998E-002     0.0000000000000000     
   9.2499999999999999E-002     0.0000000000000000     
   9.4000000000000000E-002     0.0000000000000000     
   9.5500000000000002E-002     0.0000000000000000     
   9.7000000000000003E-002     0.0000000000000000     
   9.8500000000000004E-002     0.0000000000000000     
  0.10000000000000001          0.0000000000000000     
  0.10150000000000001          0.0000000000000000     
  0.10300000000000001          0.0000000000000000     
  0.10450000000000001          0.0000000000000000     
  0.10600000000000001          0.0000000000000000     
  0.10750000000000001          0.0000000000000000     
  0.10900000000000001          0.0000000000000000     
  0.11050000000000001          0.0000000000000000     
  0.11200000000000002          0.0000000000000000     
  0.11350000000000002          0.0000000000000000     
  0.11500000000000002          0.0000000000000000     
  0.11650000000000002          0.0000000000000000     
  0.11800000000000002          0.0000000000000000     
  0.11950000000000002          0.0000000000000000     
  0.12100000000000002          0.0000000000000000     
  0.12250000000000003          0.0000000000000000     
  0.12400000000000003          0.0000000000000000     
  0.12550000000000003          0.0000000000000000     
  0.12700000000000003          0.0000000000000000     
  0.12850000000000003          0.0000000000000000     
  0.13000000000000003          0.0000000000000000     
  0.13150000000000003          0.0000000000000000     
  0.13300000000000003          0.0000000000000000     
  0.13450000000000004          0.0000000000000000     
  0.13600000000000004          0.0000000000000000     
  0.13750000000000004          0.0000000000000000     
  0.13900000000000004          0.0000000000000000     
  0.14050000000000004          0.0000000000000000     
  0.14200000000000004          0.0000000000000000     
  0.14350000000000004          0.0000000000000000     
  0.14500000000000005          0.0000000000000000     
  0.14650000000000005          0.0000000000000000     
  0.14800000000000005          0.0000000000000000     
  0.14950000000000005          0.0000000000000000     
  0.15100000000000005          0.0000000000000000     
  0.15250000000000000          0.0000000000000000     
  0.15400000000000000          0.0000000000000000     
  0.15550000000000000          0.0000000000000000     
  0.15700000000000000          0.0000000000000000     
  0.15850000000000000          0.0000000000000000     
  0.16000000000000000          0.0000000000000000     
  0.16150000000000000          0.0000000000000000     
  0.16300000000000001          0.0000000000000000     
  0.16450000000000001          0.0000000000000000     
  0.16600000000000001          0.0000000000000000     
  0.16750000000000001          0.0000000000000000     
  0.16900000000000001          0.0000000000000000     
  0.17050000000000001          0.0000000000000000     
  0.17200000000000001          0.0000000000000000     
  0.17350000000000002          0.0000000000000000     
  0.17500000000000002          0.0000000000000000     
  0.17650000000000002          0.0000000000000000     
  0.17800000000000002          0.0000000000000000     
  0.17950000000000002          0.0000000000000000     
  0.18100000000000002          0.0000000000000000     
  0.18250000000000002          0.0000000000000000     
  0.18400000000000002          0.0000000000000000     
  0.18550000000000003          0.0000000000000000     
  0.18700000000000003          0.0000000000000000     
  0.18850000000000003          0.0000000000000000     
  0.19000000000000003          0.0000000000000000     
  0.19150000000000003          0.0000000000000000     
  0.19300000000000003          0.0000000000000000     
  0.19450000000000003          0.0000000000000000     
  0.19600000000000004          0.0000000000000000     
  0.19750000000000004          0.0000000000000000     
  0.19900000000000004          0.0000000000000000     
  0.20050000000000004          0.0000000000000000     
  0.20200000000000004          0.0000000000000000     
  0.20350000000000004          0.0000000000000000     
  0.20500000000000004          0.0000000000000000     
  0.20650000000000004          0.0000000000000000     
  0.20800000000000005          0.0000000000000000     
  0.20950000000000005          0.0000000000000000     
  0.21100000000000005          0.0000000000000000     
  0.21250000000000005          0.0000000000000000     
  0.21400000000000005          0.0000000000000000     
  0.21550000000000005          0.0000000000000000     
  0.21700000000000000          0.0000000000000000     
  0.21850000000000000          0.0000000000000000     
  0.22000000000000000          0.0000000000000000     
  0.22150000000000000          0.0000000000000000     
  0.22300000000000000          0.0000000000000000     
  0.22450000000000001          0.0000000000000000     
  0.22600000000000001          0.0000000000000000     
  0.22750000000000001          0.0000000000000000     
  0.22900000000000001          0.0000000000000000     
  0.23050000000000001          0.0000000000000000     
  0.23200000000000001          0.0000000000000000     
  0.23350000000000001          0.0000000000000000     
  0.23500000000000001          0.0000000000000000     
  0.23650000000000002          0.0000000000000000     
  0.23800000000000002          0.0000000000000000     
  0.23950000000000002          0.0000000000000000     
  0.24100000000000002          0.0000000000000000     
  0.24250000000000002          0.0000000000000000     
  0.24400000000000002          0.0000000000000000     
  0.24550000000000002          0.0000000000000000     
  0.24700000000000003          0.0000000000000000     
  0.24850000000000003          0.0000000000000000     
  0.25000000000000000          0.0000000000000000     
  0.25150000000000006          0.0000000000000000     
  0.25300000000000000          0.0000000000000000     
  0.25450000000000006          0.0000000000000000     
  0.25600000000000001          0.0000000000000000     
  0.25750000000000006          0.0000000000000000     
  0.25900000000000001          0.0000000000000000     
  0.26050000000000006          0.0000000000000000     
  0.26200000000000001          0.0000000000000000     
  0.26350000000000007          0.0000000000000000     
  0.26500000000000001          0.0000000000000000     
  0.26650000000000007          0.0000000000000000     
  0.26800000000000002          0.0000000000000000     
  0.26950000000000007          0.0000000000000000     
  0.27100000000000002          0.0000000000000000     
  0.27250000000000008          0.0000000000000000     
  0.27400000000000002          0.0000000000000000     
  0.27550000000000008          0.0000000000000000     
  0.27700000000000002          0.0000000000000000     
  0.27850000000000008          0.0000000000000000     
  0.28000000000000003          0.0000000000000000     
  0.28149999999999997          0.0000000000000000     
  0.28300000000000003          0.0000000000000000     
  0.28449999999999998          0.0000000000000000     
  0.28600000000000003          0.0000000000000000     
  0.28749999999999998          0.0000000000000000     
  0.28900000000000003          0.0000000000000000     
  0.29049999999999998          0.0000000000000000     
  0.29200000000000004          0.0000000000000000     
  0.29349999999999998          0.0000000000000000     
  0.29500000000000004          0.0000000000000000     
  0.29649999999999999          0.0000000000000000     
  0.29800000000000004          0.0000000000000000     
  0.29949999999999999          0.0000000000000000     
  0.30100000000000005          0.0000000000000000     
  0.30250000000000010          0.0000000000000000     
  0.30400000000000005          0.0000000000000000     
  0.30550000000000010          0.0000000000000000     
  0.30700000000000005          0.0000000000000000     
  0.30850000000000011          0.0000000000000000     
  0.31000000000000005          0.0000000000000000     
  0.31150000000000011          0.0000000000000000     
  0.31300000000000006          0.0000000000000000     
  0.31450000000000000          0.0000000000000000     
  0.31600000000000006          0.0000000000000000     
  0.31750000000000000          0.0000000000000000     
  0.31900000000000006          0.0000000000000000     
  0.32050000000000001          0.0000000000000000     
  0.32200000000000006          0.0000000000000000     
  0.32350000000000001          0.0000000000000000     
  0.32500000000000007          0.0000000000000000     
  0.32650000000000001          0.0000000000000000     
  0.32800000000000007          0.0000000000000000     
  0.32950000000000002          0.0000000000000000     
  0.33100000000000007          0.0000000000000000     
  0.33250000000000002          0.0000000000000000     
  0.33400000000000007          0.0000000000000000     
  0.33550000000000002          0.0000000000000000     
  0.33700000000000008          0.0000000000000000     
  0.33850000000000002          0.0000000000000000     
  0.34000000000000008          0.0000000000000000     
  0.34150000000000003          0.0000000000000000     
  0.34300000000000008          0.0000000000000000     
  0.34450000000000003          0.0000000000000000     
  0.34600000000000009          0.0000000000000000     
  0.34750000000000003          0.0000000000000000     
  0.34900000000000009          0.0000000000000000     
  0.35050000000000003          0.0000000000000000     
  0.35200000000000009          0.0000000000000000     
  0.35350000000000004          0.0000000000000000     
  0.35500000000000009          0.0000000000000000     
  0.35650000000000004          0.0000000000000000     
  0.35800000000000010          0.0000000000000000     
  0.35950000000000004          0.0000000000000000     
  0.36100000000000010          0.0000000000000000     
  0.36250000000000004          0.0000000000000000     
  0.36400000000000010          0.0000000000000000     
  0.36550000000000005          0.0000000000000000     
  0.36700000000000010          0.0000000000000000     
  0.36850000000000005          0.0000000000000000     
  0.37000000000000011          0.0000000000000000     
  0.37150000000000005          0.0000000000000000     
  0.37300000000000011          0.0000000000000000     
  0.37450000000000006          0.0000000000000000     
  0.37600000000000011          0.0000000000000000     
  0.37750000000000006          0.0000000000000000     
  0.37900000000000000          0.0000000000000000     
  0.38050000000000006          0.0000000000000000     
  0.38200000000000001          0.0000000000000000     
  0.38350000000000006          0.0000000000000000     
  0.38500000000000001          0.0000000000000000     
  0.38650000000000007          0.0000000000000000     
  0.38800000000000001          0.0000000000000000     
  0.38950000000000007          0.0000000000000000     
  0.39100000000000001          0.0000000000000000     
  0.39250000000000007          0.0000000000000000     
  0.39400000000000002          0.0000000000000000     
  0.39550000000000007          0.0000000000000000     
  0.39700000000000002          0.0000000000000000     
  0.39850000000000008          1.5650173895295505E-053
  0.40000000000000002          1.7532521801854012E-053
  0.40150000000000008          1.4047138167778332E-053
  0.40300000000000002          0.0000000000000000     
  0.40450000000000008          0.0000000000000000     
  0.40600000000000003         -9.3769444946061791E-053
  0.40750000000000008         -5.3303930581240801E-053
  0.40900000000000003         -5.9470121269910205E-053
  0.41050000000000009         -3.3021664223314675E-053
  0.41200000000000003         -3.7065801460592831E-053
  0.41350000000000009          6.7158633498861828E-053
  0.41500000000000004          1.5874866740918502E-052
  0.41650000000000009          2.3497271517453391E-052
  0.41800000000000004          1.3103417317797553E-038
  0.41950000000000010          1.8747528524457372E-038
  0.42100000000000004          2.3514758437933020E-038
  0.42250000000000010          2.3506076161343338E-038
  0.42400000000000004          1.1713728772137125E-039
  0.42550000000000010         -1.2569887979973221E-038
  0.42700000000000005         -4.1061088693686501E-038
  0.42850000000000010         -6.8660077534676902E-038
  0.43000000000000005         -8.4172141159764357E-038
  0.43150000000000011         -8.3181681547017924E-038
  0.43300000000000005         -6.3438053164259859E-038
  0.43450000000000011         -2.3774512802709360E-038
  0.43600000000000005          3.5004505749944755E-038
  0.43750000000000011          1.0817483379520352E-037
  0.43900000000000006          1.8581591397111827E-037
  0.44050000000000000          2.5183741121636673E-037
  0.44200000000000006          2.8260507457739628E-037
  0.44350000000000001          2.5195719982374590E-037
  0.44500000000000006          1.4289074861648214E-037
  0.44650000000000001         -4.6295429102076948E-038
  0.44800000000000006         -2.9555342600138058E-037
  0.44950000000000001         -5.6239620818650702E-037
  0.45100000000000007         -7.8750819501821401E-037
  0.45250000000000001         -9.0307550143987047E-037
  0.45400000000000007         -8.4382569998034030E-037
  0.45550000000000002         -5.6202019791458868E-037
  0.45700000000000007         -4.2188773312862958E-038
  0.45850000000000002          6.8060505981277156E-037
  0.46000000000000008          1.5088364686366480E-036
  0.46150000000000002          2.2809972804031995E-036
  0.46300000000000008          2.7877009882450333E-036
  0.46450000000000002          2.8071864396706826E-036
  0.46600000000000008          2.1574126789514599E-036
  0.46750000000000003          7.5445180668581513E-037
  0.46900000000000008         -1.3332051229321338E-036
  0.47050000000000003         -3.8489093812967146E-036
  0.47200000000000009         -6.3441057200556302E-036
  0.47350000000000003         -8.2171613534993174E-036
  0.47500000000000009         -8.8017948118189547E-036
  0.47650000000000003         -7.5028446493750816E-036
  0.47800000000000009         -3.9646425936555740E-036
  0.47950000000000004          1.7574463106765417E-036
  0.48100000000000009          9.0639790724595532E-036
  0.48250000000000004          1.6764459538310121E-035
  0.48400000000000010          2.3157664314937462E-035
  0.48550000000000004          2.6263224994065807E-035
  0.48700000000000010          2.4199921268773240E-035
  0.48850000000000005          1.5670637899480856E-035
  0.49000000000000010          4.7586040932480948E-037
  0.49150000000000005         -2.0055396179518051E-035
  0.49300000000000010         -4.2848490038778090E-035
  0.49450000000000005         -6.3208237023473582E-035
  0.49600000000000011         -7.5379764372537180E-035
  0.49750000000000005         -7.3566726920618399E-035
  0.49900000000000011         -5.3323961318921304E-035
  0.50050000000000006         -1.3120417575382995E-035
  0.50200000000000011          4.4247551835008544E-035
  0.50350000000000006          1.1078899556155614E-034
  0.50500000000000000          1.7340363904899201E-034
  0.50650000000000006          2.1524158170468649E-034
  0.50800000000000001          2.1846915908630957E-034
  0.50950000000000006          1.6828456050938159E-034
  0.51100000000000001          5.7671641842674764E-035
  0.51250000000000007         -1.0798674927571418E-034
  0.51400000000000001         -3.0760444807572142E-034
  0.51550000000000007         -5.0368723124503815E-034
  0.51700000000000002         -6.4537512598164771E-034
  0.51850000000000007         -6.7590697930725909E-034
  0.52000000000000002         -5.4437717392195308E-034
  0.52150000000000007         -2.2057508331280905E-034
  0.52300000000000002          2.8949380323351570E-034
  0.52450000000000008          9.3087850057872298E-034
  0.52600000000000002          1.5938762728158694E-033
  0.52750000000000008          2.1192236079964307E-033
  0.52900000000000003          2.3173156164204960E-033
  0.53050000000000008          2.0023586333843396E-033
  0.53200000000000003          1.0391866515675583E-033
  0.53350000000000009         -6.0335401868794119E-034
  0.53500000000000003         -2.8024761401451112E-033
  0.53650000000000009         -5.2480698364869456E-033
  0.53800000000000003         -7.4402409253829570E-033
  0.53950000000000009         -8.7306283631124579E-033
  0.54100000000000004         -8.4152938557330570E-033
  0.54250000000000009         -5.8782637672361392E-033
  0.54400000000000004         -7.7285103679852282E-034
  0.54550000000000010          6.7855908549478786E-033
  0.54700000000000004          1.6054906728938541E-032
  0.54850000000000010          2.5577841354611449E-032
  0.55000000000000004          3.3220564696279982E-032
  0.55150000000000010          3.6380059047753327E-032
  0.55300000000000005          3.2381411400689030E-032
  0.55450000000000010          1.9052542023932905E-032
  0.55600000000000005         -4.5798708310511057E-033
  0.55750000000000011         -3.7577522237401011E-032
  0.55900000000000005         -7.6509748785936379E-032
  0.56050000000000011         -1.1518327794284669E-031
  0.56200000000000006         -1.4486330340509315E-031
  0.56350000000000011         -1.5513322079511595E-031
  0.56500000000000006         -1.3546045972525028E-031
  0.56650000000000011         -7.7415587422597272E-032
  0.56800000000000006          2.2668190508883354E-032
  0.56950000000000001          1.6097943219122623E-031
  0.57100000000000006          3.2400174606325525E-031
  0.57250000000000001          4.8742693653316940E-031
  0.57400000000000007          6.1687621844596186E-031
  0.57550000000000001          6.7098224770952043E-031
  0.57700000000000007          6.0711460869106888E-031
  0.57850000000000001          3.8961162368949566E-031
  0.58000000000000007         -1.8186449736932971E-034
  0.58150000000000002         -5.5338541763083648E-031
  0.58300000000000007         -1.2244745463400077E-030
  0.58450000000000002         -1.9259381294737809E-030
  0.58600000000000008         -2.5291773531282896E-030
  0.58750000000000002         -2.8738365844270167E-030
  0.58900000000000008         -2.7869247484966243E-030
  0.59050000000000002         -2.1116971621147849E-030
  0.59200000000000008         -7.4439841108477307E-031
  0.59350000000000003          1.3252418505018144E-030
  0.59500000000000008          3.9760674728814337E-030
  0.59650000000000003          6.9282446886957581E-030
  0.59800000000000009          9.7357579185354868E-030
  0.59950000000000003          1.1807322051364687E-029
  0.60100000000000009          1.2462213537228809E-029
  0.60250000000000004          1.1023451562240879E-029
  0.60400000000000009          6.9446940178094305E-030
  0.60550000000000004         -4.0115291829150238E-032
  0.60700000000000010         -9.7633978055327336E-030
  0.60850000000000004         -2.1493280882280608E-029
  0.61000000000000010         -3.3857256378939786E-029
  0.61150000000000004         -4.4853182937643979E-029
  0.61300000000000010         -5.1976566097460867E-029
  0.61450000000000005         -5.2482746530334598E-029
  0.61600000000000010         -4.3785268567088929E-029