 -0.12000000000000000          0.0000000000000000     
 -0.11920000000000000          0.0000000000000000     
 -0.11839999999999999          0.0000000000000000     
 -0.11760000000000000          0.0000000000000000     
 -0.11680000000000000          0.0000000000000000     
 -0.11599999999999999          0.0000000000000000     
 -0.11520000000000000          0.0000000000000000     
 -0.11440000000000000          0.0000000000000000     
 -0.11359999999999999          0.0000000000000000     
 -0.11280000000000000          0.0000000000000000     
 -0.11199999999999999          0.0000000000000000     
 -0.11119999999999999          0.0000000000000000     
 -0.11040000000000000          0.0000000000000000     
 -0.10959999999999999          0.0000000000000000     
 -0.10879999999999999          0.0000000000000000     
 -0.10800000000000000          0.0000000000000000     
 -0.10719999999999999          0.0000000000000000     
 -0.10639999999999999          0.0000000000000000     
 -0.10560000000000000          0.0000000000000000     
 -0.10479999999999999          0.0000000000000000     
 -0.10400000000000000          0.0000000000000000     
 -0.10319999999999999          0.0000000000000000     
 -0.10239999999999999          0.0000000000000000     
 -0.10160000000000000          0.0000000000000000     
 -0.10080000000000000          0.0000000000000000     
  -9.9999999999999992E-002     0.0000000000000000     
  -9.9199999999999997E-002     0.0000000000000000     
  -9.8399999999999987E-002     0.0000000000000000     
  -9.7599999999999992E-002     0.0000000000000000     
  -9.6799999999999997E-002     0.0000000000000000     
  -9.6000000000000002E-002     0.0000000000000000     
  -9.5199999999999993E-002     0.0000000000000000     
  -9.4399999999999998E-002     0.0000000000000000     
  -9.3599999999999989E-002     0.0000000000000000     
  -9.2799999999999994E-002     3.9536204043894174E-038
  -9.1999999999999998E-002     3.4119184952175228E-038
  -9.1199999999999989E-002    -2.4249395936582043E-037
  -9.0399999999999994E-002    -8.1661585018243769E-037
  -8.9599999999999999E-002    -4.8799840109007001E-037
  -8.8799999999999990E-002     3.3560776258244206E-036
  -8.7999999999999995E-002     1.0145785442851837E-035
  -8.7200000000000000E-002     6.2864123486437175E-036
  -8.6399999999999991E-002    -3.3395372637550712E-035
  -8.5599999999999996E-002    -1.0012301831721383E-034
  -8.4799999999999986E-002    -6.9140344964866610E-035
  -8.3999999999999991E-002     2.7235508454669005E-034
  -8.3199999999999996E-002     8.4515637734123132E-034
  -8.2400000000000001E-002     6.5856400605696704E-034
  -8.1599999999999992E-002    -1.9316988665848885E-033
  -8.0799999999999997E-002    -6.4309011066342939E-033
  -7.9999999999999988E-002    -5.8162174781740574E-033
  -7.9199999999999993E-002     1.1873756599732238E-032
  -7.8399999999999997E-002     4.5142130457700167E-032
  -7.7600000000000002E-002     4.9362745863063467E-032
  -7.6799999999999993E-002    -5.7858966299521535E-032
  -7.5999999999999984E-002    -2.8812344549954151E-031
  -7.5199999999999989E-002    -3.9192157150765888E-031
  -7.4399999999999994E-002     1.5867115445492592E-031
  -7.3599999999999999E-002     1.6054168335055890E-030
  -7.2800000000000004E-002     2.7696435537577305E-030
  -7.1999999999999995E-002     5.9371558340823480E-031
  -7.1199999999999986E-002    -7.3552430666544553E-030
  -7.0399999999999990E-002    -1.6759531149391100E-029
  -6.9599999999999995E-002    -1.2077295280348304E-029
  -6.8800000000000000E-002     2.4623601145770741E-029
  -6.7999999999999991E-002     8.4401833512204700E-029
  -6.7199999999999996E-002     1.0013607930474080E-028
  -6.6399999999999987E-002    -3.3769216524433798E-029
  -6.5599999999999992E-002    -3.4095488918165547E-028
  -6.4799999999999996E-002    -5.8768457065088902E-028
  -6.4000000000000001E-002    -2.6351040537117675E-028
  -6.3199999999999992E-002     1.0092845503211031E-027
  -6.2399999999999990E-002     2.6613707529617956E-027
  -6.1599999999999995E-002     2.6682212857739810E-027
  -6.0799999999999993E-002    -1.4121416205137837E-027
  -5.9999999999999991E-002    -9.2927606634601197E-027
  -5.9199999999999996E-002    -1.4596073002918744E-026
  -5.8399999999999994E-002    -6.0137582366219316E-027
  -5.7599999999999991E-002     2.2792283882126613E-026
  -5.6799999999999989E-002     5.7667710486894838E-026
  -5.5999999999999994E-002     5.7874539955482472E-026
  -5.5199999999999999E-002    -2.0464071853931594E-026
  -5.4399999999999990E-002    -1.6829771790948508E-025
  -5.3599999999999995E-002    -2.7288700446141797E-025
  -5.2799999999999986E-002    -1.4646743449383594E-025
  -5.1999999999999991E-002     3.1411603081188893E-025
  -5.1199999999999996E-002     9.0034055897935584E-025
  -5.0399999999999986E-002     1.0163446258519818E-024
  -4.9599999999999991E-002     1.0558264578013684E-026
  -4.8799999999999996E-002    -2.0782288112557885E-024
  -4.7999999999999987E-002    -3.8603685424981855E-024
  -4.7199999999999992E-002    -2.9096247020558647E-024
  -4.6399999999999997E-002     2.3769098909885100E-024
  -4.5599999999999988E-002     1.0107248793708005E-023
  -4.4799999999999993E-002     1.3785055595645870E-023
  -4.3999999999999997E-002     5.4769326806219339E-024
  -4.3199999999999988E-002    -1.6531941842828714E-023
  -4.2399999999999993E-002    -4.0305585774819245E-023
  -4.1599999999999998E-002    -4.1545754003917197E-023
  -4.0799999999999989E-002     4.6486261663419296E-025
  -3.9999999999999994E-002     7.7561731901754421E-023
  -3.9199999999999985E-002     1.3778002232520108E-022
  -3.8399999999999990E-002     1.0498569872174492E-022
  -3.7599999999999995E-002    -6.0821863679249363E-023
  -3.6799999999999986E-002    -2.9456447378541984E-022
  -3.5999999999999990E-002    -4.1330361529089480E-022
  -3.5199999999999995E-002    -2.1371420796173972E-022
  -3.4399999999999986E-002     3.3995578270732653E-022
  -3.3599999999999991E-002     9.6229165968948916E-022
  -3.2799999999999996E-002     1.1032818284061859E-021
  -3.1999999999999987E-002     3.0059326436748090E-022
  -3.1199999999999992E-002    -1.3204039154784804E-021
  -3.0399999999999996E-002    -2.7848047083040277E-021
  -2.9599999999999987E-002    -2.6436401571510664E-021
  -2.8799999999999992E-002    -2.4405668245200932E-023
  -2.7999999999999997E-002     4.2188234763089612E-021
  -2.7199999999999988E-002     7.2614122774388560E-021
  -2.6399999999999993E-002     5.7144334745676752E-021
  -2.5599999999999998E-002    -1.6701719666435039E-021
  -2.4799999999999989E-002    -1.1718579688539946E-020
  -2.3999999999999994E-002    -1.7239786518513362E-020
  -2.3199999999999985E-002    -1.1160093026779571E-020
  -2.2399999999999989E-002     7.3374765430832219E-021
  -2.1599999999999994E-002     2.9008881577762295E-020
  -2.0799999999999985E-002     3.7487602409878737E-020
  -1.9999999999999990E-002     1.9630656759456988E-020
  -1.9199999999999995E-002    -2.2103781388148491E-020
  -1.8399999999999986E-002    -6.4753998946729669E-020
  -1.7599999999999991E-002    -7.4761469104292014E-020
  -1.6799999999999995E-002    -3.0712463280489524E-020
  -1.5999999999999986E-002     5.4555779647442889E-020
  -1.5199999999999991E-002     1.3080933394276425E-019
  -1.4399999999999996E-002     1.3607559223728017E-019
  -1.3599999999999987E-002     4.1103758166973545E-020
  -1.2799999999999992E-002    -1.1631573374355152E-019
  -1.1999999999999997E-002    -2.3814421267946269E-019
  -1.1199999999999988E-002    -2.2243543246162128E-019
  -1.0399999999999993E-002    -4.0635977837052004E-020
  -9.5999999999999835E-003     2.1875228153725821E-019
  -8.7999999999999884E-003     3.8486599421651539E-019
  -7.9999999999999932E-003     3.1311968245551012E-019
  -7.1999999999999842E-003     2.9021639869358645E-021
  -6.3999999999999890E-003    -3.6645176470895445E-019
  -5.5999999999999939E-003    -5.3199511050646217E-019
  -4.7999999999999848E-003    -3.3355688554864606E-019
  -3.9999999999999897E-003     1.3663586493061706E-019
  -3.1999999999999945E-003     5.5221988327853684E-019
  -2.3999999999999855E-003     5.6739316744732673E-019
  -1.5999999999999903E-003     1.0154275329244901E-019
  -7.9999999999999516E-004    -5.2630870908425467E-019
   1.3877787807814457E-017    -7.6946134527636109E-019
   8.0000000000000904E-004    -2.7401745903284482E-019
   1.6000000000000042E-003     7.3921801941898557E-019
   2.4000000000000132E-003     1.4747171382015093E-018
   3.2000000000000084E-003     1.0705344604291376E-018
   4.0000000000000036E-003    -6.5088976075540675E-019
   4.8000000000000126E-003    -2.7494782525693501E-018
   5.6000000000000216E-003    -3.5324090450490067E-018
   6.4000000000000168E-003    -1.6932833816491255E-018
   7.2000000000000119E-003     2.4458450651195103E-018
   8.0000000000000071E-003     6.5678769293975938E-018
   8.8000000000000023E-003     7.4614346502049391E-018
   9.5999999999999974E-003     3.2018703606098077E-018
   1.0400000000000020E-002    -4.9438231883451751E-018
   1.1200000000000015E-002    -1.2437755696865791E-017
   1.2000000000000011E-002    -1.3814728520997089E-017
   1.2800000000000006E-002    -6.3717594371964776E-018
   1.3600000000000001E-002     7.1736055755385374E-018
   1.4400000000000024E-002     1.9270002858757783E-017
   1.5200000000000019E-002     2.1710256803321894E-017
   1.6000000000000014E-002     1.1176872708622635E-017
   1.6800000000000009E-002    -7.5676016274648951E-018
   1.7600000000000005E-002    -2.3624326270989998E-017
   1.8400000000000000E-002    -2.6598619599546920E-017
   1.9200000000000023E-002    -1.3938722894818788E-017
   2.0000000000000018E-002     6.3198277975694797E-018
   2.0800000000000013E-002     2.0265453514600023E-017
   2.1600000000000008E-002     1.8034338953030144E-017
   2.2400000000000003E-002     2.2383660404098251E-018
   2.3199999999999998E-002    -1.2087309877009738E-017
   2.4000000000000021E-002    -7.9370064269606639E-018
   2.4800000000000016E-002     1.8654072594122223E-017
   2.5600000000000012E-002     5.0051606987175135E-017
   2.6400000000000007E-002     5.3942406508273460E-017
   2.7200000000000002E-002     5.3198363337546300E-018
   2.8000000000000025E-002    -8.8632290138493608E-017
   2.8800000000000020E-002    -1.7895483452323317E-016
   2.9600000000000015E-002    -1.9331490171539055E-016
   3.0400000000000010E-002    -7.8985524546442988E-017
   3.1200000000000006E-002     1.5122550369407934E-016
   3.2000000000000001E-002     4.0033421418220444E-016
   3.2800000000000024E-002     5.1715008965504150E-016
   3.3600000000000019E-002     3.7140915076421335E-016
   3.4400000000000014E-002    -5.8234494505578411E-017
   3.5200000000000009E-002    -6.3225900845070393E-016
   3.6000000000000004E-002    -1.0755022970842555E-015
   3.6799999999999999E-002    -1.0879963506936117E-015
   3.7600000000000022E-002    -5.0481818991552534E-016
   3.8400000000000017E-002     5.6797016066616819E-016
   3.9200000000000013E-002     1.7215628074379618E-015
   4.0000000000000008E-002     2.3651722162005510E-015
   4.0800000000000003E-002     1.9823548286560227E-015
   4.1600000000000026E-002     4.3019577840250356E-016
   4.2400000000000021E-002    -1.8630368972663352E-015
   4.3200000000000016E-002    -3.9396658576770511E-015
   4.4000000000000011E-002    -4.6500452854849206E-015
   4.4800000000000006E-002    -3.2013489539281298E-015
   4.5600000000000002E-002     3.1067241505332733E-016
   4.6400000000000025E-002     4.6829487038374876E-015
   4.7200000000000020E-002     7.9188229324539394E-015
   4.8000000000000015E-002     8.0648785176148929E-015
   4.8800000000000010E-002     4.2614706149979049E-015
   4.9600000000000005E-002    -2.5185609891023586E-015
   5.0400000000000000E-002    -9.5424377086076109E-015
   5.1200000000000023E-002    -1.3371086769536304E-014
   5.2000000000000018E-002    -1.1539202685278797E-014
   5.2800000000000014E-002    -4.0524491416369084E-015
   5.3600000000000009E-002     6.1928992817661573E-015
   5.4400000000000004E-002     1.4527792421207934E-014
   5.5199999999999999E-002     1.6808252448837109E-014
   5.6000000000000022E-002     1.1752599930845310E-014
   5.6800000000000017E-002     1.9285798832083994E-015
   5.7600000000000012E-002    -7.4330868066532774E-015
   5.8400000000000007E-002    -1.1417669550973803E-014
   5.9200000000000003E-002    -8.6027503683520044E-015
   6.0000000000000026E-002    -2.3928674407186880E-015
   6.0800000000000021E-002     7.4251908713980912E-016
   6.1600000000000016E-002    -4.3934417363119139E-015
   6.2400000000000011E-002    -1.7169684795562308E-014
   6.3200000000000006E-002    -2.9431016949693287E-014
   6.4000000000000001E-002    -2.8623354093827366E-014
   6.4800000000000024E-002    -5.0580741851879996E-015
   6.5600000000000019E-002     4.0200041375153955E-014
   6.6400000000000015E-002     9.1619765973157546E-014
   6.7200000000000010E-002     1.2307812917704969E-013
   6.8000000000000005E-002     1.0899773786451558E-013
   6.8800000000000000E-002     3.8143699489104690E-014
   6.9600000000000023E-002    -7.6893081745604830E-014
   7.0400000000000018E-002    -2.0027232097100806E-013
   7.1200000000000013E-002    -2.8467069738795370E-013
   7.2000000000000008E-002    -2.8960834381683287E-013
   7.2800000000000004E-002    -1.9799002118781744E-013
   7.3600000000000027E-002    -2.3159966173048711E-014
   7.4400000000000022E-002     1.9629004639146880E-013
   7.5200000000000017E-002     4.1015053766496612E-013
   7.6000000000000012E-002     5.7055906223582586E-013
   7.6800000000000007E-002     6.3901423215384501E-013
   7.7600000000000002E-002     5.8492934888049186E-013
   7.8400000000000025E-002     3.8152364297341923E-013
   7.9200000000000020E-002     8.7401780759122256E-015
   8.0000000000000016E-002    -5.3015100989761699E-013
   8.0800000000000011E-002    -1.1811089216037796E-012
   8.1600000000000006E-002    -1.8150407392336643E-012
   8.2400000000000001E-002    -2.2265540106092274E-012
   8.3200000000000024E-002    -2.1709749883219720E-012
   8.4000000000000019E-002    -1.4397307131208681E-012
   8.4800000000000014E-002     4.5384625013212068E-014
   8.5600000000000009E-002     2.1529590176622149E-012
   8.6400000000000005E-002     4.5126992420652101E-012
   8.7200000000000027E-002     6.5567048318504462E-012
   8.8000000000000023E-002     7.6275791238700208E-012
   8.8800000000000018E-002     7.1265424117505916E-012
   8.9600000000000013E-002     4.6632454842043813E-012
   9.0400000000000008E-002     1.7343829009693751E-013
   9.1200000000000003E-002    -6.0134102558562219E-012
   9.2000000000000026E-002    -1.3157828125665016E-011
   9.2800000000000021E-002    -2.0139723222456496E-011
   9.3600000000000017E-002    -2.5533585662484981E-011
   9.4400000000000012E-002    -2.7741160063543546E-011
   9.5200000000000007E-002    -2.5196423072970653E-011
   9.6000000000000002E-002    -1.6640905667331118E-011
   9.6800000000000025E-002    -1.4299739777706710E-012
   9.7600000000000020E-002     2.0212323134649601E-011
   9.8400000000000015E-002     4.7095775196348555E-011
   9.9200000000000010E-002     7.7211133320265191E-011
  0.10000000000000001          1.0814252271451608E-010
  0.10080000000000003          1.3767047224444440E-010
  0.10160000000000002          1.6440569738929156E-010
  0.10240000000000002          1.8826008807426575E-010
  0.10320000000000001          2.1060235499970048E-010
  0.10400000000000001          2.3405091753581075E-010
  0.10480000000000000          2.6198324065695999E-010
  0.10560000000000003          2.9793428835134250E-010
  0.10640000000000002          3.4507507962189266E-010
  0.10720000000000002          4.0590178440602642E-010
  0.10800000000000001          4.8216169945547449E-010
  0.10880000000000001          5.7495047611766381E-010
  0.10960000000000000          6.8488303917035864E-010
  0.11040000000000003          8.1227913284465103E-010
  0.11120000000000002          9.5737695549047430E-010
  0.11200000000000002          1.1206408023767267E-009
  0.11280000000000001          1.3032128709511426E-009
  0.11360000000000001          1.5074701487094444E-009
  0.11440000000000003          1.7375352268089728E-009
  0.11520000000000002          1.9995241018477827E-009
  0.11600000000000002          2.3013584371511797E-009
  0.11680000000000001          2.6521185247929679E-009
  0.11760000000000001          3.0611178036821229E-009
  0.11840000000000001          3.5370266715517573E-009
  0.11920000000000003          4.0873908702110384E-009
  0.12000000000000002          4.7187542762117118E-009
  0.12080000000000002          5.4373594515766399E-009
  0.12160000000000001          6.2501763764544194E-009
  0.12240000000000001          7.1659158606962592E-009
  0.12320000000000000          8.1957267639154452E-009
  0.12400000000000003          9.3534646694592993E-009
  0.12480000000000002          1.0655584858909606E-008
  0.12560000000000002          1.2120847436847271E-008
  0.12640000000000001          1.3769976270339157E-008
  0.12720000000000001          1.5625328586565956E-008
  0.12800000000000000          1.7710556576844283E-008
  0.12880000000000003          2.0050199722732032E-008
  0.12960000000000002          2.2669304655664746E-008
  0.13040000000000002          2.5593235974952222E-008
  0.13120000000000004          2.8847926714092864E-008
  0.13200000000000001          3.2460697241276648E-008
  0.13280000000000003          3.6461511143670577E-008
  0.13360000000000000          4.0884259533413569E-008
  0.13440000000000002          4.5767539091912113E-008
  0.13520000000000004          5.1154511737649955E-008
  0.13600000000000001          5.7091728677960418E-008
  0.13680000000000003          6.3627346946759644E-008
  0.13760000000000000          7.0809370811275585E-008
  0.13840000000000002          7.8684649906790582E-008
  0.13919999999999999          8.7298992923479091E-008
  0.14000000000000001          9.6698293816643854E-008
  0.14080000000000004          1.0693006657902515E-007
  0.14160000000000000          1.1804461053088744E-007
  0.14240000000000003          1.3009523058826744E-007
  0.14319999999999999          1.4313737040083652E-007
  0.14400000000000002          1.5722707757959142E-007
  0.14480000000000004          1.7241934813227999E-007
  0.14560000000000001          1.8876697538416920E-007
  0.14640000000000003          2.0632016628496785E-007
  0.14720000000000000          2.2512658404139074E-007
  0.14800000000000002          2.4523137653886806E-007
  0.14880000000000004          2.6667655106393795E-007
  0.14960000000000001          2.8949969532732212E-007
  0.15040000000000003          3.1373213005281286E-007
  0.15120000000000000          3.3939718946385256E-007
  0.15200000000000002          3.6650891388489981E-007
  0.15279999999999999          3.9507179394604464E-007
  0.15360000000000001          4.2508096953497443E-007
  0.15440000000000004          4.5652257085748715E-007
  0.15520000000000000          4.8937357632894418E-007
  0.15600000000000003          5.2360059044076479E-007
  0.15679999999999999          5.5915796792760375E-007
  0.15760000000000002          5.9598539792204974E-007
  0.15840000000000004          6.3400580074812751E-007
  0.15920000000000001          6.7312339524505660E-007
  0.16000000000000003          7.1322318717648159E-007
  0.16080000000000000          7.5417040079628350E-007
  0.16160000000000002          7.9581064937883639E-007
  0.16240000000000004          8.3796982153216959E-007
  0.16320000000000001          8.8045419488480547E-007
  0.16400000000000003          9.2305043608575943E-007
  0.16480000000000000          9.6552594186505303E-007
  0.16560000000000002          1.0076289527205518E-006
  0.16639999999999999          1.0490889508218970E-006
  0.16720000000000002          1.0896167168539250E-006
  0.16800000000000004          1.1289039321127348E-006
  0.16880000000000001          1.1666226100714994E-006
  0.16960000000000003          1.2024253237541416E-006
  0.17040000000000000          1.2359464562905487E-006
  0.17120000000000002          1.2668048157138401E-006
  0.17200000000000004          1.2946075003128499E-006
  0.17280000000000001          1.3189542187319603E-006
  0.17360000000000003          1.3394416100709350E-006
  0.17440000000000000          1.3556661997427000E-006
  0.17520000000000002          1.3672262184627471E-006
  0.17600000000000005          1.3737227391175111E-006
  0.17680000000000001          1.3747612683800980E-006
  0.17760000000000004          1.3699539067602018E-006
  0.17840000000000000          1.3589240097644506E-006
  0.17920000000000003          1.3413115311777801E-006
  0.17999999999999999          1.3167792758395080E-006
  0.18080000000000002          1.2850190387325711E-006
  0.18160000000000004          1.2457568345780601E-006
  0.18240000000000001          1.1987566495008650E-006
  0.18320000000000003          1.1438236242611310E-006
  0.18400000000000000          1.0808065553646884E-006
  0.18480000000000002          1.0096008509208332E-006
  0.18560000000000004          9.3015137281327043E-007
  0.18640000000000001          8.4245613152234000E-007
  0.18720000000000003          7.4656975357356714E-007
  0.18800000000000000          6.4260689214279409E-007
  0.18880000000000002          5.3074518291396089E-007
  0.18960000000000005          4.1122780203295406E-007
  0.19040000000000001          2.8436534194042906E-007
  0.19120000000000004          1.5053683455334976E-007
  0.19200000000000000          1.0189909360747151E-008
  0.19280000000000003         -1.3616028127216850E-007
  0.19359999999999999         -2.8793314754693711E-007
  0.19440000000000002         -4.4448572111832618E-007
  0.19520000000000004         -6.0511626998049906E-007
  0.19600000000000001         -7.6906843560209381E-007
  0.19680000000000003         -9.3553512670041528E-007
  0.19760000000000000         -1.1036627256544307E-006
  0.19840000000000002         -1.2725555507131503E-006
  0.19920000000000004         -1.4412802329388796E-006
  0.20000000000000001         -1.6088714573925245E-006
  0.20080000000000003         -1.7743384432833409E-006
  0.20160000000000000         -1.9366721062397119E-006
  0.20240000000000002         -2.0948534711351385E-006
  0.20320000000000005         -2.2478625396615826E-006
  0.20400000000000001         -2.3946886358316988E-006
  0.20480000000000004         -2.5343388188048266E-006
  0.20560000000000000         -2.6658478873287095E-006
  0.20640000000000003         -2.7882865651918110E-006
  0.20720000000000000         -2.9007696866756305E-006
  0.20800000000000002         -3.0024630177649669E-006
  0.20880000000000004         -3.0925903047318570E-006
  0.20960000000000001         -3.1704403227195144E-006
  0.21040000000000003         -3.2353736969525926E-006
  0.21120000000000000         -3.2868301786947995E-006
  0.21200000000000002         -3.3243350117118098E-006
  0.21280000000000004         -3.3475050713605015E-006
  0.21360000000000001         -3.3560540941834915E-006
  0.21440000000000003         -3.3497960885142675E-006
  0.21520000000000000         -3.3286473808402661E-006
  0.21600000000000003         -3.2926275252975756E-006
  0.21680000000000005         -3.2418593036709353E-006
  0.21760000000000002         -3.1765675885253586E-006
  0.21840000000000004         -3.0970772968430538E-006
  0.21920000000000001         -3.0038120257813716E-006
  0.22000000000000003         -2.8972906420676736E-006
  0.22080000000000000         -2.7781243261415511E-006
  0.22160000000000002         -2.6470127068023430E-006
  0.22240000000000004         -2.5047386316146003E-006
  0.22320000000000001         -2.3521615730714984E-006
  0.22400000000000003         -2.1902103526372230E-006
  0.22480000000000000         -2.0198733636789257E-006
  0.22560000000000002         -1.8421901586407330E-006
  0.22640000000000005         -1.6582405351073248E-006
  0.22720000000000001         -1.4691355545437546E-006
  0.22800000000000004         -1.2760082199747558E-006
  0.22880000000000000         -1.0800049494719133E-006
  0.22960000000000003         -8.8227710648425273E-007
  0.23039999999999999         -6.8397292807276244E-007
  0.23120000000000002         -4.8622854365021340E-007
  0.23200000000000004         -2.9015882319072261E-007
  0.23280000000000001         -9.6847990960213792E-008
  0.23360000000000003          9.2659924177951325E-008
  0.23440000000000000          2.7736990659832372E-007
  0.23520000000000002          4.5634362777491333E-007
  0.23600000000000004          6.2870606143405894E-007
  0.23680000000000001          7.9365059946212568E-007
  0.23760000000000003          9.5044305226110737E-007
  0.23840000000000000          1.0984248319800827E-006
  0.23920000000000002          1.2370153399388073E-006
  0.24000000000000005          1.3657141835210496E-006
  0.24080000000000001          1.4841025404166430E-006
  0.24160000000000004          1.5918442386464449E-006
  0.24240000000000000          1.6886864386833622E-006
  0.24320000000000003          1.7744596334523521E-006
  0.24399999999999999          1.8490769662093953E-006
  0.24480000000000002          1.9125332073599566E-006
  0.24560000000000004          1.9649025944090681E-006
  0.24640000000000001          2.0063348529220093E-006
  0.24720000000000003          2.0370509901113110E-006
  0.24800000000000000          2.0573370420606807E-006
  0.24880000000000002          2.0675377072620904E-006
  0.24960000000000004          2.0680490706581622E-006
  0.25040000000000001          2.0593129193002824E-006
  0.25120000000000003          2.0418110580067150E-006
  0.25200000000000000          2.0160607618890936E-006
  0.25280000000000002          1.9826102288789116E-006
  0.25360000000000005          1.9420340322540142E-006
  0.25440000000000002          1.8949289142256021E-006
  0.25520000000000004          1.8419077605358325E-006
  0.25600000000000001          1.7835936887422577E-006
  0.25680000000000003          1.7206135680680745E-006
  0.25760000000000000          1.6535918803128880E-006
  0.25840000000000002          1.5831444670766359E-006
  0.25920000000000004          1.5098731864782167E-006
  0.26000000000000001          1.4343612519951421E-006
  0.26080000000000003          1.3571698218584061E-006
  0.26160000000000000          1.2788350431947038E-006
  0.26240000000000002          1.1998665740975412E-006
  0.26320000000000005          1.1207464467588579E-006
  0.26400000000000001          1.0419280442874879E-006
  0.26480000000000004          9.6383496384078171E-007
  0.26560000000000000          8.8685965238255449E-007
  0.26640000000000003          8.1136124663316878E-007
  0.26720000000000005          7.3766364039329346E-007
  0.26800000000000002          6.6605429083210765E-007
  0.26880000000000004          5.9678347952285549E-007
  0.26960000000000001          5.3006505140729132E-007
  0.27040000000000003          4.6607789272457012E-007
  0.27120000000000000          4.0496831843483960E-007
  0.27200000000000002          3.4685245964283240E-007
  0.27280000000000004          2.9181856575632992E-007
  0.27360000000000001          2.3992896558411303E-007
  0.27440000000000003          1.9122153105399775E-007
  0.27520000000000000          1.4571058670753700E-007
  0.27600000000000002          1.0338791156527805E-007
  0.27680000000000005          6.4223605988900090E-008
  0.27760000000000001          2.8167438159698577E-008
  0.27840000000000004         -4.8494102067309086E-009
  0.27920000000000000         -3.4912098101358424E-008
  0.28000000000000003         -6.2119546839767281E-008
  0.28080000000000005         -8.6581728453438700E-008
  0.28160000000000002         -1.0841714015441539E-007
  0.28240000000000004         -1.2775055324709683E-007
  0.28320000000000001         -1.4471129361481871E-007
  0.28400000000000003         -1.5943192011036444E-007
  0.28480000000000000         -1.7204715163643414E-007
  0.28560000000000002         -1.8269307133778057E-007
  0.28640000000000004         -1.9150637342590926E-007
  0.28720000000000001         -1.9862363842548802E-007
  0.28800000000000003         -2.0418057999904704E-007
  0.28880000000000000         -2.0831126334996952E-007
  0.28960000000000002         -2.1114719572778995E-007
  0.29040000000000005         -2.1281631745750929E-007
  0.29120000000000001         -2.1344200717976491E-007
  0.29200000000000004         -2.1314215814527415E-007
  0.29280000000000000         -2.1202870925662864E-007
  0.29360000000000003         -2.1020748874889250E-007
  0.29440000000000005         -2.0777859788267961E-007
  0.29520000000000002         -2.0483697937834222E-007
  0.29600000000000004         -2.0147297163930489E-007
  0.29680000000000001         -1.9777256454744929E-007
  0.29760000000000003         -1.9381742788482370E-007
  0.29840000000000000         -1.8968452764056565E-007
  0.29920000000000002         -1.8544565705269633E-007
  0.30000000000000004         -1.8116702449333388E-007
  0.30080000000000001         -1.7690911136014620E-007
  0.30160000000000003         -1.7272682839575282E-007
  0.30240000000000000         -1.6867004148934939E-007
  0.30320000000000003         -1.6478433906286227E-007
  0.30400000000000005         -1.6111196998735977E-007
  0.30480000000000002         -1.5769275307775388E-007
  0.30560000000000004         -1.5456477342468133E-007
  0.30640000000000001         -1.5176475187672622E-007
  0.30720000000000003         -1.4932803082956525E-007
  0.30800000000000005         -1.4728826158716402E-007
  0.30880000000000002         -1.4567693540357141E-007
  0.30960000000000004         -1.4452298557898757E-007
  0.31040000000000001         -1.4385265956207149E-007
  0.31120000000000003         -1.4368981737788999E-007
  0.31200000000000000         -1.4405652848381578E-007
  0.31280000000000002         -1.4497385336653679E-007
  0.31360000000000005         -1.4646261092821078E-007
  0.31440000000000001         -1.4854384744467097E-007
  0.31520000000000004         -1.5123887919799017E-007