 -0.12000000000000000          0.0000000000000000     
 -0.11920000000000000          0.0000000000000000     
 -0.11839999999999999          0.0000000000000000     
 -0.11760000000000000          0.0000000000000000     
 -0.11680000000000000          0.0000000000000000     
 -0.11599999999999999          0.0000000000000000     
 -0.11520000000000000          0.0000000000000000     
 -0.11440000000000000          0.0000000000000000     
 -0.11359999999999999          0.0000000000000000     
 -0.11280000000000000          0.0000000000000000     
 -0.11199999999999999          0.0000000000000000     
 -0.11119999999999999          0.0000000000000000     
 -0.11040000000000000          0.0000000000000000     
 -0.10959999999999999          0.0000000000000000     
 -0.10879999999999999          0.0000000000000000     
 -0.10800000000000000          0.0000000000000000     
 -0.10719999999999999          0.0000000000000000     
 -0.10639999999999999          0.0000000000000000     
 -0.10560000000000000          0.0000000000000000     
 -0.10479999999999999          0.0000000000000000     
 -0.10400000000000000          0.0000000000000000     
 -0.10319999999999999          0.0000000000000000     
 -0.10239999999999999          0.0000000000000000     
 -0.10160000000000000          0.0000000000000000     
 -0.10080000000000000          0.0000000000000000     
  -9.9999999999999992E-002     0.0000000000000000     
  -9.9199999999999997E-002     0.0000000000000000     
  -9.8399999999999987E-002     0.0000000000000000     
  -9.7599999999999992E-002     0.0000000000000000     
  -9.6799999999999997E-002     0.0000000000000000     
  -9.6000000000000002E-002     0.0000000000000000     
  -9.5199999999999993E-002     0.0000000000000000     
  -9.4399999999999998E-002     0.0000000000000000     
  -9.3599999999999989E-002     0.0000000000000000     
  -9.2799999999999994E-002     3.9535792062145662E-038
  -9.1999999999999998E-002     3.4119650183265384E-038
  -9.1199999999999989E-002    -2.4248972183926431E-037
  -9.0399999999999994E-002    -8.1660867553430035E-037
  -8.9599999999999999E-002    -4.8800176420638439E-037
  -8.8799999999999990E-002     3.3560378065272583E-036
  -8.7999999999999995E-002     1.0145714413835277E-035
  -8.7200000000000000E-002     6.2864324376585020E-036
  -8.6399999999999991E-002    -3.3395033994158630E-035
  -8.5599999999999996E-002    -1.0012232955099265E-034
  -8.4799999999999986E-002    -6.9139983362600488E-035
  -8.3999999999999991E-002     2.7235338559001112E-034
  -8.3199999999999996E-002     8.4515123455344648E-034
  -8.2400000000000001E-002     6.5855909285792259E-034
  -8.1599999999999992E-002    -1.9316918870871805E-033
  -8.0799999999999997E-002    -6.4308709845915541E-033
  -7.9999999999999988E-002    -5.8161796419496403E-033
  -7.9199999999999993E-002     1.1873747048840637E-032
  -7.8399999999999997E-002     4.5141980582170437E-032
  -7.7600000000000002E-002     4.9362428479588745E-032
  -7.6799999999999993E-002    -5.7859189643448191E-032
  -7.5999999999999984E-002    -2.8812297530180118E-031
  -7.5199999999999989E-002    -3.9191990230568071E-031
  -7.4399999999999994E-002     1.5867356421834510E-031
  -7.3599999999999999E-002     1.6054162692683006E-030
  -7.2800000000000004E-002     2.7696352782775007E-030
  -7.1999999999999995E-002     5.9370053708054428E-031
  -7.1199999999999986E-002    -7.3552498375019160E-030
  -7.0399999999999990E-002    -1.6759507075266796E-029
  -6.9599999999999995E-002    -1.2077219296393467E-029
  -6.8800000000000000E-002     2.4623682395940270E-029
  -6.7999999999999991E-002     8.4401791382487166E-029
  -6.7199999999999996E-002     1.0013576634112483E-028
  -6.6399999999999987E-002    -3.3769785275620500E-029
  -6.5599999999999992E-002    -3.4095534659001727E-028
  -6.4799999999999996E-002    -5.8768423361314875E-028
  -6.4000000000000001E-002    -2.6350881647897263E-028
  -6.3199999999999992E-002     1.0092867651405392E-027
  -6.2399999999999990E-002     2.6613705603688011E-027
  -6.1599999999999995E-002     2.6682160857631311E-027
  -6.0799999999999993E-002    -1.4121532723899473E-027
  -5.9999999999999991E-002    -9.2927714486678083E-027
  -5.9199999999999996E-002    -1.4596066839942921E-026
  -5.8399999999999994E-002    -6.0137197180230438E-027
  -5.7599999999999991E-002     2.2792337808165056E-026
  -5.6799999999999989E-002     5.7667728975822304E-026
  -5.5999999999999994E-002     5.7874472162748429E-026
  -5.5199999999999999E-002    -2.0464208980143634E-026
  -5.4399999999999990E-002    -1.6829791512471139E-025
  -5.3599999999999995E-002    -2.7288705376522454E-025
  -5.2799999999999986E-002    -1.4646704006338333E-025
  -5.1999999999999991E-002     3.1411686897660072E-025
  -5.1199999999999996E-002     9.0034115062503475E-025
  -5.0399999999999986E-002     1.0163436397758503E-024
  -4.9599999999999991E-002     1.0555303268131194E-026
  -4.8799999999999996E-002    -2.0782319666994094E-024
  -4.7999999999999987E-002    -3.8603681480677329E-024
  -4.7199999999999992E-002    -2.9096183911686229E-024
  -4.6399999999999997E-002     2.3769236960543514E-024
  -4.5599999999999988E-002     1.0107263782065204E-023
  -4.4799999999999993E-002     1.3785065061976733E-023
  -4.3999999999999997E-002     5.4769421469527966E-024
  -4.3199999999999988E-002    -1.6531916599279747E-023
  -4.2399999999999993E-002    -4.0305541598608552E-023
  -4.1599999999999998E-002    -4.1545694050488400E-023
  -4.0799999999999989E-002     4.6490772961721028E-025
  -3.9999999999999994E-002     7.7561719279979937E-023
  -3.9199999999999985E-002     1.3777993397277970E-022
  -3.8399999999999990E-002     1.0498559143666181E-022
  -3.7599999999999995E-002    -6.0821939409896264E-023
  -3.6799999999999986E-002    -2.9456447378541984E-022
  -3.5999999999999990E-002    -4.1330369102154170E-022
  -3.5199999999999995E-002    -2.1371473807626803E-022
  -3.4399999999999986E-002     3.3995462150407404E-022
  -3.3599999999999991E-002     9.6229014507655114E-022
  -3.2799999999999996E-002     1.1032811215868149E-021
  -3.1999999999999987E-002     3.0059470324977202E-022
  -3.1199999999999992E-002    -1.3204002804074292E-021
  -3.0399999999999996E-002    -2.7848010732329764E-021
  -2.9599999999999987E-002    -2.6436409649446333E-021
  -2.8799999999999992E-002    -2.4413703582381514E-023
  -2.7999999999999997E-002     4.2188101477151066E-021
  -2.7199999999999988E-002     7.2614041995031865E-021
  -2.6399999999999993E-002     5.7144447836776125E-021
  -2.5599999999999998E-002    -1.6701349091136202E-021
  -2.4799999999999989E-002    -1.1718535259893764E-020
  -2.3999999999999994E-002    -1.7239778440577692E-020
  -2.3199999999999985E-002    -1.1160160073645627E-020
  -2.2399999999999989E-002     7.3373432571446758E-021
  -2.1599999999999994E-002     2.9008762024314387E-020
  -2.0799999999999985E-002     3.7487628259272879E-020
  -1.9999999999999990E-002     1.9630916868985545E-020
  -1.9199999999999995E-002    -2.2103351641970875E-020
  -1.8399999999999986E-002    -6.4753656442257284E-020
  -1.7599999999999991E-002    -7.4761553114822977E-020
  -1.6799999999999995E-002    -3.0713122440040152E-020
  -1.5999999999999986E-002     5.4554823219859625E-020
  -1.5199999999999991E-002     1.3080876525609312E-019
  -1.4399999999999996E-002     1.3607608337576887E-019
  -1.3599999999999987E-002     4.1105428684069989E-020
  -1.2799999999999992E-002    -1.1631370456611135E-019
  -1.1999999999999997E-002    -2.3814330795066771E-019
  -1.1199999999999988E-002    -2.2243680247951082E-019
  -1.0399999999999993E-002    -4.0639283328327948E-020
  -9.5999999999999835E-003     2.1874928300753771E-019
  -8.7999999999999884E-003     3.8486638195742752E-019
  -7.9999999999999932E-003     3.1312505912949172E-019
  -7.1999999999999842E-003     2.9106098725750718E-021
  -6.3999999999999890E-003    -3.6644540575799545E-019
  -5.5999999999999939E-003    -5.3199635127738100E-019
  -4.7999999999999848E-003    -3.3356699266175570E-019
  -3.9999999999999897E-003     1.3662250079384550E-019
  -3.1999999999999945E-003     5.5221388621909583E-019
  -2.3999999999999855E-003     5.6740257662679452E-019
  -1.5999999999999903E-003     1.0156563000626493E-019
  -7.9999999999999516E-004    -5.2628658200286887E-019
   1.3877787807814457E-017    -7.6945870863815857E-019
   8.0000000000000904E-004    -2.7404271389092183E-019
   1.6000000000000042E-003     7.3917738417139391E-019
   2.4000000000000132E-003     1.4746909786146373E-018
   3.2000000000000084E-003     1.0705502802583527E-018
   4.0000000000000036E-003    -6.5083201320889289E-019
   4.8000000000000126E-003    -2.7494155936379492E-018
   5.6000000000000216E-003    -3.5323949829785933E-018
   6.4000000000000168E-003    -1.6933455235926436E-018
   7.2000000000000119E-003     2.4457398063865629E-018
   8.0000000000000071E-003     6.5678148908516523E-018
   8.8000000000000023E-003     7.4614950343896555E-018
   9.5999999999999974E-003     3.2020471704657409E-018
   1.0400000000000020E-002    -4.9436498940068452E-018
   1.1200000000000015E-002    -1.2437754869685179E-017
   1.2000000000000011E-002    -1.3814984119806368E-017
   1.2800000000000006E-002    -6.3721606197935658E-018
   1.3600000000000001E-002     7.1733375690200702E-018
   1.4400000000000024E-002     1.9270138516378242E-017
   1.5200000000000019E-002     2.1710814323054755E-017
   1.6000000000000014E-002     1.1177508810513689E-017
   1.6800000000000009E-002    -7.5674146846464582E-018
   1.7600000000000005E-002    -2.3624908606141236E-017
   1.8400000000000000E-002    -2.6599729675928966E-017
   1.9200000000000023E-002    -1.3939571582127267E-017
   2.0000000000000018E-002     6.3200792604756958E-018
   2.0800000000000013E-002     2.0266988761816921E-017
   2.1600000000000008E-002     1.8036312605971695E-017
   2.2400000000000003E-002     2.2393061311759916E-018
   2.3199999999999998E-002    -1.2088437324184648E-017
   2.4000000000000021E-002    -7.9397675558453659E-018
   2.4800000000000016E-002     1.8651665498539693E-017
   2.5600000000000012E-002     5.0051855141358901E-017
   2.6400000000000007E-002     5.3946056029136044E-017
   2.7200000000000002E-002     5.3249086052708051E-018
   2.8000000000000025E-002    -8.8629616690753837E-017
   2.8800000000000020E-002    -1.7895753444075255E-016
   2.9600000000000015E-002    -1.9332228678389942E-016
   3.0400000000000010E-002    -7.8992658152045645E-017
   3.1200000000000006E-002     1.5122492135892810E-016
   3.2000000000000001E-002     4.0034297567925260E-016
   3.2800000000000024E-002     5.1716401275911199E-016
   3.3600000000000019E-002     3.7141849459641275E-016
   3.4400000000000014E-002    -5.8238650260975878E-017
   3.5200000000000009E-002    -6.3227716671951069E-016
   3.6000000000000004E-002    -1.0755238964244105E-015
   3.6799999999999999E-002    -1.0880053504186762E-015
   3.7600000000000022E-002    -5.0480431975101405E-016
   3.8400000000000017E-002     5.6800160676433501E-016
   3.9200000000000013E-002     1.7215911830416948E-015
   4.0000000000000008E-002     2.3651745455411559E-015
   4.0800000000000003E-002     1.9823232766787375E-015
   4.1600000000000026E-002     4.3014805338988170E-016
   4.2400000000000021E-002    -1.8630659081447787E-015
   4.3200000000000016E-002    -3.9396489170181060E-015
   4.4000000000000011E-002    -4.6499851461456656E-015
   4.4800000000000006E-002    -3.2012839441494280E-015
   4.5600000000000002E-002     3.1069081155015051E-016
   4.6400000000000025E-002     4.6828949172453369E-015
   4.7200000000000020E-002     7.9187229825661634E-015
   4.8000000000000015E-002     8.0648039787155346E-015
   4.8800000000000010E-002     4.2614905202721653E-015
   4.9600000000000005E-002    -2.5184345694349809E-015
   5.0400000000000000E-002    -9.5422742312487908E-015
   5.1200000000000023E-002    -1.3371000372175684E-014
   5.2000000000000018E-002    -1.1539276377145209E-014
   5.2800000000000014E-002    -4.0526621704231429E-015
   5.3600000000000009E-002     6.1926756650680821E-015
   5.4400000000000004E-002     1.4527721270440365E-014
   5.5199999999999999E-002     1.6808415079162982E-014
   5.6000000000000022E-002     1.1752918415233477E-014
   5.6800000000000017E-002     1.9288500867185735E-015
   5.7600000000000012E-002    -7.4330647837966488E-015
   5.8400000000000007E-002    -1.1417938907451030E-014
   5.9200000000000003E-002    -8.6031408505406887E-015
   6.0000000000000026E-002    -2.3930895751091055E-015
   6.0800000000000021E-002     7.4267213540546613E-016
   6.1600000000000016E-002    -4.3929657037955570E-015
   6.2400000000000011E-002    -1.7169200292716479E-014
   6.3200000000000006E-002    -2.9430901753212460E-014
   6.4000000000000001E-002    -2.8623757281510259E-014
   6.4800000000000024E-002    -5.0587551996775920E-015
   6.5600000000000019E-002     4.0199594141757805E-014
   6.6400000000000015E-002     9.1619996366119200E-014
   6.7200000000000010E-002     1.2307903719636915E-013
   6.8000000000000005E-002     1.0899880851416091E-013
   6.8800000000000000E-002     3.8144163663159786E-014
   6.9600000000000023E-002    -7.6893718714381165E-014
   7.0400000000000018E-002    -2.0027383885404954E-013
   7.1200000000000013E-002    -2.8467218816594086E-013
   7.2000000000000008E-002    -2.8960877749770186E-013
   7.2800000000000004E-002    -1.9798889632806349E-013
   7.3600000000000027E-002    -2.3157821485626263E-014
   7.4400000000000022E-002     1.9629188953516202E-013
   7.5200000000000017E-002     4.1015078161045493E-013
   7.6000000000000012E-002     5.7055738172245851E-013
   7.6800000000000007E-002     6.3901163006863104E-013
   7.7600000000000002E-002     5.8492772257723313E-013
   7.8400000000000025E-002     3.8152456454526584E-013
   7.9200000000000020E-002     8.7436839452809112E-015
   8.0000000000000016E-002    -5.3014678150914429E-013
   8.0800000000000011E-002    -1.1811066447792173E-012
   8.1600000000000006E-002    -1.8150422571167057E-012
   8.2400000000000001E-002    -2.2265589979392209E-012
   8.3200000000000024E-002    -2.1709806261732689E-012
   8.4000000000000019E-002    -1.4397334236262993E-012
   8.4800000000000014E-002     4.5387216934030666E-014
   8.5600000000000009E-002     2.1529661733965533E-012
   8.6400000000000005E-002     4.5127074820017210E-012
   8.7200000000000027E-002     6.5567100360208741E-012
   8.8000000000000023E-002     7.6275791238700208E-012
   8.8800000000000018E-002     7.1265393759845086E-012
   8.9600000000000013E-002     4.6632428821191674E-012
   9.0400000000000008E-002     1.7343906259098540E-013
   9.1200000000000003E-002    -6.0134063527284010E-012
   9.2000000000000026E-002    -1.3157825523579803E-011
   9.2800000000000021E-002    -2.0139726691903448E-011
   9.3600000000000017E-002    -2.5533596070825837E-011
   9.4400000000000012E-002    -2.7741170471884402E-011
   9.5200000000000007E-002    -2.5196424807694129E-011
   9.6000000000000002E-002    -1.6640888320096359E-011
   9.6800000000000025E-002    -1.4299417769661482E-012
   9.7600000000000020E-002     2.0212352624948693E-011
   9.8400000000000015E-002     4.7095778665795507E-011
   9.9200000000000010E-002     7.7211098625795671E-011
  0.10000000000000001          1.0814245332557704E-010
  0.10080000000000003          1.3767040285550536E-010
  0.10160000000000002          1.6440565575592814E-010
  0.10240000000000002          1.8826010195205356E-010
  0.10320000000000001          2.1060242438863952E-010
  0.10400000000000001          2.3405100080253760E-010
  0.10480000000000000          2.6198329616811122E-010
  0.10560000000000003          2.9793428835134250E-010
  0.10640000000000002          3.4507502411074142E-010
  0.10720000000000002          4.0590170113929958E-010
  0.10800000000000001          4.8216164394432326E-010
  0.10880000000000001          5.7495042060651258E-010
  0.10960000000000000          6.8488303917035864E-010
  0.11040000000000003          8.1227918835580226E-010
  0.11120000000000002          9.5737695549047430E-010
  0.11200000000000002          1.1206408023767267E-009
  0.11280000000000001          1.3032128709511426E-009
  0.11360000000000001          1.5074701487094444E-009
  0.11440000000000003          1.7375352268089728E-009
  0.11520000000000002          1.9995241018477827E-009
  0.11600000000000002          2.3013582151065748E-009
  0.11680000000000001          2.6521180807037581E-009
  0.11760000000000001          3.0611173595929131E-009
  0.11840000000000001          3.5370262274625475E-009
  0.11920000000000003          4.0873908702110384E-009
  0.12000000000000002          4.7187547203009217E-009
  0.12080000000000002          5.4373598956658498E-009
  0.12160000000000001          6.2501768205436292E-009
  0.12240000000000001          7.1659158606962592E-009
  0.12320000000000000          8.1957267639154452E-009
  0.12400000000000003          9.3534637812808796E-009
  0.12480000000000002          1.0655583970731186E-008
  0.12560000000000002          1.2120846548668851E-008
  0.12640000000000001          1.3769975382160737E-008
  0.12720000000000001          1.5625328586565956E-008
  0.12800000000000000          1.7710556576844283E-008
  0.12880000000000003          2.0050201499088871E-008
  0.12960000000000002          2.2669306432021585E-008
  0.13040000000000002          2.5593237751309061E-008
  0.13120000000000004          2.8847928490449704E-008
  0.13200000000000001          3.2460697241276648E-008
  0.13280000000000003          3.6461511143670577E-008
  0.13360000000000000          4.0884255980699891E-008
  0.13440000000000002          4.5767535539198434E-008
  0.13520000000000004          5.1154504632222597E-008
  0.13600000000000001          5.7091721572533061E-008
  0.13680000000000003          6.3627346946759644E-008
  0.13760000000000000          7.0809377916702942E-008
  0.13840000000000002          7.8684657012217940E-008
  0.13919999999999999          8.7299000028906448E-008
  0.14000000000000001          9.6698300922071212E-008
  0.14080000000000004          1.0693007368445251E-007
  0.14160000000000000          1.1804461053088744E-007
  0.14240000000000003          1.3009523058826744E-007
  0.14319999999999999          1.4313737040083652E-007
  0.14400000000000002          1.5722707757959142E-007
  0.14480000000000004          1.7241933392142528E-007
  0.14560000000000001          1.8876696117331448E-007
  0.14640000000000003          2.0632015207411314E-007
  0.14720000000000000          2.2512656983053603E-007
  0.14800000000000002          2.4523134811715863E-007
  0.14880000000000004          2.6667652264222852E-007
  0.14960000000000001          2.8949966690561268E-007
  0.15040000000000003          3.1373210163110343E-007
  0.15120000000000000          3.3939716104214313E-007
  0.15200000000000002          3.6650888546319038E-007
  0.15279999999999999          3.9507176552433521E-007
  0.15360000000000001          4.2508094111326500E-007
  0.15440000000000004          4.5652254243577772E-007
  0.15520000000000000          4.8937351948552532E-007
  0.15600000000000003          5.2360047675392707E-007
  0.15679999999999999          5.5915785424076603E-007
  0.15760000000000002          5.9598534107863088E-007
  0.15840000000000004          6.3400574390470865E-007
  0.15920000000000001          6.7312339524505660E-007
  0.16000000000000003          7.1322318717648159E-007
  0.16080000000000000          7.5417040079628350E-007
  0.16160000000000002          7.9581064937883639E-007
  0.16240000000000004          8.3796982153216959E-007
  0.16320000000000001          8.8045419488480547E-007
  0.16400000000000003          9.2305043608575943E-007
  0.16480000000000000          9.6552594186505303E-007
  0.16560000000000002          1.0076289527205518E-006
  0.16639999999999999          1.0490889508218970E-006
  0.16720000000000002          1.0896168305407627E-006
  0.16800000000000004          1.1289040457995725E-006
  0.16880000000000001          1.1666227237583371E-006
  0.16960000000000003          1.2024254374409793E-006
  0.17040000000000000          1.2359466836642241E-006
  0.17120000000000002          1.2668050430875155E-006
  0.17200000000000004          1.2946076139996876E-006
  0.17280000000000001          1.3189543324187980E-006
  0.17360000000000003          1.3394417237577727E-006
  0.17440000000000000          1.3556663134295377E-006
  0.17520000000000002          1.3672263321495848E-006
  0.17600000000000005          1.3737228528043488E-006
  0.17680000000000001          1.3747612683800980E-006
  0.17760000000000004          1.3699539067602018E-006
  0.17840000000000000          1.3589240097644506E-006
  0.17920000000000003          1.3413115311777801E-006
  0.17999999999999999          1.3167792758395080E-006
  0.18080000000000002          1.2850190387325711E-006
  0.18160000000000004          1.2457568345780601E-006
  0.18240000000000001          1.1987565358140273E-006
  0.18320000000000003          1.1438233968874556E-006
  0.18400000000000000          1.0808063279910129E-006
  0.18480000000000002          1.0096006235471577E-006
  0.18560000000000004          9.3015120228301384E-007
  0.18640000000000001          8.4245601783550228E-007
  0.18720000000000003          7.4656969673014828E-007
  0.18800000000000000          6.4260683529937523E-007
  0.18880000000000002          5.3074506922712317E-007
  0.18960000000000005          4.1122763150269748E-007
  0.19040000000000001          2.8436511456675362E-007
  0.19120000000000004          1.5053660717967432E-007
  0.19200000000000000          1.0189675769822770E-008
  0.19280000000000003         -1.3616053706755338E-007
  0.19359999999999999         -2.8793346018574084E-007
  0.19440000000000002         -4.4448609060054878E-007
  0.19520000000000004         -6.0511672472784994E-007
  0.19600000000000001         -7.6906889034944470E-007
  0.19680000000000003         -9.3553558144776616E-007
  0.19760000000000000         -1.1036631804017816E-006
  0.19840000000000002         -1.2725558917736635E-006
  0.19920000000000004         -1.4412805739993928E-006
  0.20000000000000001         -1.6088719121398753E-006
  0.20080000000000003         -1.7743388980306918E-006
  0.20160000000000000         -1.9366725609870628E-006
  0.20240000000000002         -2.0948536985088140E-006
  0.20320000000000005         -2.2478625396615826E-006
  0.20400000000000001         -2.3946884084580233E-006
  0.20480000000000004         -2.5343383640574757E-006
  0.20560000000000000         -2.6658474325813586E-006
  0.20640000000000003         -2.7882863378181355E-006
  0.20720000000000000         -2.9007696866756305E-006
  0.20800000000000002         -3.0024630177649669E-006
  0.20880000000000004         -3.0925903047318570E-006
  0.20960000000000001         -3.1704403227195144E-006
  0.21040000000000003         -3.2353736969525926E-006
  0.21120000000000000         -3.2868301786947995E-006
  0.21200000000000002         -3.3243347843381343E-006
  0.21280000000000004         -3.3475048439868260E-006
  0.21360000000000001         -3.3560538668098161E-006
  0.21440000000000003         -3.3497958611405920E-006
  0.21520000000000000         -3.3286471534665907E-006
  0.21600000000000003         -3.2926272979239002E-006
  0.21680000000000005         -3.2418593036709353E-006
  0.21760000000000002         -3.1765675885253586E-006
  0.21840000000000004         -3.0970775242167292E-006
  0.21920000000000001         -3.0038122531550471E-006
  0.22000000000000003         -2.8972906420676736E-006
  0.22080000000000000         -2.7781240987678757E-006
  0.22160000000000002         -2.6470122520549921E-006
  0.22240000000000004         -2.5047379494935740E-006
  0.22320000000000001         -2.3521608909504721E-006
  0.22400000000000003         -2.1902096705161966E-006
  0.22480000000000000         -2.0198729089315748E-006
  0.22560000000000002         -1.8421899312670575E-006
  0.22640000000000005         -1.6582405351073248E-006
  0.22720000000000001         -1.4691356682305923E-006
  0.22800000000000004         -1.2760084473484312E-006
  0.22880000000000000         -1.0800050631587510E-006
  0.22960000000000003         -8.8227704964083387E-007
  0.23039999999999999         -6.8397264385566814E-007
  0.23120000000000002         -4.8622803205944365E-007
  0.23200000000000004         -2.9015819791311515E-007
  0.23280000000000001         -9.6847315944614820E-008
  0.23360000000000003          9.2660556560986151E-008
  0.23440000000000000          2.7737041818909347E-007
  0.23520000000000002          4.5634399725713592E-007
  0.23600000000000004          6.2870623196431552E-007
  0.23680000000000001          7.9365059946212568E-007
  0.23760000000000003          9.5044293857426965E-007
  0.23840000000000000          1.0984247182932450E-006
  0.23920000000000002          1.2370153399388073E-006
  0.24000000000000005          1.3657142972078873E-006
  0.24080000000000001          1.4841027677903185E-006
  0.24160000000000004          1.5918444660201203E-006
  0.24240000000000000          1.6886865523701999E-006
  0.24320000000000003          1.7744596334523521E-006
  0.24399999999999999          1.8490768525225576E-006
  0.24480000000000002          1.9125329799862811E-006
  0.24560000000000004          1.9649021396617172E-006
  0.24640000000000001          2.0063343981746584E-006
  0.24720000000000003          2.0370505353639601E-006
  0.24800000000000000          2.0573365873133298E-006
  0.24880000000000002          2.0675372525147395E-006
  0.24960000000000004          2.0680486159108113E-006
  0.25040000000000001          2.0593124645529315E-006
  0.25120000000000003          2.0418106032593641E-006
  0.25200000000000000          2.0160603071417427E-006
  0.25280000000000002          1.9826095467578853E-006
  0.25360000000000005          1.9420333501329878E-006
  0.25440000000000002          1.8949282321045757E-006
  0.25520000000000004          1.8419071921016439E-006
  0.25600000000000001          1.7835933476817445E-006
  0.25680000000000003          1.7206135680680745E-006
  0.25760000000000000          1.6535922213734011E-006
  0.25840000000000002          1.5831451491976622E-006
  0.25920000000000004          1.5098740959729184E-006
  0.26000000000000001          1.4343622751766816E-006
  0.26080000000000003          1.3571707313531078E-006
  0.26160000000000000          1.2788357253157301E-006
  0.26240000000000002          1.1998670288448920E-006
  0.26320000000000005          1.1207465604456956E-006
  0.26400000000000001          1.0419277032269747E-006
  0.26480000000000004          9.6383428171975538E-007
  0.26560000000000000          8.8685868604443385E-007
  0.26640000000000003          8.1136016660821042E-007
  0.26720000000000005          7.3766267405517283E-007
  0.26800000000000002          6.6605360871108132E-007
  0.26880000000000004          5.9678325214918004E-007
  0.26960000000000001          5.3006527878096676E-007
  0.27040000000000003          4.6607860326730588E-007
  0.27120000000000000          4.0496945530321682E-007
  0.27200000000000002          3.4685393757172278E-007
  0.27280000000000004          2.9182024263718631E-007
  0.27360000000000001          2.3993061404325999E-007
  0.27440000000000003          1.9122275318750326E-007
  0.27520000000000000          1.4571104145488789E-007
  0.27600000000000002          1.0338737155279887E-007
  0.27680000000000005          6.4222106743727636E-008
  0.27760000000000001          2.8165274557068187E-008
  0.27840000000000004         -4.8517887485388655E-009
  0.27920000000000000         -3.4914215518710989E-008
  0.28000000000000003         -6.2121003452375589E-008
  0.28080000000000005         -8.6582282676772593E-008
  0.28160000000000002         -1.0841671382877394E-007
  0.28240000000000004         -1.2774926005931775E-007
  0.28320000000000001         -1.4470943199285102E-007
  0.28400000000000003         -1.5942990216899489E-007
  0.28480000000000000         -1.7204544633386831E-007
  0.28560000000000002         -1.8269204815624107E-007
  0.28640000000000004         -1.9150621710650739E-007
  0.28720000000000001         -1.9862430633565964E-007
  0.28800000000000003         -2.0418184476511669E-007
  0.28880000000000000         -2.0831276970056933E-007
  0.28960000000000002         -2.1114855996984261E-007
  0.29040000000000005         -2.1281722695221106E-007
  0.29120000000000001         -2.1344224876429507E-007
  0.29200000000000004         -2.1314168918706855E-007
  0.29280000000000000         -2.1202764344252500E-007
  0.29360000000000003         -2.1020611029598513E-007
  0.29440000000000005         -2.0777724785148166E-007
  0.29520000000000002         -2.0483595619680273E-007
  0.29600000000000004         -2.0147244583768043E-007
  0.29680000000000001         -1.9777260718001344E-007
  0.29760000000000003         -1.9381798210815759E-007
  0.29840000000000000         -1.8968546555697685E-007
  0.29920000000000002         -1.8544677971021883E-007
  0.30000000000000004         -1.8116809030743752E-007
  0.30080000000000001         -1.7690985032459139E-007
  0.30160000000000003         -1.7272699892600940E-007
  0.30240000000000000         -1.6866950147687021E-007
  0.30320000000000003         -1.6478311692935677E-007
  0.30400000000000005         -1.6111029310650338E-007
  0.30480000000000002         -1.5769096251005976E-007
  0.30560000000000004         -1.5456321023066266E-007
  0.30640000000000001         -1.5176365764091315E-007
  0.30720000000000003         -1.4932747660623136E-007
  0.30800000000000005         -1.4728814790032629E-007
  0.30880000000000002         -1.4567704909040913E-007
  0.30960000000000004         -1.4452305663326115E-007
  0.31040000000000001         -1.4385246061010548E-007
  0.31120000000000003         -1.4368922052199196E-007
  0.31200000000000000         -1.4405553372398572E-007
  0.31280000000000002         -1.4497258860046713E-007
  0.31360000000000005         -1.4646126089701283E-007
  0.31440000000000001         -1.4854259688945604E-007
  0.31520000000000004         -1.5123787022730539E-007