  -4.0000000000000001E-002     0.0000000000000000     
  -3.9899999999999998E-002     0.0000000000000000     
  -3.9800000000000002E-002     0.0000000000000000     
  -3.9699999999999999E-002     0.0000000000000000     
  -3.9600000000000003E-002     0.0000000000000000     
  -3.9500000000000000E-002     0.0000000000000000     
  -3.9399999999999998E-002     0.0000000000000000     
  -3.9300000000000002E-002     0.0000000000000000     
  -3.9199999999999999E-002     0.0000000000000000     
  -3.9100000000000003E-002     0.0000000000000000     
  -3.9000000000000000E-002     0.0000000000000000     
  -3.8900000000000004E-002     0.0000000000000000     
  -3.8800000000000001E-002     0.0000000000000000     
  -3.8699999999999998E-002     0.0000000000000000     
  -3.8600000000000002E-002     0.0000000000000000     
  -3.8500000000000000E-002     0.0000000000000000     
  -3.8400000000000004E-002     0.0000000000000000     
  -3.8300000000000001E-002     0.0000000000000000     
  -3.8199999999999998E-002     0.0000000000000000     
  -3.8100000000000002E-002     0.0000000000000000     
  -3.7999999999999999E-002     0.0000000000000000     
  -3.7900000000000003E-002     0.0000000000000000     
  -3.7800000000000000E-002     0.0000000000000000     
  -3.7699999999999997E-002     0.0000000000000000     
  -3.7600000000000001E-002     0.0000000000000000     
  -3.7499999999999999E-002     0.0000000000000000     
  -3.7400000000000003E-002     0.0000000000000000     
  -3.7300000000000000E-002     0.0000000000000000     
  -3.7200000000000004E-002     0.0000000000000000     
  -3.7100000000000001E-002     0.0000000000000000     
  -3.6999999999999998E-002     0.0000000000000000     
  -3.6900000000000002E-002     0.0000000000000000     
  -3.6799999999999999E-002     0.0000000000000000     
  -3.6700000000000003E-002     0.0000000000000000     
  -3.6600000000000001E-002     0.0000000000000000     
  -3.6499999999999998E-002     0.0000000000000000     
  -3.6400000000000002E-002     0.0000000000000000     
  -3.6299999999999999E-002     0.0000000000000000     
  -3.6200000000000003E-002     0.0000000000000000     
  -3.6100000000000000E-002     0.0000000000000000     
  -3.6000000000000004E-002     0.0000000000000000     
  -3.5900000000000001E-002     0.0000000000000000     
  -3.5799999999999998E-002     0.0000000000000000     
  -3.5700000000000003E-002     0.0000000000000000     
  -3.5600000000000000E-002     0.0000000000000000     
  -3.5500000000000004E-002     0.0000000000000000     
  -3.5400000000000001E-002     0.0000000000000000     
  -3.5299999999999998E-002     0.0000000000000000     
  -3.5200000000000002E-002     0.0000000000000000     
  -3.5099999999999999E-002     0.0000000000000000     
  -3.5000000000000003E-002     0.0000000000000000     
  -3.4900000000000000E-002     0.0000000000000000     
  -3.4799999999999998E-002     0.0000000000000000     
  -3.4700000000000002E-002     0.0000000000000000     
  -3.4599999999999999E-002     0.0000000000000000     
  -3.4500000000000003E-002     0.0000000000000000     
  -3.4400000000000000E-002     0.0000000000000000     
  -3.4299999999999997E-002     0.0000000000000000     
  -3.4200000000000001E-002     0.0000000000000000     
  -3.4099999999999998E-002     0.0000000000000000     
  -3.4000000000000002E-002     0.0000000000000000     
  -3.3900000000000000E-002     0.0000000000000000     
  -3.3799999999999997E-002     0.0000000000000000     
  -3.3700000000000001E-002     0.0000000000000000     
  -3.3599999999999998E-002     0.0000000000000000     
  -3.3500000000000002E-002     0.0000000000000000     
  -3.3399999999999999E-002     0.0000000000000000     
  -3.3300000000000003E-002     0.0000000000000000     
  -3.3200000000000000E-002     0.0000000000000000     
  -3.3099999999999997E-002     0.0000000000000000     
  -3.3000000000000002E-002     0.0000000000000000     
  -3.2899999999999999E-002     0.0000000000000000     
  -3.2800000000000003E-002     0.0000000000000000     
  -3.2700000000000000E-002     0.0000000000000000     
  -3.2600000000000004E-002     0.0000000000000000     
  -3.2500000000000001E-002     0.0000000000000000     
  -3.2399999999999998E-002     0.0000000000000000     
  -3.2300000000000002E-002     0.0000000000000000     
  -3.2199999999999999E-002     0.0000000000000000     
  -3.2100000000000004E-002     0.0000000000000000     
  -3.2000000000000001E-002     0.0000000000000000     
  -3.1899999999999998E-002     0.0000000000000000     
  -3.1800000000000002E-002     0.0000000000000000     
  -3.1699999999999999E-002     0.0000000000000000     
  -3.1600000000000003E-002     0.0000000000000000     
  -3.1500000000000000E-002     0.0000000000000000     
  -3.1399999999999997E-002     0.0000000000000000     
  -3.1300000000000001E-002     0.0000000000000000     
  -3.1199999999999999E-002     0.0000000000000000     
  -3.1100000000000003E-002     0.0000000000000000     
  -3.1000000000000000E-002     0.0000000000000000     
  -3.0900000000000000E-002     0.0000000000000000     
  -3.0800000000000001E-002     0.0000000000000000     
  -3.0699999999999998E-002     0.0000000000000000     
  -3.0600000000000002E-002     0.0000000000000000     
  -3.0499999999999999E-002     0.0000000000000000     
  -3.0400000000000000E-002     0.0000000000000000     
  -3.0300000000000001E-002     0.0000000000000000     
  -3.0200000000000001E-002     0.0000000000000000     
  -3.0100000000000002E-002     0.0000000000000000     
  -2.9999999999999999E-002     0.0000000000000000     
  -2.9899999999999999E-002     0.0000000000000000     
  -2.9800000000000000E-002     0.0000000000000000     
  -2.9700000000000001E-002     0.0000000000000000     
  -2.9600000000000001E-002     0.0000000000000000     
  -2.9499999999999998E-002     0.0000000000000000     
  -2.9400000000000003E-002     0.0000000000000000     
  -2.9300000000000000E-002     0.0000000000000000     
  -2.9200000000000000E-002     0.0000000000000000     
  -2.9100000000000001E-002     0.0000000000000000     
  -2.8999999999999998E-002     0.0000000000000000     
  -2.8900000000000002E-002     0.0000000000000000     
  -2.8799999999999999E-002     0.0000000000000000     
  -2.8700000000000000E-002     0.0000000000000000     
  -2.8600000000000000E-002     0.0000000000000000     
  -2.8500000000000001E-002     0.0000000000000000     
  -2.8400000000000002E-002     0.0000000000000000     
  -2.8299999999999999E-002     0.0000000000000000     
  -2.8200000000000003E-002     0.0000000000000000     
  -2.8100000000000000E-002     0.0000000000000000     
  -2.8000000000000001E-002     1.5082065509728403E-037
  -2.7900000000000001E-002     5.5635091516213051E-037
  -2.7799999999999998E-002     7.1520556187740787E-037
  -2.7700000000000002E-002    -2.5909301005693322E-036
  -2.7600000000000000E-002    -5.7652444730174899E-036
  -2.7500000000000000E-002    -1.0536029621803015E-035
  -2.7400000000000001E-002    -2.4260998060084941E-035
  -2.7299999999999998E-002    -4.3330501084047579E-035
  -2.7200000000000002E-002    -5.7374002375683124E-035
  -2.7099999999999999E-002    -4.3991647779762997E-035
  -2.7000000000000000E-002     2.1537536065460573E-035
  -2.6900000000000000E-002     1.4251958684364570E-034
  -2.6800000000000001E-002     2.3806644238730683E-034
  -2.6700000000000002E-002     1.4327444018375333E-034
  -2.6599999999999999E-002    -2.2514406309304953E-034
  -2.6500000000000003E-002    -7.6585748251701173E-034
  -2.6400000000000000E-002    -1.1610560659518243E-033
  -2.6300000000000000E-002    -9.1061809653508983E-034
  -2.6200000000000001E-002     4.0187185568088107E-034
  -2.6099999999999998E-002     2.6996783459938749E-033
  -2.6000000000000002E-002     5.0391348970439063E-033
  -2.5899999999999999E-002     5.5167463333066636E-033
  -2.5800000000000000E-002     1.8770685013143920E-033
  -2.5700000000000001E-002    -6.9414036095170281E-033
  -2.5599999999999998E-002    -1.8729820054063537E-032
  -2.5500000000000002E-002    -2.6621114934541131E-032
  -2.5399999999999999E-002    -2.0303405852367362E-032
  -2.5300000000000000E-002     8.6985487281735072E-033
  -2.5200000000000000E-002     5.8255096140805137E-032
  -2.5100000000000001E-002     1.0739359882403399E-031
  -2.5000000000000001E-002     1.1595100961892411E-031
  -2.4899999999999999E-002     3.9619322981647076E-032
  -2.4800000000000003E-002    -1.3801325183244520E-031
  -2.4700000000000000E-002    -3.6724432456129853E-031
  -2.4600000000000000E-002    -5.1320390645035889E-031
  -2.4500000000000001E-002    -3.8792924004396114E-031
  -2.4399999999999998E-002     1.4780837589414663E-031
  -2.4299999999999999E-002     1.0337950895990254E-030
  -2.4199999999999999E-002     1.8877434931832595E-030
  -2.4100000000000000E-002     2.0297712345479154E-030
  -2.4000000000000000E-002     7.5658751974008977E-031
  -2.3900000000000001E-002    -2.1415355447122333E-030
  -2.3800000000000002E-002    -5.8201475025596898E-030
  -2.3699999999999999E-002    -8.1677688360671253E-030
  -2.3599999999999999E-002    -6.3772084449623918E-030
  -2.3500000000000000E-002     1.5135989697628601E-030
  -2.3400000000000001E-002     1.4510379002821539E-029
  -2.3300000000000001E-002     2.7111363975387729E-029
  -2.3199999999999998E-002     2.9887432499148410E-029
  -2.3099999999999999E-002     1.3370117132919385E-029
  -2.3000000000000000E-002    -2.5130567597076992E-029
  -2.2900000000000000E-002    -7.4572314391758659E-029
  -2.2800000000000001E-002    -1.0801443277999705E-028
  -2.2700000000000001E-002    -9.0249107286641253E-029
  -2.2599999999999999E-002     3.2271446385440919E-030
  -2.2499999999999999E-002     1.6137119040540309E-028
  -2.2400000000000000E-002     3.2033571467817559E-028
  -2.2300000000000000E-002     3.7118110780434929E-028
  -2.2200000000000001E-002     2.0426750027911291E-028
  -2.2100000000000002E-002    -2.1569762968368380E-028
  -2.1999999999999999E-002    -7.7534747332147294E-028
  -2.1899999999999999E-002    -1.1907583808189015E-027
  -2.1800000000000000E-002    -1.0874288689251236E-027
  -2.1700000000000001E-002    -1.9385604337037704E-028
  -2.1600000000000001E-002     1.4095246669053504E-027
  -2.1499999999999998E-002     3.1188757964369723E-027
  -2.1399999999999999E-002     3.8770649191426563E-027
  -2.1299999999999999E-002     2.5892078912825558E-027
  -2.1200000000000000E-002    -1.1796365205760541E-027
  -2.1100000000000001E-002    -6.5144187479189598E-027
  -2.1000000000000001E-002    -1.0927374444459342E-026
  -2.0899999999999998E-002    -1.1028568966713270E-026
  -2.0799999999999999E-002    -4.1806546488802606E-027
  -2.0700000000000000E-002     9.3615995626483415E-027
  -2.0600000000000000E-002     2.4931249411754277E-026
  -2.0500000000000001E-002     3.3884124269744870E-026
  -2.0400000000000001E-002     2.6819921085809375E-026
  -2.0299999999999999E-002    -9.0333240332555594E-028
  -2.0199999999999999E-002    -4.3595035909382547E-026
  -2.0100000000000000E-002    -8.3097023871195120E-026
  -2.0000000000000000E-002    -9.3306917766776285E-026
  -1.9900000000000001E-002    -5.2103831381540287E-026
  -1.9799999999999998E-002     4.2841442633303154E-026
  -1.9699999999999999E-002     1.6217651473756771E-025
  -1.9599999999999999E-002     2.4632186695906751E-025
  -1.9500000000000000E-002     2.2625541489773433E-025
  -1.9400000000000001E-002     6.0693848712056681E-026
  -1.9300000000000001E-002    -2.2485728220274653E-025
  -1.9199999999999998E-002    -5.2011295532167534E-025
  -1.9099999999999999E-002    -6.5443215374223729E-025
  -1.9000000000000000E-002    -4.6956787611099684E-025
  -1.8900000000000000E-002     7.9859477086409867E-026
  -1.8800000000000001E-002     8.4540576465396186E-025
  -1.8700000000000001E-002     1.4811565581730143E-024
  -1.8599999999999998E-002     1.5557187048583728E-024
  -1.8499999999999999E-002     7.6660097610890502E-025
  -1.8400000000000000E-002    -8.2347755155250052E-025
  -1.8300000000000000E-002    -2.6582770515734407E-024
  -1.8200000000000001E-002    -3.7917025394336752E-024
  -1.8100000000000002E-002    -3.2650844398723211E-024
  -1.7999999999999999E-002    -6.5660931123303413E-025
  -1.7899999999999999E-002     3.4436894513472788E-024
  -1.7800000000000000E-002     7.3419079345084211E-024
  -1.7700000000000000E-002     8.7465923165293106E-024
  -1.7600000000000001E-002     5.8303112061551910E-024
  -1.7499999999999998E-002    -1.5370665817924878E-024
  -1.7399999999999999E-002    -1.1023531245505746E-023
  -1.7299999999999999E-002    -1.8167220522637473E-023
  -1.7200000000000000E-002    -1.8053943252091357E-023
  -1.7100000000000001E-002    -7.9128507478275597E-024
  -1.7000000000000001E-002     1.0490860807864310E-023
  -1.6899999999999998E-002     3.0105620581198804E-023
  -1.6799999999999999E-002     4.0539088602764664E-023
  -1.6700000000000000E-002     3.2616930873977307E-023
  -1.6600000000000000E-002     3.9554582304439789E-024
  -1.6500000000000001E-002    -3.7219842748076905E-023
  -1.6400000000000001E-002    -7.2800867986324230E-023
  -1.6299999999999999E-002    -8.1304914762351572E-023
  -1.6199999999999999E-002    -4.8583822694448883E-023
  -1.6100000000000000E-002     2.1774086641090623E-023
  -1.6000000000000000E-002     1.0427204465978406E-022
  -1.5900000000000001E-002     1.5805304077001001E-022
  -1.5799999999999998E-002     1.4419988596786003E-022
  -1.5699999999999999E-002     4.7812736403144311E-023
  -1.5599999999999999E-002    -1.0580114739491550E-022
  -1.5500000000000000E-002    -2.5177792046368051E-022
  -1.5400000000000000E-002    -3.0838925483853083E-022
  -1.5300000000000001E-002    -2.1641577257219581E-022
  -1.5199999999999998E-002     2.1180347325332408E-023
  -1.5099999999999999E-002     3.2112270678269734E-022
  -1.4999999999999999E-002     5.4010663180905826E-022
  -1.4900000000000000E-002     5.3444435231445012E-022
  -1.4800000000000001E-002     2.3851092086854595E-022
  -1.4700000000000001E-002    -2.7538548550929486E-022
  -1.4599999999999998E-002    -7.9439312995134159E-022
  -1.4499999999999999E-002    -1.0387213509487025E-021
  -1.4400000000000000E-002    -7.9415387159423167E-022
  -1.4300000000000000E-002    -4.8467980048238988E-023
  -1.4200000000000001E-002     9.4191062409865013E-022
  -1.4099999999999998E-002     1.7122832550303740E-021
  -1.3999999999999999E-002     1.7815061150078799E-021
  -1.3899999999999999E-002     9.0885086457780520E-022
  -1.3800000000000000E-002    -7.0555002446176631E-022
  -1.3700000000000000E-002    -2.4024049272344450E-021
  -1.3600000000000001E-002    -3.2893794293547977E-021
  -1.3499999999999998E-002    -2.6581590348265760E-021
  -1.3399999999999999E-002    -4.1965123189640998E-022
  -1.3299999999999999E-002     2.6740083485068462E-021
  -1.3200000000000000E-002     5.2006133541948129E-021
  -1.3100000000000001E-002     5.6484492609484489E-021
  -1.3000000000000001E-002     3.2048119247279713E-021
  -1.2899999999999998E-002    -1.6166866419114420E-021
  -1.2799999999999999E-002    -6.8920761339339291E-021
  -1.2699999999999999E-002    -9.9375742035951810E-021
  -1.2600000000000000E-002    -8.5408401574146134E-021
  -1.2500000000000001E-002    -2.2655087572892280E-021
  -1.2399999999999998E-002     6.8510789948242697E-021
  -1.2299999999999998E-002     1.4738211400394010E-020
  -1.2199999999999999E-002     1.6928336862015808E-020
  -1.2100000000000000E-002     1.0822241445339943E-020
  -1.2000000000000000E-002    -2.4649160324125857E-021
  -1.1900000000000001E-002    -1.7764262647724596E-020
  -1.1799999999999998E-002    -2.7575723311854551E-020
  -1.1699999999999999E-002    -2.5446448939630820E-020
  -1.1599999999999999E-002    -9.6186064123700578E-021
  -1.1500000000000000E-002     1.4920069966120634E-020
  -1.1400000000000000E-002     3.7451167688835190E-020
  -1.1300000000000001E-002     4.5798622066322856E-020
  -1.1199999999999998E-002     3.2371328762524872E-020
  -1.1099999999999999E-002    -8.0025018866977965E-022
  -1.0999999999999999E-002    -4.0923849614917529E-020
  -1.0900000000000000E-002    -6.8699760328532716E-020
  -1.0800000000000001E-002    -6.6960373983744159E-020
  -1.0699999999999998E-002    -3.0138206064921655E-020
  -1.0599999999999998E-002     3.0237910409302705E-020
  -1.0499999999999999E-002     8.7802792179454513E-020
  -1.0400000000000000E-002     1.1190926507229911E-019
  -1.0300000000000000E-002     8.2759032545018285E-020
  -1.0200000000000001E-002     4.1554900372796692E-021
  -1.0099999999999998E-002    -9.3355086944851858E-020
  -9.9999999999999985E-003    -1.6270861076298557E-019
  -9.8999999999999991E-003    -1.6144868544309659E-019
  -9.7999999999999997E-003    -7.5011613691406878E-020
  -9.7000000000000003E-003     6.9599493728094594E-020
  -9.6000000000000009E-003     2.0900702117152664E-019
  -9.4999999999999980E-003     2.6884918286682522E-019
  -9.3999999999999986E-003     2.0038138853897681E-019
  -9.2999999999999992E-003     1.1506751981479613E-020
  -9.1999999999999998E-003    -2.2518893577505131E-019
  -9.1000000000000004E-003    -3.9647141575881680E-019
  -9.0000000000000011E-003    -3.9878467804060962E-019
  -8.8999999999999982E-003    -1.9416568199761487E-019
  -8.7999999999999988E-003     1.5617288872214217E-019
  -8.6999999999999994E-003     5.0266550903322805E-019
  -8.5999999999999965E-003     6.6616675269349548E-019
  -8.5000000000000006E-003     5.2408317964618075E-019
  -8.3999999999999977E-003     8.4951280888134017E-020
  -8.3000000000000018E-003    -4.8928560413124140E-019
  -8.1999999999999990E-003    -9.3517886429159951E-019
  -8.0999999999999961E-003    -1.0018527235906706E-018
  -8.0000000000000002E-003    -5.8095784381864241E-019
  -7.8999999999999973E-003     2.1088470823732495E-019
  -7.8000000000000014E-003     1.0482998455637122E-018
  -7.6999999999999985E-003     1.5223641890506357E-018
  -7.6000000000000026E-003     1.3313488502653231E-018
  -7.4999999999999997E-003     4.5204402009893757E-019
  -7.3999999999999969E-003    -7.9892484661125223E-019
  -7.3000000000000009E-003    -1.8646745841846534E-018
  -7.1999999999999981E-003    -2.1865187732053076E-018
  -7.1000000000000021E-003    -1.4845924339444736E-018
  -6.9999999999999993E-003     5.4555611626380964E-020
  -6.8999999999999964E-003     1.7947335682611510E-018
  -6.8000000000000005E-003     2.8975845276566635E-018
  -6.6999999999999976E-003     2.7138834300402745E-018
  -6.6000000000000017E-003     1.1434335776207062E-018
  -6.4999999999999988E-003    -1.2254369548267632E-018
  -6.3999999999999960E-003    -3.3050621760015636E-018
  -6.3000000000000000E-003    -3.9845438999189603E-018
  -6.1999999999999972E-003    -2.6967612049507331E-018
  -6.1000000000000013E-003     1.9967006491096949E-019
  -5.9999999999999984E-003     3.4512719327394459E-018
  -5.9000000000000025E-003     5.4077672872302419E-018
  -5.7999999999999996E-003     4.8106888823450715E-018
  -5.6999999999999967E-003     1.5161249724853013E-018
  -5.6000000000000008E-003    -3.2322936499492017E-018
  -5.4999999999999979E-003    -7.1992026795939909E-018
  -5.4000000000000020E-003    -8.1357100993469271E-018
  -5.2999999999999992E-003    -4.9400992212274613E-018
  -5.1999999999999963E-003     1.5614109396734716E-018
  -5.1000000000000004E-003     8.6794605837311101E-018
  -4.9999999999999975E-003     1.2887009895252529E-017
  -4.9000000000000016E-003     1.1452541401103895E-017
  -4.7999999999999987E-003     3.9607608029468356E-018
  -4.6999999999999958E-003    -7.0632803613392774E-018
  -4.5999999999999999E-003    -1.6889401871248546E-017
  -4.4999999999999971E-003    -2.0533630432273390E-017
  -4.4000000000000011E-003    -1.5152206779601430E-017
  -4.2999999999999983E-003    -1.7638032172062619E-018
  -4.2000000000000023E-003     1.4650348030159383E-017
  -4.0999999999999995E-003     2.6955465315802296E-017
  -3.9999999999999966E-003     2.8964913671181440E-017
  -3.9000000000000007E-003     1.8493015565774473E-017
  -3.7999999999999978E-003    -1.1394963013025304E-018
  -3.7000000000000019E-003    -2.2075189037245589E-017
  -3.5999999999999990E-003    -3.5181053551786785E-017
  -3.4999999999999962E-003    -3.4252692206706271E-017
  -3.4000000000000002E-003    -1.9179712786175170E-017
  -3.2999999999999974E-003     3.6165519249094321E-018
  -3.2000000000000015E-003     2.3966721141944073E-017
  -3.0999999999999986E-003     3.2848387680774996E-017
  -2.9999999999999957E-003     2.7047922601589798E-017
  -2.8999999999999998E-003     1.1079666578938466E-017
  -2.7999999999999969E-003    -4.9959723764732744E-018
  -2.7000000000000010E-003    -1.1157682945592018E-017
  -2.5999999999999981E-003    -3.7105303958434192E-018
  -2.5000000000000022E-003     1.1283290321608195E-017
  -2.3999999999999994E-003     2.0027392588668487E-017
  -2.2999999999999965E-003     8.4629667379106689E-018
  -2.2000000000000006E-003    -2.7964154170167835E-017
  -2.0999999999999977E-003    -7.7484899801263588E-017
  -2.0000000000000018E-003    -1.1304357453757063E-016
  -1.8999999999999989E-003    -1.0296517948444494E-016
  -1.7999999999999960E-003    -2.8137551078893651E-017
  -1.7000000000000001E-003     1.0187141510407832E-016
  -1.5999999999999973E-003     2.4292404648418862E-016
  -1.5000000000000013E-003     3.2699256942499036E-016
  -1.3999999999999985E-003     2.8890972988842060E-016
  -1.2999999999999956E-003     1.0033280622517049E-016
  -1.1999999999999997E-003    -2.0399376371878073E-016
  -1.0999999999999968E-003    -5.2280625803945049E-016
  -1.0000000000000009E-003    -7.1574596386387679E-016
  -8.9999999999999802E-004    -6.5698125320309679E-016
  -8.0000000000000210E-004    -2.9686003407090867E-016
  -6.9999999999999923E-004     2.9475081615312705E-016
  -5.9999999999999637E-004     9.2767969531621112E-016
  -5.0000000000000044E-004     1.3438545108730346E-015
  -3.9999999999999758E-004     1.3121887135355247E-015
  -3.0000000000000165E-004     7.3412996695108412E-016
  -1.9999999999999879E-004    -2.8344663207642638E-016
  -9.9999999999995925E-005    -1.4263115801014647E-015
   0.0000000000000000         -2.2577514978297606E-015
   1.0000000000000286E-004    -2.3725128154796936E-015
   1.9999999999999879E-004    -1.5696584597762173E-015
   3.0000000000000165E-004     2.3323315246081952E-017
   4.0000000000000452E-004     1.9355098832663604E-015
   5.0000000000000044E-004     3.4736315064712872E-015
   6.0000000000000331E-004     3.9560127465261118E-015
   6.9999999999999923E-004     2.9865011644394446E-015
   8.0000000000000210E-004     6.6642789402646878E-016
   8.9999999999999802E-004    -2.3509710735651222E-015
   1.0000000000000009E-003    -5.0140657413804551E-015
   1.1000000000000038E-003    -6.2119626052770625E-015
   1.1999999999999997E-003    -5.2003304040640439E-015
   1.3000000000000025E-003    -1.9633249629465339E-015
   1.3999999999999985E-003     2.6416615578762469E-015
   1.5000000000000013E-003     7.0538913319912085E-015
   1.6000000000000042E-003     9.4877913780154997E-015
   1.7000000000000001E-003     8.5934939923044094E-015
   1.8000000000000030E-003     4.0775971263244150E-015
   1.8999999999999989E-003    -2.9665590442457630E-015
   2.0000000000000018E-003    -1.0208231016137909E-014
   2.1000000000000046E-003    -1.4750186003707234E-014
   2.2000000000000006E-003    -1.4168501373773394E-014
   2.3000000000000034E-003    -7.5907272614338279E-015
   2.3999999999999994E-003     3.6068450133606815E-015
   2.5000000000000022E-003     1.5846798902935909E-014
   2.5999999999999981E-003     2.4295854295975673E-014
   2.7000000000000010E-003     2.4538981550957864E-014
   2.8000000000000039E-003     1.4482010290408839E-014
   2.8999999999999998E-003    -4.2300228227651945E-015
   3.0000000000000027E-003    -2.5970321542150704E-014
   3.0999999999999986E-003    -4.2450363970519822E-014
   3.2000000000000015E-003    -4.5452597713163331E-014
   3.3000000000000043E-003    -3.0215677778843569E-014
   3.4000000000000002E-003     1.7421886949783145E-015
   3.5000000000000031E-003     4.1650771644575341E-014
   3.5999999999999990E-003     7.5223505267667246E-014
   3.7000000000000019E-003     8.7070433328617636E-014
   3.7999999999999978E-003     6.6661601369130685E-014
   3.9000000000000007E-003     1.3806983476720523E-014
   4.0000000000000036E-003    -5.8681751406892968E-014
   4.0999999999999995E-003    -1.2690698914918225E-013
   4.2000000000000023E-003    -1.6271029933557363E-013
   4.2999999999999983E-003    -1.4383795803735167E-013
   4.4000000000000011E-003    -6.4166364279263921E-014
   4.5000000000000040E-003     6.0076387766415384E-014
   4.5999999999999999E-003     1.9148242290812495E-013
   4.7000000000000028E-003     2.8123185204231849E-013
   4.7999999999999987E-003     2.8550648173766846E-013
   4.9000000000000016E-003     1.8354057423203285E-013
   5.0000000000000044E-003    -9.4184083682070582E-015
   5.1000000000000004E-003    -2.4037095556171673E-013
   5.2000000000000032E-003    -4.3103406044062154E-013
   5.2999999999999992E-003    -5.0253773581712680E-013
   5.4000000000000020E-003    -4.0519974528474556E-013
   5.4999999999999979E-003    -1.4286274528825527E-013
   5.6000000000000008E-003     2.1860449919437058E-013
   5.7000000000000037E-003     5.6482948743510897E-013
   5.7999999999999996E-003     7.6726656712128305E-013
   5.9000000000000025E-003     7.2885832569022369E-013
   5.9999999999999984E-003     4.2552189528054229E-013
   6.1000000000000013E-003    -7.3087396594909149E-014
   6.2000000000000041E-003    -6.1487089291628605E-013
   6.3000000000000000E-003    -1.0094955470510425E-012
   6.4000000000000029E-003    -1.0938452834480250E-012
   6.4999999999999988E-003    -7.9702357994732020E-013
   6.6000000000000017E-003    -1.8001764900792139E-013
   6.7000000000000046E-003     5.6891698383548794E-013
   6.8000000000000005E-003     1.1878949430013663E-012
   6.9000000000000034E-003     1.4306233064517726E-012
   6.9999999999999993E-003     1.1620791134925312E-012
   7.1000000000000021E-003     4.2480363844632496E-013
   7.1999999999999981E-003    -5.5381827596123756E-013
   7.3000000000000009E-003    -1.4243323317661427E-012
   7.4000000000000038E-003    -1.8335498050414678E-012
   7.4999999999999997E-003    -1.5604372178082415E-012
   7.6000000000000026E-003    -6.1949479834150223E-013
   7.6999999999999985E-003     7.1273992567275068E-013
   7.8000000000000014E-003     1.9687194582895806E-012
   7.9000000000000042E-003     2.6441418499167924E-012
   8.0000000000000002E-003     2.3870087764027437E-012
   8.1000000000000030E-003     1.1531850778109809E-012
   8.1999999999999990E-003    -7.3581993362964448E-013
   8.3000000000000018E-003    -2.6676005154824267E-012
   8.4000000000000047E-003    -3.9340176082036660E-012
   8.5000000000000006E-003    -3.9865055700971652E-012
   8.6000000000000035E-003    -2.6604686335918171E-012
   8.6999999999999994E-003    -2.7860258045887820E-013
   8.8000000000000023E-003     2.4207469796061476E-012
   8.8999999999999982E-003     4.5221634596692706E-012
   9.0000000000000011E-003     5.2642191820939654E-012
   9.1000000000000039E-003     4.3432796421882802E-012
   9.1999999999999998E-003     2.0668625231451410E-012
   9.3000000000000027E-003    -7.2150748917088059E-013
   9.3999999999999986E-003    -2.9419296859733990E-012
   9.5000000000000015E-003    -3.7070919250981049E-012
   9.6000000000000044E-003    -2.7205483959374943E-012
   9.7000000000000003E-003    -4.7523074885036376E-013
   9.8000000000000032E-003     1.8587572887113213E-012
   9.8999999999999991E-003     2.8566914458960646E-012
   1.0000000000000002E-002     1.4443880119729968E-012
   1.0100000000000005E-002    -2.5363224975122334E-012
   1.0200000000000001E-002    -8.0432067256497319E-012
   1.0300000000000004E-002    -1.2996696600875435E-011
   1.0400000000000000E-002    -1.4903763986828800E-011
   1.0500000000000002E-002    -1.1774304621570142E-011
   1.0599999999999998E-002    -3.0191420110486922E-012
   1.0700000000000001E-002     1.0022796828601521E-011
   1.0800000000000004E-002     2.4190515909849886E-011
   1.0900000000000000E-002     3.5297476747020440E-011
   1.1000000000000003E-002     3.9419939534823811E-011
   1.1099999999999999E-002     3.4264254628046942E-011
   1.1200000000000002E-002     2.0116686094695524E-011
   1.1300000000000004E-002    -2.3971408489925281E-014
   1.1400000000000000E-002    -2.1268285743669679E-011
   1.1500000000000003E-002    -3.8402184210362122E-011
   1.1599999999999999E-002    -4.7677958803227227E-011
   1.1700000000000002E-002    -4.8166526323001335E-011
   1.1800000000000005E-002    -4.2102918373920772E-011
   1.1900000000000001E-002    -3.3985713548956298E-011
   1.2000000000000004E-002    -2.8653445935389321E-011
   1.2100000000000000E-002    -2.8993227957352374E-011
   1.2200000000000003E-002    -3.4166353773956715E-011
   1.2299999999999998E-002    -3.9147709379738771E-011
   1.2400000000000001E-002    -3.5964835276569573E-011
   1.2500000000000004E-002    -1.6407557604236622E-011
   1.2600000000000000E-002     2.4626951519723939E-011
   1.2700000000000003E-002     8.6350974981552753E-011
   1.2799999999999999E-002     1.6101139865831726E-010
   1.2900000000000002E-002     2.3517496283709249E-010
   1.3000000000000005E-002     2.9322441696955082E-010
   1.3100000000000001E-002     3.2207667088890446E-010
   1.3200000000000003E-002     3.1557109703150843E-010
   1.3299999999999999E-002     2.7693078386015202E-010
   1.3400000000000002E-002     2.1824425600058817E-010
   1.3500000000000005E-002     1.5690507226828743E-010
   1.3600000000000001E-002     1.1005175243328225E-010
   1.3700000000000004E-002     8.8867808945014559E-011
   1.3800000000000000E-002     9.4795941929515237E-011
   1.3900000000000003E-002     1.1916385933563589E-010
   1.3999999999999999E-002     1.4655611446645622E-010
   1.4100000000000001E-002     1.6088297360994375E-010
   1.4200000000000004E-002     1.5200252168057204E-010
   1.4300000000000000E-002     1.2038577079653834E-010
   1.4400000000000003E-002     7.7874359738494547E-011