  -4.0000000000000001E-002     0.0000000000000000     
  -3.9899999999999998E-002     0.0000000000000000     
  -3.9800000000000002E-002     0.0000000000000000     
  -3.9699999999999999E-002     0.0000000000000000     
  -3.9600000000000003E-002     0.0000000000000000     
  -3.9500000000000000E-002     0.0000000000000000     
  -3.9399999999999998E-002     0.0000000000000000     
  -3.9300000000000002E-002     0.0000000000000000     
  -3.9199999999999999E-002     0.0000000000000000     
  -3.9100000000000003E-002     0.0000000000000000     
  -3.9000000000000000E-002     0.0000000000000000     
  -3.8900000000000004E-002     0.0000000000000000     
  -3.8800000000000001E-002     0.0000000000000000     
  -3.8699999999999998E-002     0.0000000000000000     
  -3.8600000000000002E-002     0.0000000000000000     
  -3.8500000000000000E-002     0.0000000000000000     
  -3.8400000000000004E-002     0.0000000000000000     
  -3.8300000000000001E-002     0.0000000000000000     
  -3.8199999999999998E-002     0.0000000000000000     
  -3.8100000000000002E-002     0.0000000000000000     
  -3.7999999999999999E-002     0.0000000000000000     
  -3.7900000000000003E-002     0.0000000000000000     
  -3.7800000000000000E-002     0.0000000000000000     
  -3.7699999999999997E-002     0.0000000000000000     
  -3.7600000000000001E-002     0.0000000000000000     
  -3.7499999999999999E-002     0.0000000000000000     
  -3.7400000000000003E-002     0.0000000000000000     
  -3.7300000000000000E-002     0.0000000000000000     
  -3.7200000000000004E-002     0.0000000000000000     
  -3.7100000000000001E-002     0.0000000000000000     
  -3.6999999999999998E-002     0.0000000000000000     
  -3.6900000000000002E-002     0.0000000000000000     
  -3.6799999999999999E-002     0.0000000000000000     
  -3.6700000000000003E-002     0.0000000000000000     
  -3.6600000000000001E-002     0.0000000000000000     
  -3.6499999999999998E-002     0.0000000000000000     
  -3.6400000000000002E-002     0.0000000000000000     
  -3.6299999999999999E-002     0.0000000000000000     
  -3.6200000000000003E-002     0.0000000000000000     
  -3.6100000000000000E-002     0.0000000000000000     
  -3.6000000000000004E-002     0.0000000000000000     
  -3.5900000000000001E-002     0.0000000000000000     
  -3.5799999999999998E-002     0.0000000000000000     
  -3.5700000000000003E-002     0.0000000000000000     
  -3.5600000000000000E-002     0.0000000000000000     
  -3.5500000000000004E-002     0.0000000000000000     
  -3.5400000000000001E-002     0.0000000000000000     
  -3.5299999999999998E-002     0.0000000000000000     
  -3.5200000000000002E-002     0.0000000000000000     
  -3.5099999999999999E-002     0.0000000000000000     
  -3.5000000000000003E-002     0.0000000000000000     
  -3.4900000000000000E-002     0.0000000000000000     
  -3.4799999999999998E-002     0.0000000000000000     
  -3.4700000000000002E-002     0.0000000000000000     
  -3.4599999999999999E-002     0.0000000000000000     
  -3.4500000000000003E-002     0.0000000000000000     
  -3.4400000000000000E-002     0.0000000000000000     
  -3.4299999999999997E-002     0.0000000000000000     
  -3.4200000000000001E-002     0.0000000000000000     
  -3.4099999999999998E-002     0.0000000000000000     
  -3.4000000000000002E-002     0.0000000000000000     
  -3.3900000000000000E-002     0.0000000000000000     
  -3.3799999999999997E-002     0.0000000000000000     
  -3.3700000000000001E-002     0.0000000000000000     
  -3.3599999999999998E-002     0.0000000000000000     
  -3.3500000000000002E-002     0.0000000000000000     
  -3.3399999999999999E-002     0.0000000000000000     
  -3.3300000000000003E-002     0.0000000000000000     
  -3.3200000000000000E-002     0.0000000000000000     
  -3.3099999999999997E-002     0.0000000000000000     
  -3.3000000000000002E-002     0.0000000000000000     
  -3.2899999999999999E-002     0.0000000000000000     
  -3.2800000000000003E-002     0.0000000000000000     
  -3.2700000000000000E-002     0.0000000000000000     
  -3.2600000000000004E-002     0.0000000000000000     
  -3.2500000000000001E-002     0.0000000000000000     
  -3.2399999999999998E-002     0.0000000000000000     
  -3.2300000000000002E-002     0.0000000000000000     
  -3.2199999999999999E-002     0.0000000000000000     
  -3.2100000000000004E-002     0.0000000000000000     
  -3.2000000000000001E-002     0.0000000000000000     
  -3.1899999999999998E-002     0.0000000000000000     
  -3.1800000000000002E-002     0.0000000000000000     
  -3.1699999999999999E-002     0.0000000000000000     
  -3.1600000000000003E-002     0.0000000000000000     
  -3.1500000000000000E-002     0.0000000000000000     
  -3.1399999999999997E-002     0.0000000000000000     
  -3.1300000000000001E-002     0.0000000000000000     
  -3.1199999999999999E-002     0.0000000000000000     
  -3.1100000000000003E-002     0.0000000000000000     
  -3.1000000000000000E-002     0.0000000000000000     
  -3.0900000000000000E-002     0.0000000000000000     
  -3.0800000000000001E-002     0.0000000000000000     
  -3.0699999999999998E-002     0.0000000000000000     
  -3.0600000000000002E-002     0.0000000000000000     
  -3.0499999999999999E-002     0.0000000000000000     
  -3.0400000000000000E-002     0.0000000000000000     
  -3.0300000000000001E-002     0.0000000000000000     
  -3.0200000000000001E-002     0.0000000000000000     
  -3.0100000000000002E-002     0.0000000000000000     
  -2.9999999999999999E-002     0.0000000000000000     
  -2.9899999999999999E-002     0.0000000000000000     
  -2.9800000000000000E-002     0.0000000000000000     
  -2.9700000000000001E-002     0.0000000000000000     
  -2.9600000000000001E-002     0.0000000000000000     
  -2.9499999999999998E-002     0.0000000000000000     
  -2.9400000000000003E-002     0.0000000000000000     
  -2.9300000000000000E-002     0.0000000000000000     
  -2.9200000000000000E-002     0.0000000000000000     
  -2.9100000000000001E-002     0.0000000000000000     
  -2.8999999999999998E-002     0.0000000000000000     
  -2.8900000000000002E-002     0.0000000000000000     
  -2.8799999999999999E-002     0.0000000000000000     
  -2.8700000000000000E-002     0.0000000000000000     
  -2.8600000000000000E-002     0.0000000000000000     
  -2.8500000000000001E-002     0.0000000000000000     
  -2.8400000000000002E-002     0.0000000000000000     
  -2.8299999999999999E-002     0.0000000000000000     
  -2.8200000000000003E-002     0.0000000000000000     
  -2.8100000000000000E-002     0.0000000000000000     
  -2.8000000000000001E-002     1.5082049815185603E-037
  -2.7900000000000001E-002     5.5635616162358094E-037
  -2.7799999999999998E-002     7.1524345298788321E-037
  -2.7700000000000002E-002    -2.5908666049333167E-036
  -2.7600000000000000E-002    -5.7652946955544513E-036
  -2.7500000000000000E-002    -1.0536386201815441E-035
  -2.7400000000000001E-002    -2.4261784401520793E-035
  -2.7299999999999998E-002    -4.3331505534786807E-035
  -2.7200000000000002E-002    -5.7374501731193483E-035
  -2.7099999999999999E-002    -4.3990267377461372E-035
  -2.7000000000000000E-002     2.1541888207020685E-035
  -2.6900000000000000E-002     1.4252583165738444E-034
  -2.6800000000000001E-002     2.3806788879637132E-034
  -2.6700000000000002E-002     1.4326168652922439E-034
  -2.6599999999999999E-002    -2.2516851429390160E-034
  -2.6500000000000003E-002    -7.6588402297540139E-034
  -2.6400000000000000E-002    -1.1610563414583128E-033
  -2.6300000000000000E-002    -9.1055261782632918E-034
  -2.6200000000000001E-002     4.0199418056176351E-034
  -2.6099999999999998E-002     2.6997646713602634E-033
  -2.6000000000000002E-002     5.0390291025523323E-033
  -2.5899999999999999E-002     5.5163389510457068E-033
  -2.5800000000000000E-002     1.8764504484252487E-033
  -2.5700000000000001E-002    -6.9418539707901868E-033
  -2.5599999999999998E-002    -1.8729514425532323E-032
  -2.5500000000000002E-002    -2.6619577975677431E-032
  -2.5399999999999999E-002    -2.0300813887323799E-032
  -2.5300000000000000E-002     8.7009261654980453E-033
  -2.5200000000000000E-002     5.8255031488615842E-032
  -2.5100000000000001E-002     1.0738886158180018E-031
  -2.5000000000000001E-002     1.1594132354547334E-031
  -2.4899999999999999E-002     3.9608379129240920E-032
  -2.4800000000000003E-002    -1.3801755414176921E-031
  -2.4700000000000000E-002    -3.6723289875620854E-031
  -2.4600000000000000E-002    -5.1317235618198281E-031
  -2.4500000000000001E-002    -3.8788558218377160E-031
  -2.4399999999999998E-002     1.4783930315051677E-031
  -2.4299999999999999E-002     1.0337783505594696E-030
  -2.4199999999999999E-002     1.8876524629007318E-030
  -2.4100000000000000E-002     2.0296158812145107E-030
  -2.4000000000000000E-002     7.5643743262137678E-031
  -2.3900000000000001E-002    -2.1415598069156343E-030
  -2.3800000000000002E-002    -5.8199274500172159E-030
  -2.3699999999999999E-002    -8.1672798304171832E-030
  -2.3599999999999999E-002    -6.3766111057530779E-030
  -2.3500000000000000E-002     1.5139399571641466E-030
  -2.3400000000000001E-002     1.4510008863160352E-029
  -2.3300000000000001E-002     2.7110003787364505E-029
  -2.3199999999999998E-002     2.9885362124458193E-029
  -2.3099999999999999E-002     1.3368359721845132E-029
  -2.3000000000000000E-002    -2.5130492365438540E-029
  -2.2900000000000000E-002    -7.4569160681474725E-029
  -2.2800000000000001E-002    -1.0800828184123717E-028
  -2.2700000000000001E-002    -9.0242264216807602E-029
  -2.2599999999999999E-002     3.2302844309749122E-030
  -2.2499999999999999E-002     1.6136585798686957E-028
  -2.2400000000000000E-002     3.2031987390438301E-028
  -2.2300000000000000E-002     3.7115881516524301E-028
  -2.2200000000000001E-002     2.0425016690961343E-028
  -2.2100000000000002E-002    -2.1569462041814570E-028
  -2.1999999999999999E-002    -7.7531275843422536E-028
  -2.1899999999999999E-002    -1.1906955955027144E-027
  -2.1800000000000000E-002    -1.0873630984175228E-027
  -2.1700000000000001E-002    -1.9382995905669274E-028
  -2.1600000000000001E-002     1.4094679482684882E-027
  -2.1499999999999998E-002     3.1187215294484269E-027
  -2.1399999999999999E-002     3.8768565335226736E-027
  -2.1299999999999999E-002     2.5890524687360438E-027
  -2.1200000000000000E-002    -1.1796032982845134E-027
  -2.1100000000000001E-002    -6.5141052065240135E-027
  -2.1000000000000001E-002    -1.0926822858123270E-026
  -2.0899999999999998E-002    -1.1028001972937642E-026
  -2.0799999999999999E-002    -4.1804327817506672E-027
  -2.0700000000000000E-002     9.3611319468578443E-027
  -2.0600000000000000E-002     2.4930004490638225E-026
  -2.0500000000000001E-002     3.3882466429248742E-026
  -2.0400000000000001E-002     2.6818676164693323E-026
  -2.0299999999999999E-002    -9.0313855847665337E-028
  -2.0199999999999999E-002    -4.3592746363864659E-026
  -2.0100000000000000E-002    -8.3092950144176752E-026
  -2.0000000000000000E-002    -9.3302671476434900E-026
  -1.9900000000000001E-002    -5.2101982488793675E-026
  -1.9799999999999998E-002     4.2838499812348130E-026
  -1.9699999999999999E-002     1.6216809611259481E-025
  -1.9599999999999999E-002     2.4631040382403852E-025
  -1.9500000000000000E-002     2.2624644160493744E-025
  -1.9400000000000001E-002     6.0694132208944495E-026
  -1.9300000000000001E-002    -2.2484332922548543E-025
  -1.9199999999999998E-002    -5.2008712012702935E-025
  -1.9099999999999999E-002    -6.5440434639532825E-025
  -1.9000000000000000E-002    -4.6955412034896204E-025
  -1.8900000000000000E-002     7.9844229884226142E-026
  -1.8800000000000001E-002     8.4535705249306447E-025
  -1.8700000000000001E-002     1.4810880258818733E-024
  -1.8599999999999998E-002     1.5556618082655838E-024
  -1.8499999999999999E-002     7.6659496104450271E-025
  -1.8400000000000000E-002    -8.2340620894438459E-025
  -1.8300000000000000E-002    -2.6581364371170850E-024
  -1.8200000000000001E-002    -3.7915443728221784E-024
  -1.8100000000000002E-002    -3.2649935236529944E-024
  -1.7999999999999999E-002    -6.5666837719331255E-025
  -1.7899999999999999E-002     3.4434496376320916E-024
  -1.7800000000000000E-002     7.3415513693792612E-024
  -1.7700000000000000E-002     8.7462759833063170E-024
  -1.7600000000000001E-002     5.8302346866473846E-024
  -1.7499999999999998E-002    -1.5367603065460357E-024
  -1.7399999999999999E-002    -1.1022860713736308E-023
  -1.7299999999999999E-002    -1.8166422195401389E-023
  -1.7200000000000000E-002    -1.8053427337059342E-023
  -1.7100000000000001E-002    -7.9130250860876136E-024
  -1.7000000000000001E-002     1.0489825033495755E-023
  -1.6899999999999998E-002     3.0103979750515944E-023
  -1.6799999999999999E-002     4.0537545590834052E-023
  -1.6700000000000000E-002     3.2616394448561757E-023
  -1.6600000000000000E-002     3.9565989233129285E-024
  -1.6500000000000001E-002    -3.7217050180472423E-023
  -1.6400000000000001E-002    -7.2797390687454015E-023
  -1.6299999999999999E-002    -8.1302453516327283E-023
  -1.6199999999999999E-002    -4.8584106684374763E-023
  -1.6100000000000000E-002     2.1770263821143922E-023
  -1.6000000000000000E-002     1.0426556337858676E-022
  -1.5900000000000001E-002     1.5804657842147444E-022
  -1.5799999999999998E-002     1.4419703344682675E-022
  -1.5699999999999999E-002     4.7816305209879531E-023
  -1.5599999999999999E-002    -1.0579091744669659E-022
  -1.5500000000000000E-002    -2.5176446565208106E-022
  -1.5400000000000000E-002    -3.0837895547055226E-022
  -1.5300000000000001E-002    -2.1641534343186337E-022
  -1.5199999999999998E-002     2.1167394229268679E-023
  -1.5099999999999999E-002     3.2109912930796210E-022
  -1.4999999999999999E-002     5.4008199410526640E-022
  -1.4900000000000000E-002     5.3443188200126039E-022
  -1.4800000000000001E-002     2.3852139694136729E-022
  -1.4700000000000001E-002    -2.7535064941172030E-022
  -1.4599999999999998E-002    -7.9434536915669588E-022
  -1.4499999999999999E-002    -1.0386826778316849E-021
  -1.4400000000000000E-002    -7.9414811606506718E-022
  -1.4300000000000000E-002    -4.8508495944331139E-023
  -1.4200000000000001E-002     9.4183166227748113E-022
  -1.4099999999999998E-002     1.7121970230671025E-021
  -1.3999999999999999E-002     1.7814574454454714E-021
  -1.3899999999999999E-002     9.0887721884292683E-022
  -1.3800000000000000E-002    -7.0544061892054302E-022
  -1.3700000000000000E-002    -2.4022465996953235E-021
  -1.3600000000000001E-002    -3.2892431141903755E-021
  -1.3499999999999998E-002    -2.6581249055483725E-021
  -1.3399999999999999E-002    -4.1976717551681574E-022
  -1.3299999999999999E-002     2.6737619714689276E-021
  -1.3200000000000000E-002     5.2003322420335156E-021
  -1.3100000000000001E-002     5.6482743736412050E-021
  -1.3000000000000001E-002     3.2048658449485650E-021
  -1.2899999999999998E-002    -1.6163697848848073E-021
  -1.2799999999999999E-002    -6.8915922655873283E-021
  -1.2699999999999999E-002    -9.9371363794818961E-021
  -1.2600000000000000E-002    -8.5406955623661300E-021
  -1.2500000000000001E-002    -2.2658118818252246E-021
  -1.2399999999999998E-002     6.8503729832467586E-021
  -1.2299999999999998E-002     1.4737371295084386E-020
  -1.2199999999999999E-002     1.6927773022106079E-020
  -1.2100000000000000E-002     1.0822324648077339E-020
  -1.2000000000000000E-002    -2.4640644160446325E-021
  -1.1900000000000001E-002    -1.7762895861009323E-020
  -1.1799999999999998E-002    -2.7574434073321705E-020
  -1.1699999999999999E-002    -2.5445938414096509E-020
  -1.1599999999999999E-002    -9.6193398889288451E-021
  -1.1500000000000000E-002     1.4918168420064042E-020
  -1.1400000000000000E-002     3.7448808931619707E-020
  -1.1300000000000001E-002     4.5796935393355072E-020
  -1.1199999999999998E-002     3.2371367536616085E-020
  -1.1099999999999999E-002    -7.9808106099413706E-022
  -1.0999999999999999E-002    -4.0920179000949325E-020
  -1.0900000000000000E-002    -6.8696154338049868E-020
  -1.0800000000000001E-002    -6.6958732547216124E-020
  -1.0699999999999998E-002    -3.0139853963798226E-020
  -1.0599999999999998E-002     3.0233053954378224E-020
  -1.0499999999999999E-002     8.7796497851980867E-020
  -1.0400000000000000E-002     1.1190445708498865E-019
  -1.0300000000000000E-002     8.2758567255923724E-020
  -1.0200000000000001E-002     4.1606025627648724E-021
  -1.0099999999999998E-002    -9.3345774700612101E-020
  -9.9999999999999985E-003    -1.6269895601427342E-019
  -9.8999999999999991E-003    -1.6144361896184471E-019
  -9.7999999999999997E-003    -7.5014799629234915E-020
  -9.7000000000000003E-003     6.9587835651336425E-020
  -9.6000000000000009E-003     2.0899105917064378E-019
  -9.4999999999999980E-003     2.6883623232035994E-019
  -9.3999999999999986E-003     2.0037879067486551E-019
  -9.2999999999999992E-003     1.1518139447392856E-020
  -9.1999999999999998E-003    -2.2516636925396510E-019
  -9.1000000000000004E-003    -3.9644696223195820E-019
  -9.0000000000000011E-003    -3.9877059012080208E-019
  -8.8999999999999982E-003    -1.9417143348781152E-019
  -8.7999999999999988E-003     1.5614605705102248E-019
  -8.6999999999999994E-003     5.0262704513474433E-019
  -8.5999999999999965E-003     6.6613402736051135E-019
  -8.5000000000000006E-003     5.2407418405701923E-019
  -8.3999999999999977E-003     8.4975585780976298E-020
  -8.3000000000000018E-003    -4.8923344005386227E-019
  -8.1999999999999990E-003    -9.3511982427537853E-019
  -8.0999999999999961E-003    -1.0018156038606823E-018
  -8.0000000000000002E-003    -5.8096611562476794E-019
  -7.8999999999999973E-003     2.1082586209156004E-019
  -7.8000000000000014E-003     1.0482101998648268E-018
  -7.6999999999999985E-003     1.5222831253506055E-018
  -7.6000000000000026E-003     1.3313192785584244E-018
  -7.4999999999999997E-003     4.5209122109264137E-019
  -7.3999999999999969E-003    -7.9880971340974251E-019
  -7.3000000000000009E-003    -1.8645366518175102E-018
  -7.1999999999999981E-003    -2.1864236474348640E-018
  -7.1000000000000021E-003    -1.4845965698475364E-018
  -6.9999999999999993E-003     5.4435605814075420E-020
  -6.8999999999999964E-003     1.7945364924802102E-018
  -6.8000000000000005E-003     2.8973957236818482E-018
  -6.6999999999999976E-003     2.7138000915935598E-018
  -6.6000000000000017E-003     1.1435171228625741E-018
  -6.4999999999999988E-003    -1.2251978996297354E-018
  -6.3999999999999960E-003    -3.3047600482828286E-018
  -6.3000000000000000E-003    -3.9843209747438772E-018
  -6.1999999999999972E-003    -2.6967450749287883E-018
  -6.1000000000000013E-003     1.9943440890927138E-019
  -5.9999999999999984E-003     3.4508583424331694E-018
  -5.9000000000000025E-003     5.4073528697433529E-018
  -5.7999999999999996E-003     4.8104833279628521E-018
  -5.6999999999999967E-003     1.5162699358876512E-018
  -5.6000000000000008E-003    -3.2318087153150925E-018
  -5.4999999999999979E-003    -7.1985624417998748E-018
  -5.4000000000000020E-003    -8.1352088278957200E-018
  -5.2999999999999992E-003    -4.9400144352146747E-018
  -5.1999999999999963E-003     1.5609624009863148E-018
  -5.1000000000000004E-003     8.6786094148807930E-018
  -4.9999999999999975E-003     1.2886109922746071E-017
  -4.9000000000000016E-003     1.1452033512207788E-017
  -4.7999999999999987E-003     3.9609684252805864E-018
  -4.6999999999999958E-003    -7.0623340667185167E-018
  -4.5999999999999999E-003    -1.6888058529933760E-017
  -4.4999999999999971E-003    -2.0532488923028067E-017
  -4.4000000000000011E-003    -1.5151870944272734E-017
  -4.2999999999999983E-003    -1.7645743563323145E-018
  -4.2000000000000023E-003     1.4648667199154675E-017
  -4.0999999999999995E-003     2.6953552874226074E-017
  -3.9999999999999966E-003     2.8963676208985061E-017
  -3.9000000000000007E-003     1.8493174384452083E-017
  -3.7999999999999978E-003    -1.1377946873849323E-018
  -3.7000000000000019E-003    -2.2072542059285419E-017
  -3.5999999999999990E-003    -3.5178624949508329E-017
  -3.4999999999999962E-003    -3.4251726059750809E-017
  -3.4000000000000002E-003    -1.9180918815508272E-017
  -3.2999999999999974E-003     3.6134417258062327E-018
  -3.2000000000000015E-003     2.3962960778879407E-017
  -3.0999999999999986E-003     3.2845753937704627E-017
  -2.9999999999999957E-003     2.7047911021061223E-017
  -2.8999999999999998E-003     1.1082695714341636E-017
  -2.7999999999999969E-003    -4.9909315378203763E-018
  -2.7000000000000010E-003    -1.1152829876938169E-017
  -2.5999999999999981E-003    -3.7083280274624968E-018
  -2.5000000000000022E-003     1.1281319150208481E-017
  -2.3999999999999994E-003     2.0021565928433663E-017
  -2.2999999999999965E-003     8.4555684345119946E-018
  -2.2000000000000006E-003    -2.7969689662827040E-017
  -2.0999999999999977E-003    -7.7485521841084228E-017
  -2.0000000000000018E-003    -1.1303820117231149E-016
  -1.8999999999999989E-003    -1.0295549154511072E-016
  -1.7999999999999960E-003    -2.8127638146432815E-017
  -1.7000000000000001E-003     1.0187673552977826E-016
  -1.5999999999999973E-003     2.4292147891556725E-016
  -1.5000000000000013E-003     3.2698214033182729E-016
  -1.3999999999999985E-003     2.8889535679809688E-016
  -1.2999999999999956E-003     1.0032101393835793E-016
  -1.1999999999999997E-003    -2.0399684744810433E-016
  -1.0999999999999968E-003    -5.2279789358909636E-016
  -1.0000000000000009E-003    -7.1572859968845807E-016
  -8.9999999999999802E-004    -6.5696214202222436E-016
  -8.0000000000000210E-004    -2.9684825501898591E-016
  -6.9999999999999923E-004     2.9474853975208130E-016
  -5.9999999999999637E-004     9.2766254289902922E-016
  -5.0000000000000044E-004     1.3438286763681434E-015
  -3.9999999999999758E-004     1.3121656318877120E-015
  -3.0000000000000165E-004     7.3412149662161158E-016
  -1.9999999999999879E-004    -2.8343419128001358E-016
  -9.9999999999995925E-005    -1.4262814045527187E-015
   0.0000000000000000         -2.2577161342042127E-015
   1.0000000000000286E-004    -2.3724890985571704E-015
   1.9999999999999879E-004    -1.5696595185674014E-015
   3.0000000000000165E-004     2.3294421827285474E-017
   4.0000000000000452E-004     1.9354639317289719E-015
   5.0000000000000044E-004     3.4735883077909773E-015
   6.0000000000000331E-004     3.9559936882847986E-015
   6.9999999999999923E-004     2.9865189521313370E-015
   8.0000000000000210E-004     6.6647882188242244E-016
   8.9999999999999802E-004    -2.3509077578523149E-015
   1.0000000000000009E-003    -5.0140195780848298E-015
   1.1000000000000038E-003    -6.2119587936287999E-015
   1.1999999999999997E-003    -5.2003765673596693E-015
   1.3000000000000025E-003    -1.9634058545929967E-015
   1.3999999999999985E-003     2.6415808779880210E-015
   1.5000000000000013E-003     7.0538506744097403E-015
   1.6000000000000042E-003     9.4878176360368646E-015
   1.7000000000000001E-003     8.5935846248297657E-015
   1.8000000000000030E-003     4.0777161344535042E-015
   1.8999999999999989E-003    -2.9664667176545123E-015
   2.0000000000000018E-003    -1.0208214075478964E-014
   2.1000000000000046E-003    -1.4750262236672487E-014
   2.2000000000000006E-003    -1.4168649604539164E-014
   2.3000000000000034E-003    -7.5908839625290700E-015
   2.3999999999999994E-003     3.6067573454506407E-015
   2.5000000000000022E-003     1.5846832784253799E-014
   2.5999999999999981E-003     2.4296008455972073E-014
   2.7000000000000010E-003     2.4539196697326467E-014
   2.8000000000000039E-003     1.4482193249525446E-014
   2.8999999999999998E-003    -4.2299648010083075E-015
   3.0000000000000027E-003    -2.5970435044565636E-014
   3.0999999999999986E-003    -4.2450618080403998E-014
   3.2000000000000015E-003    -4.5452882316233609E-014
   3.3000000000000043E-003    -3.0215857349828387E-014
   3.4000000000000002E-003     1.7422193999226524E-015
   3.5000000000000031E-003     4.1651018978195939E-014
   3.5999999999999990E-003     7.5223857633373303E-014
   3.7000000000000019E-003     8.7070724707951491E-014
   3.7999999999999978E-003     6.6661682684293622E-014
   3.9000000000000007E-003     1.3806786118043812E-014
   4.0000000000000036E-003    -5.8682144430180494E-014
   4.0999999999999995E-003    -1.2690739572499693E-013
   4.2000000000000023E-003    -1.6271050262348097E-013
   4.2999999999999983E-003    -1.4383780895955295E-013
   4.4000000000000011E-003    -6.4165876388286303E-014
   4.5000000000000040E-003     6.0076997630137408E-014
   4.5999999999999999E-003     1.9148282948393963E-013
   4.7000000000000028E-003     2.8123182493726417E-013
   4.7999999999999987E-003     2.8550607516185378E-013
   4.9000000000000016E-003     1.8353993726325651E-013
   5.0000000000000044E-003    -9.4190250081926594E-015
   5.1000000000000004E-003    -2.4037130792742278E-013
   5.2000000000000032E-003    -4.3103395202040429E-013
   5.2999999999999992E-003    -5.0253708529582330E-013
   5.4000000000000020E-003    -4.0519874239773601E-013
   5.4999999999999979E-003    -1.4286182371640865E-013
   5.6000000000000008E-003     2.1860483800754948E-013
   5.7000000000000037E-003     5.6482899954413135E-013
   5.7999999999999996E-003     7.6726542870900194E-013
   5.9000000000000025E-003     7.2885707885772533E-013
   5.9999999999999984E-003     4.2552110923396724E-013
   6.1000000000000013E-003    -7.3087315279746212E-014
   6.2000000000000041E-003    -6.1486975450400494E-013
   6.3000000000000000E-003    -1.0094938123275665E-012
   6.4000000000000029E-003    -1.0938439824054180E-012
   6.4999999999999988E-003    -7.9702347152710296E-013
   6.6000000000000017E-003    -1.8001890939294690E-013
   6.7000000000000046E-003     5.6891481543114297E-013
   6.8000000000000005E-003     1.1878929914374559E-012
   6.9000000000000034E-003     1.4306227643506864E-012
   6.9999999999999993E-003     1.1620806313755727E-012
   7.1000000000000021E-003     4.2480672842251654E-013
   7.1999999999999981E-003    -5.5381496914461148E-013
   7.3000000000000009E-003    -1.4243301633617977E-012
   7.4000000000000038E-003    -1.8335498050414678E-012
   7.4999999999999997E-003    -1.5604399283136727E-012
   7.6000000000000026E-003    -6.1949951462095254E-013
   7.6999999999999985E-003     7.1273520939330037E-013
   7.8000000000000014E-003     1.9687170730448011E-012
   7.9000000000000042E-003     2.6441429341189648E-012
   8.0000000000000002E-003     2.3870131132114336E-012
   8.1000000000000030E-003     1.1531909325027123E-012
   8.1999999999999990E-003    -7.3581537998052005E-013
   8.3000000000000018E-003    -2.6675989975993852E-012
   8.4000000000000047E-003    -3.9340197766080109E-012
   8.5000000000000006E-003    -3.9865107742675931E-012
   8.6000000000000035E-003    -2.6604744882835485E-012
   8.6999999999999994E-003    -2.7860670042713365E-013
   8.8000000000000023E-003     2.4207463290848441E-012
   8.8999999999999982E-003     4.5221673627970915E-012
   9.0000000000000011E-003     5.2642261209878694E-012
   9.1000000000000039E-003     4.3432865810821841E-012
   9.1999999999999998E-003     2.0668664262729619E-012
   9.3000000000000027E-003    -7.2150868179327032E-013
   9.3999999999999986E-003    -2.9419357575055649E-012
   9.5000000000000015E-003    -3.7070992976728778E-012
   9.6000000000000044E-003    -2.7205516485440118E-012
   9.7000000000000003E-003    -4.7522711677308593E-013
   9.8000000000000032E-003     1.8587661791691357E-012
   9.8999999999999991E-003     2.8567005531943135E-012
   1.0000000000000002E-002     1.4443912645795143E-012
   1.0100000000000005E-002    -2.5363283522039648E-012
   1.0200000000000001E-002    -8.0432206034375398E-012
   1.0300000000000004E-002    -1.2996713948110195E-011
   1.0400000000000000E-002    -1.4903777864616607E-011
   1.0500000000000002E-002    -1.1774306356293618E-011
   1.0599999999999998E-002    -3.0191272658991464E-012
   1.0700000000000001E-002     1.0022827186262351E-011
   1.0800000000000004E-002     2.4190554073766357E-011
   1.0900000000000000E-002     3.5297504502596055E-011
   1.1000000000000003E-002     3.9419943004270763E-011
   1.1099999999999999E-002     3.4264226872471326E-011
   1.1200000000000002E-002     2.0116635787714721E-011
   1.1300000000000004E-002    -2.4024234546713742E-014
   1.1400000000000000E-002    -2.1268322172862675E-011
   1.1500000000000003E-002    -3.8402187679809074E-011
   1.1599999999999999E-002    -4.7677931047651612E-011
   1.1700000000000002E-002    -4.8166481220190960E-011
   1.1800000000000005E-002    -4.2102880210004301E-011
   1.1900000000000001E-002    -3.3985703140615442E-011
   1.2000000000000004E-002    -2.8653468486794509E-011
   1.2100000000000000E-002    -2.8993271325439274E-011
   1.2200000000000003E-002    -3.4166391937873186E-011
   1.2299999999999998E-002    -3.9147716318632675E-011
   1.2400000000000001E-002    -3.5964790173759198E-011
   1.2500000000000004E-002    -1.6407462194445444E-011
   1.2600000000000000E-002     2.4627045194791641E-011
   1.2700000000000003E-002     8.6351009676022272E-011
   1.2799999999999999E-002     1.6101132926937822E-010
   1.2900000000000002E-002     2.3517479630363880E-010
   1.3000000000000005E-002     2.9322416716937028E-010
   1.3100000000000001E-002     3.2207642108872392E-010
   1.3200000000000003E-002     3.1557098600920597E-010
   1.3299999999999999E-002     2.7693089488245448E-010
   1.3400000000000002E-002     2.1824461682307117E-010
   1.3500000000000005E-002     1.5690555799086070E-010
   1.3600000000000001E-002     1.1005209243908354E-010
   1.3700000000000004E-002     8.8867774250545040E-011
   1.3800000000000000E-002     9.4795463145835868E-011
   1.3900000000000003E-002     1.1916316544624550E-010
   1.3999999999999999E-002     1.4655560098830733E-010
   1.4100000000000001E-002     1.6088300136551936E-010
   1.4200000000000004E-002     1.5200317393659901E-010
   1.4300000000000000E-002     1.2038672836389708E-010
   1.4400000000000003E-002     7.7875046688991034E-011