-0.4000000E-01  0.0000000E+00
-0.3990000E-01  0.0000000E+00
-0.3980000E-01  0.0000000E+00
-0.3970000E-01  0.0000000E+00
-0.3960000E-01  0.0000000E+00
-0.3950000E-01  0.0000000E+00
-0.3940000E-01  0.0000000E+00
-0.3930000E-01  0.0000000E+00
-0.3920000E-01  0.0000000E+00
-0.3910000E-01  0.0000000E+00
-0.3900000E-01  0.0000000E+00
-0.3890000E-01  0.0000000E+00
-0.3880000E-01  0.0000000E+00
-0.3870000E-01  0.0000000E+00
-0.3860000E-01  0.0000000E+00
-0.3850000E-01  0.0000000E+00
-0.3840000E-01  0.0000000E+00
-0.3830000E-01  0.0000000E+00
-0.3820000E-01  0.0000000E+00
-0.3810000E-01  0.0000000E+00
-0.3800000E-01  0.0000000E+00
-0.3790000E-01  0.0000000E+00
-0.3780000E-01  0.0000000E+00
-0.3770000E-01  0.0000000E+00
-0.3760000E-01  0.0000000E+00
-0.3750000E-01  0.0000000E+00
-0.3740000E-01  0.0000000E+00
-0.3730000E-01  0.0000000E+00
-0.3720000E-01  0.0000000E+00
-0.3710000E-01  0.0000000E+00
-0.3700000E-01  0.0000000E+00
-0.3690000E-01  0.0000000E+00
-0.3680000E-01  0.0000000E+00
-0.3670000E-01  0.0000000E+00
-0.3660000E-01  0.0000000E+00
-0.3650000E-01  0.0000000E+00
-0.3640000E-01  0.0000000E+00
-0.3630000E-01  0.0000000E+00
-0.3620000E-01  0.0000000E+00
-0.3610000E-01  0.0000000E+00
-0.3600000E-01  0.0000000E+00
-0.3590000E-01  0.0000000E+00
-0.3580000E-01  0.0000000E+00
-0.3570000E-01  0.0000000E+00
-0.3560000E-01  0.0000000E+00
-0.3550000E-01  0.0000000E+00
-0.3540000E-01  0.0000000E+00
-0.3530000E-01  0.0000000E+00
-0.3520000E-01  0.0000000E+00
-0.3510000E-01  0.0000000E+00
-0.3500000E-01  0.0000000E+00
-0.3490000E-01  0.0000000E+00
-0.3480000E-01  0.0000000E+00
-0.3470000E-01  0.0000000E+00
-0.3460000E-01  0.0000000E+00
-0.3450000E-01  0.0000000E+00
-0.3440000E-01  0.0000000E+00
-0.3430000E-01  0.0000000E+00
-0.3420000E-01  0.0000000E+00
-0.3410000E-01  0.0000000E+00
-0.3400000E-01  0.0000000E+00
-0.3390000E-01  0.0000000E+00
-0.3380000E-01  0.0000000E+00
-0.3370000E-01  0.0000000E+00
-0.3360000E-01  0.0000000E+00
-0.3350000E-01  0.0000000E+00
-0.3340000E-01  0.0000000E+00
-0.3330000E-01  0.0000000E+00
-0.3320000E-01  0.0000000E+00
-0.3310000E-01  0.0000000E+00
-0.3300000E-01  0.0000000E+00
-0.3290000E-01  0.0000000E+00
-0.3280000E-01  0.0000000E+00
-0.3270000E-01  0.0000000E+00
-0.3260000E-01  0.0000000E+00
-0.3250000E-01  0.0000000E+00
-0.3240000E-01  0.0000000E+00
-0.3230000E-01  0.0000000E+00
-0.3220000E-01  0.0000000E+00
-0.3210000E-01 -0.0000000E+00
-0.3200000E-01 -0.0000000E+00
-0.3190000E-01 -0.0000000E+00
-0.3180000E-01 -0.0000000E+00
-0.3170000E-01 -0.0000000E+00
-0.3160000E-01 -0.0000000E+00
-0.3150000E-01  0.1646413E-36
-0.3140000E-01  0.4822290E-36
-0.3130000E-01  0.2321643E-36
-0.3120000E-01 -0.2055735E-35
-0.3110000E-01 -0.6117849E-35
-0.3100000E-01 -0.5875436E-35
-0.3090000E-01  0.2047367E-34
-0.3080000E-01  0.8091399E-34
-0.3070000E-01  0.1293017E-33
-0.3060000E-01  0.3069782E-34
-0.3050000E-01 -0.2658723E-33
-0.3040000E-01 -0.5375536E-33
-0.3030000E-01 -0.2657719E-33
-0.3020000E-01  0.1074908E-32
-0.3010000E-01  0.3289421E-32
-0.3000000E-01  0.4687471E-32
-0.2990000E-01  0.2034088E-32
-0.2980000E-01 -0.7686588E-32
-0.2970000E-01 -0.2322218E-31
-0.2960000E-01 -0.3421534E-31
-0.2950000E-01 -0.2039374E-31
-0.2940000E-01  0.3858489E-31
-0.2930000E-01  0.1391599E-30
-0.2920000E-01  0.2240204E-30
-0.2910000E-01  0.1730183E-30
-0.2900000E-01 -0.1462653E-30
-0.2890000E-01 -0.7452946E-30
-0.2880000E-01 -0.1338684E-29
-0.2870000E-01 -0.1265700E-29
-0.2860000E-01  0.2777910E-30
-0.2850000E-01  0.3552618E-29
-0.2840000E-01  0.7302394E-29
-0.2830000E-01  0.8176219E-29
-0.2820000E-01  0.1647846E-29
-0.2810000E-01 -0.1471395E-28
-0.2800000E-01 -0.3619943E-28
-0.2790000E-01 -0.4722369E-28
-0.2780000E-01 -0.2424311E-28
-0.2770000E-01  0.4993909E-28
-0.2760000E-01  0.1617936E-27
-0.2750000E-01  0.2454224E-27
-0.2740000E-01  0.1879528E-27
-0.2730000E-01 -0.1135597E-27
-0.2720000E-01 -0.6426896E-27
-0.2710000E-01 -0.1149976E-26
-0.2700000E-01 -0.1138365E-26
-0.2690000E-01 -0.6525448E-28
-0.2680000E-01  0.2203055E-26
-0.2670000E-01  0.4846701E-26
-0.2660000E-01  0.5865883E-26
-0.2650000E-01  0.2696878E-26
-0.2640000E-01 -0.6053755E-26
-0.2630000E-01 -0.1821879E-25
-0.2620000E-01 -0.2651555E-25
-0.2610000E-01 -0.1999563E-25
-0.2600000E-01  0.9935856E-26
-0.2590000E-01  0.5990105E-25
-0.2580000E-01  0.1063087E-24
-0.2570000E-01  0.1068068E-24
-0.2560000E-01  0.1893217E-25
-0.2550000E-01 -0.1644516E-24
-0.2540000E-01 -0.3778353E-24
-0.2530000E-01 -0.4732888E-24
-0.2520000E-01 -0.2700645E-24
-0.2510000E-01  0.3265044E-24
-0.2500000E-01  0.1175327E-23
-0.2490000E-01  0.1814689E-23
-0.2480000E-01  0.1563990E-23
-0.2470000E-01 -0.1169327E-24
-0.2460000E-01 -0.3088347E-23
-0.2450000E-01 -0.6093043E-23
-0.2440000E-01 -0.6844373E-23
-0.2430000E-01 -0.2982207E-23
-0.2420000E-01  0.6172697E-23
-0.2410000E-01  0.1780604E-22
-0.2400000E-01  0.2508245E-22
-0.2390000E-01  0.1926680E-22
-0.2380000E-01 -0.5147786E-23
-0.2370000E-01 -0.4395749E-22
-0.2360000E-01 -0.7927538E-22
-0.2350000E-01 -0.8282289E-22
-0.2340000E-01 -0.2920900E-22
-0.2330000E-01  0.8354827E-22
-0.2320000E-01  0.2162258E-21
-0.2310000E-01  0.2881363E-21
-0.2300000E-01  0.2065259E-21
-0.2290000E-01 -0.7554923E-22
-0.2280000E-01 -0.4953011E-21
-0.2270000E-01 -0.8517472E-21
-0.2260000E-01 -0.8559819E-21
-0.2250000E-01 -0.2755827E-21
-0.2240000E-01  0.8679395E-21
-0.2230000E-01  0.2152807E-20
-0.2220000E-01  0.2795241E-20
-0.2210000E-01  0.1960091E-20
-0.2200000E-01 -0.7028903E-21
-0.2190000E-01 -0.4527168E-20
-0.2180000E-01 -0.7666561E-20
-0.2170000E-01 -0.7630501E-20
-0.2160000E-01 -0.2566119E-20
-0.2150000E-01  0.7139823E-20
-0.2140000E-01  0.1782576E-19
-0.2130000E-01  0.2309763E-19
-0.2120000E-01  0.1647667E-19
-0.2110000E-01 -0.4421774E-20
-0.2100000E-01 -0.3407910E-19
-0.2090000E-01 -0.5832592E-19
-0.2080000E-01 -0.5879303E-19
-0.2070000E-01 -0.2244751E-19
-0.2060000E-01  0.4726106E-19
-0.2050000E-01  0.1239730E-18
-0.2040000E-01  0.1632654E-18
-0.2030000E-01  0.1214430E-18
-0.2020000E-01 -0.1662036E-19
-0.2010000E-01 -0.2136946E-18
-0.2000000E-01 -0.3774798E-18
-0.1990000E-01 -0.3909949E-18
-0.1980000E-01 -0.1730795E-18
-0.1970000E-01  0.2543185E-18
-0.1960000E-01  0.7307089E-18
-0.1950000E-01  0.9904059E-18
-0.1940000E-01  0.7760120E-18
-0.1930000E-01 -0.1009694E-20
-0.1920000E-01 -0.1129828E-17
-0.1910000E-01 -0.2093201E-17
-0.1900000E-01 -0.2243203E-17
-0.1890000E-01 -0.1133417E-17
-0.1880000E-01  0.1125598E-17
-0.1870000E-01  0.3692424E-17
-0.1860000E-01  0.5184928E-17
-0.1850000E-01  0.4274041E-17
-0.1840000E-01  0.4941008E-18
-0.1830000E-01 -0.5125094E-17
-0.1820000E-01 -0.1005457E-16
-0.1810000E-01 -0.1114803E-16
-0.1800000E-01 -0.6241785E-17
-0.1790000E-01  0.4188690E-17
-0.1780000E-01  0.1627150E-16
-0.1770000E-01  0.2367699E-16
-0.1760000E-01  0.2035526E-16
-0.1750000E-01  0.4154467E-17
-0.1740000E-01 -0.2046414E-16
-0.1730000E-01 -0.4253835E-16
-0.1720000E-01 -0.4852824E-16
-0.1710000E-01 -0.2917025E-16
-0.1700000E-01  0.1364904E-16
-0.1690000E-01  0.6397331E-16
-0.1680000E-01  0.9591255E-16
-0.1670000E-01  0.8494537E-16
-0.1660000E-01  0.2239150E-16
-0.1650000E-01 -0.7416463E-16
-0.1640000E-01 -0.1618764E-15
-0.1630000E-01 -0.1883889E-15
-0.1620000E-01 -0.1183249E-15
-0.1610000E-01  0.4102255E-16
-0.1600000E-01  0.2296999E-15
-0.1590000E-01  0.3516645E-15
-0.1580000E-01  0.3171780E-15
-0.1570000E-01  0.9533579E-16
-0.1560000E-01 -0.2497635E-15
-0.1550000E-01 -0.5648717E-15
-0.1540000E-01 -0.6654280E-15
-0.1530000E-01 -0.4290497E-15
-0.1520000E-01  0.1168771E-15
-0.1510000E-01  0.7645520E-15
-0.1500000E-01  0.1186645E-14
-0.1490000E-01  0.1082314E-14
-0.1480000E-01  0.3522444E-15
-0.1470000E-01 -0.7864563E-15
-0.1460000E-01 -0.1827344E-14
-0.1450000E-01 -0.2170267E-14
-0.1440000E-01 -0.1425713E-14
-0.1430000E-01  0.3097880E-15
-0.1420000E-01  0.2368267E-14
-0.1410000E-01  0.3716125E-14
-0.1400000E-01  0.3419353E-14
-0.1390000E-01  0.1183669E-14
-0.1380000E-01 -0.2307563E-14
-0.1370000E-01 -0.5499395E-14
-0.1360000E-01 -0.6578105E-14
-0.1350000E-01 -0.4391308E-14
-0.1340000E-01  0.7468958E-15
-0.1330000E-01  0.6837524E-14
-0.1320000E-01  0.1083977E-13
-0.1310000E-01  0.1005016E-13
-0.1300000E-01  0.3656660E-14
-0.1290000E-01 -0.6334264E-14
-0.1280000E-01 -0.1546333E-13
-0.1270000E-01 -0.1860715E-13
-0.1260000E-01 -0.1257795E-13
-0.1250000E-01  0.1673000E-14
-0.1240000E-01  0.1854101E-13
-0.1230000E-01  0.2963890E-13
-0.1220000E-01  0.2762681E-13
-0.1210000E-01  0.1040968E-13
-0.1200000E-01 -0.1647366E-13
-0.1190000E-01 -0.4099199E-13
-0.1180000E-01 -0.4952158E-13
-0.1170000E-01 -0.3375968E-13
-0.1160000E-01  0.3589068E-14
-0.1150000E-01  0.4769199E-13
-0.1140000E-01  0.7669428E-13
-0.1130000E-01  0.7175230E-13
-0.1120000E-01  0.2775471E-13
-0.1110000E-01 -0.4084272E-13
-0.1100000E-01 -0.1032880E-12
-0.1090000E-01 -0.1252091E-12
-0.1080000E-01 -0.8603847E-13
-0.1070000E-01  0.7037378E-14
-0.1060000E-01  0.1167864E-12
-0.1050000E-01  0.1890637E-12
-0.1040000E-01  0.1777500E-12
-0.1030000E-01  0.7082159E-13
-0.1020000E-01 -0.9601213E-13
-0.1010000E-01 -0.2479705E-12
-0.1000000E-01 -0.3023021E-12
-0.9900000E-02 -0.2101207E-12
-0.9800000E-02  0.1085441E-13
-0.9700000E-02  0.2717967E-12
-0.9600000E-02  0.4447071E-12
-0.9500000E-02  0.4214516E-12
-0.9400000E-02  0.1743894E-12
-0.9300000E-02 -0.2129232E-12
-0.9200000E-02 -0.5670801E-12
-0.9100000E-02 -0.6974342E-12
-0.9000000E-02 -0.4921147E-12
-0.8900000E-02  0.8173491E-14
-0.8800000E-02  0.6015130E-12
-0.8700000E-02  0.9985087E-12
-0.8600000E-02  0.9558550E-12
-0.8500000E-02  0.4115833E-12
-0.8400000E-02 -0.4481821E-12
-0.8300000E-02 -0.1238751E-11
-0.8200000E-02 -0.1538885E-11
-0.8100000E-02 -0.1102186E-11
-0.8000000E-02 -0.1724031E-13
-0.7900000E-02  0.1276185E-11
-0.7800000E-02  0.2149864E-11
-0.7700000E-02  0.2077252E-11
-0.7600000E-02  0.9239468E-12
-0.7500000E-02 -0.9118793E-12
-0.7400000E-02 -0.2608874E-11
-0.7300000E-02 -0.3270029E-11
-0.7200000E-02 -0.2371310E-11
-0.7100000E-02 -0.9766318E-13
-0.7000000E-02  0.2626925E-11
-0.6900000E-02  0.4484644E-11
-0.6800000E-02  0.4372105E-11
-0.6700000E-02  0.2004167E-11
-0.6600000E-02 -0.1798166E-11
-0.6500000E-02 -0.5338222E-11
-0.6400000E-02 -0.6762878E-11
-0.6300000E-02 -0.4984458E-11
-0.6200000E-02 -0.3666756E-12
-0.6100000E-02  0.5216836E-11
-0.6000000E-02  0.9086442E-11
-0.5900000E-02  0.8989522E-11
-0.5800000E-02  0.4319455E-11
-0.5700000E-02 -0.3304841E-11
-0.5600000E-02 -0.1049944E-10
-0.5500000E-02 -0.1355010E-10
-0.5400000E-02 -0.1024679E-10
-0.5300000E-02 -0.1247134E-11
-0.5200000E-02  0.9801096E-11
-0.5100000E-02  0.1763780E-10
-0.5000000E-02  0.1780442E-10
-0.4900000E-02  0.9028788E-11
-0.4800000E-02 -0.5635988E-11
-0.4700000E-02 -0.1969045E-10
-0.4600000E-02 -0.2595072E-10
-0.4500000E-02 -0.2008011E-10
-0.4400000E-02 -0.3215927E-11
-0.4300000E-02  0.1777893E-10
-0.4200000E-02  0.3292614E-10
-0.4100000E-02  0.3371179E-10
-0.4000000E-02  0.1760995E-10
-0.3900000E-02 -0.9749956E-11
-0.3800000E-02 -0.3622006E-10
-0.3700000E-02 -0.4830972E-10
-0.3600000E-02 -0.3780291E-10
-0.3500000E-02 -0.6681783E-11
-0.3400000E-02  0.3238104E-10
-0.3300000E-02  0.6085650E-10
-0.3200000E-02  0.6285167E-10
-0.3100000E-02  0.3350282E-10
-0.3000000E-02 -0.1698006E-10
-0.2900000E-02 -0.6628148E-10
-0.2800000E-02 -0.8946854E-10
-0.2700000E-02 -0.7114956E-10
-0.2600000E-02 -0.1456299E-10
-0.2500000E-02  0.5740753E-10
-0.2400000E-02  0.1109367E-09
-0.2300000E-02  0.1166682E-09
-0.2200000E-02  0.6503417E-10
-0.2100000E-02 -0.2621126E-10
-0.2000000E-02 -0.1170889E-09
-0.1900000E-02 -0.1623019E-09
-0.1800000E-02 -0.1331053E-09
-0.1700000E-02 -0.3387877E-10
-0.1600000E-02  0.9558429E-10
-0.1500000E-02  0.1951269E-09
-0.1400000E-02  0.2114190E-09
-0.1300000E-02  0.1253480E-09
-0.1200000E-02 -0.3399922E-10
-0.1100000E-02 -0.1974638E-09
-0.1000000E-02 -0.2848780E-09
-0.9000000E-03 -0.2433236E-09
-0.8000000E-03 -0.7677755E-10
-0.7000000E-03  0.1486439E-09
-0.6000000E-03  0.3295101E-09
-0.5000000E-03  0.3714321E-09
-0.4000000E-03  0.2366873E-09
-0.3000000E-03 -0.3027168E-10
-0.2000000E-03 -0.3147129E-09
-0.1000000E-03 -0.4795666E-09
 0.0000000E+00 -0.4300776E-09
 0.1000000E-03 -0.1652815E-09
 0.2000000E-03  0.2105930E-09
 0.3000000E-03  0.5270586E-09
 0.4000000E-03  0.6232722E-09
 0.5000000E-03  0.4277872E-09
 0.6000000E-03  0.3399669E-11
 0.7000000E-03 -0.4688104E-09
 0.8000000E-03 -0.7650720E-09
 0.9000000E-03 -0.7234994E-09
 0.1000000E-02 -0.3294293E-09
 0.1100000E-02  0.2623725E-09
 0.1200000E-02  0.7860724E-09
 0.1300000E-02  0.9832676E-09
 0.1400000E-02  0.7294648E-09
 0.1500000E-02  0.1071641E-09
 0.1600000E-02 -0.6156104E-09
 0.1700000E-02 -0.1099812E-08
 0.1800000E-02 -0.1095145E-08
 0.1900000E-02 -0.5702404E-09
 0.2000000E-02  0.2541766E-09
 0.2100000E-02  0.9945802E-09
 0.2200000E-02  0.1282988E-08
 0.2300000E-02  0.9528839E-09
 0.2400000E-02  0.1393853E-09
 0.2500000E-02 -0.7654988E-09
 0.2600000E-02 -0.1293904E-08
 0.2700000E-02 -0.1140082E-08
 0.2800000E-02 -0.3380309E-09
 0.2900000E-02  0.7205980E-09
 0.3000000E-02  0.1456524E-08
 0.3100000E-02  0.1394697E-08
 0.3200000E-02  0.4399101E-09
 0.3300000E-02 -0.1011875E-08
 0.3400000E-02 -0.2209262E-08
 0.3500000E-02 -0.2394065E-08
 0.3600000E-02 -0.1212921E-08
 0.3700000E-02  0.1013537E-08
 0.3800000E-02  0.3327758E-08
 0.3900000E-02  0.4511223E-08
 0.4000000E-02  0.3664435E-08
 0.4100000E-02  0.7313248E-09
 0.4200000E-02 -0.3305237E-08
 0.4300000E-02 -0.6709982E-08
 0.4400000E-02 -0.7703246E-08
 0.4500000E-02 -0.5314094E-08
 0.4600000E-02  0.1057079E-10
 0.4700000E-02  0.6371162E-08
 0.4800000E-02  0.1105945E-07
 0.4900000E-02  0.1167964E-07
 0.5000000E-02  0.7292430E-08
 0.5100000E-02 -0.9439711E-09
 0.5200000E-02 -0.9997495E-08
 0.5300000E-02 -0.1606030E-07
 0.5400000E-02 -0.1613268E-07
 0.5500000E-02 -0.9438807E-08
 0.5600000E-02  0.1976978E-08
 0.5700000E-02  0.1382594E-07
 0.5800000E-02  0.2118902E-07
 0.5900000E-02  0.2056178E-07
 0.6000000E-02  0.1147739E-07
 0.6100000E-02 -0.3033056E-08
 0.6200000E-02 -0.1743593E-07
 0.6300000E-02 -0.2582834E-07
 0.6400000E-02 -0.2437692E-07
 0.6500000E-02 -0.1304448E-07
 0.6600000E-02  0.4168596E-08
 0.6700000E-02  0.2064916E-07
 0.6800000E-02  0.2974569E-07
 0.6900000E-02  0.2746874E-07
 0.7000000E-02  0.1420526E-07
 0.7100000E-02 -0.5286139E-08
 0.7200000E-02 -0.2363569E-07
 0.7300000E-02 -0.3369397E-07
 0.7400000E-02 -0.3130895E-07
 0.7500000E-02 -0.1694917E-07
 0.7600000E-02  0.4450033E-08
 0.7700000E-02  0.2532144E-07
 0.7800000E-02  0.3823265E-07
 0.7900000E-02  0.3851326E-07
 0.8000000E-02  0.2579381E-07
 0.8100000E-02  0.3988679E-08
 0.8200000E-02 -0.2013453E-07
 0.8300000E-02 -0.3918033E-07
 0.8400000E-02 -0.4735356E-07
 0.8500000E-02 -0.4204077E-07
 0.8600000E-02 -0.2442083E-07
 0.8700000E-02  0.8949376E-09
 0.8800000E-02  0.2700124E-07
 0.8900000E-02  0.4637674E-07
 0.9000000E-02  0.5286201E-07
 0.9100000E-02  0.4362846E-07
 0.9200000E-02  0.2065662E-07
 0.9300000E-02 -0.8926082E-08
 0.9400000E-02 -0.3425501E-07
 0.9500000E-02 -0.4406253E-07
 0.9600000E-02 -0.3130483E-07
 0.9700000E-02  0.2466533E-08
 0.9800000E-02  0.4508198E-07
 0.9900000E-02  0.7588211E-07
 0.1000000E-01  0.7248416E-07
 0.1010000E-01  0.2064023E-07
 0.1020000E-01 -0.7633173E-07
 0.1030000E-01 -0.1929777E-06
 0.1040000E-01 -0.2855280E-06
 0.1050000E-01 -0.3048384E-06
 0.1060000E-01 -0.2153025E-06
 0.1070000E-01 -0.1315177E-07
 0.1080000E-01  0.2637403E-06
 0.1090000E-01  0.5405528E-06
 0.1100000E-01  0.7258056E-06
 0.1110000E-01  0.7419846E-06
 0.1120000E-01  0.5559644E-06
 0.1130000E-01  0.1969832E-06
 0.1140000E-01 -0.2468691E-06
 0.1150000E-01 -0.6551467E-06
 0.1160000E-01 -0.9167250E-06
 0.1170000E-01 -0.9715289E-06
 0.1180000E-01 -0.8352234E-06
 0.1190000E-01 -0.5947670E-06
 0.1200000E-01 -0.3734547E-06
 0.1210000E-01 -0.2767241E-06
 0.1220000E-01 -0.3394579E-06
 0.1230000E-01 -0.4974222E-06
 0.1240000E-01 -0.5981348E-06
 0.1250000E-01 -0.4518791E-06
 0.1260000E-01  0.9296479E-07
 0.1270000E-01  0.1077979E-05
 0.1280000E-01  0.2395698E-05
 0.1290000E-01  0.3803094E-05
 0.1300000E-01  0.4988304E-05
 0.1310000E-01  0.5670403E-05
 0.1320000E-01  0.5697324E-05
 0.1330000E-01  0.5104788E-05
 0.1340000E-01  0.4111364E-05
 0.1350000E-01  0.3047510E-05
 0.1360000E-01  0.2241632E-05
 0.1370000E-01  0.1903908E-05
 0.1380000E-01  0.2051609E-05
 0.1390000E-01  0.2505873E-05
 0.1400000E-01  0.2963889E-05
 0.1410000E-01  0.3121625E-05
 0.1420000E-01  0.2801708E-05
 0.1430000E-01  0.2037010E-05
 0.1440000E-01  0.1075332E-05
 0.1450000E-01  0.2992178E-06
 0.1460000E-01  0.8720774E-07
 0.1470000E-01  0.6663769E-06
 0.1480000E-01  0.2011841E-05
 0.1490000E-01  0.3833889E-05
 0.1500000E-01  0.5662548E-05
 0.1510000E-01  0.7003589E-05
 0.1520000E-01  0.7512250E-05
 0.1530000E-01  0.7121908E-05
 0.1540000E-01  0.6078607E-05
 0.1550000E-01  0.4864501E-05
 0.1560000E-01  0.4033039E-05
 0.1570000E-01  0.4011988E-05
 0.1580000E-01  0.4944759E-05
 0.1590000E-01  0.6629994E-05
 0.1600000E-01  0.8586539E-05
 0.1610000E-01  0.1022649E-04
 0.1620000E-01  0.1107812E-04
 0.1630000E-01  0.1097837E-04
 0.1640000E-01  0.1016032E-04
 0.1650000E-01  0.9194404E-05
 0.1660000E-01  0.8793652E-05
 0.1670000E-01  0.9544611E-05
 0.1680000E-01  0.1165952E-04
 0.1690000E-01  0.1484611E-04
 0.1700000E-01  0.1835707E-04
 0.1710000E-01  0.2121980E-04
 0.1720000E-01  0.2257944E-04
 0.1730000E-01  0.2203842E-04
 0.1740000E-01  0.1986417E-04
 0.1750000E-01  0.1697264E-04
 0.1760000E-01  0.1466924E-04
 0.1770000E-01  0.1421799E-04
 0.1780000E-01  0.1638179E-04
 0.1790000E-01  0.2110176E-04
 0.1800000E-01  0.2744868E-04
 0.1810000E-01  0.3388989E-04
 0.1820000E-01  0.3880037E-04
 0.1830000E-01  0.4104810E-04
 0.1840000E-01  0.4044078E-04
 0.1850000E-01  0.3785481E-04
 0.1860000E-01  0.3497334E-04
 0.1870000E-01  0.3370284E-04
 0.1880000E-01  0.3546632E-04
 0.1890000E-01  0.4063376E-04
 0.1900000E-01  0.4831735E-04
 0.1910000E-01  0.5663664E-04
 0.1920000E-01  0.6338491E-04
 0.1930000E-01  0.6686834E-04
 0.1940000E-01  0.6660711E-04
 0.1950000E-01  0.6361854E-04
 0.1960000E-01  0.6014446E-04
 0.1970000E-01  0.5888993E-04
 0.1980000E-01  0.6203239E-04
 0.1990000E-01  0.7036423E-04
 0.2000000E-01  0.8290291E-04
 0.2010000E-01  0.9714328E-04
 0.2020000E-01  0.1098915E-03
 0.2030000E-01  0.1183973E-03
 0.2040000E-01  0.1213746E-03
 0.2050000E-01  0.1195260E-03
 0.2060000E-01  0.1153583E-03
 0.2070000E-01  0.1123357E-03
 0.2080000E-01  0.1136666E-03
 0.2090000E-01  0.1211655E-03
 0.2100000E-01  0.1346122E-03
 0.2110000E-01  0.1518504E-03
 0.2120000E-01  0.1695957E-03
 0.2130000E-01  0.1846518E-03
 0.2140000E-01  0.1950823E-03
 0.2150000E-01  0.2008960E-03
 0.2160000E-01  0.2039898E-03
 0.2170000E-01  0.2073755E-03
 0.2180000E-01  0.2139912E-03
 0.2190000E-01  0.2255573E-03
 0.2200000E-01  0.2419240E-03
 0.2210000E-01  0.2611614E-03
 0.2220000E-01  0.2803642E-03
 0.2230000E-01  0.2968545E-03
 0.2240000E-01  0.3093144E-03
 0.2250000E-01  0.3183963E-03
 0.2260000E-01  0.3265596E-03
 0.2270000E-01  0.3371768E-03
 0.2280000E-01  0.3532391E-03
 0.2290000E-01  0.3761519E-03
 0.2300000E-01  0.4050931E-03
 0.2310000E-01  0.4371995E-03
 0.2320000E-01  0.4685411E-03
 0.2330000E-01  0.4955429E-03
 0.2340000E-01  0.5163366E-03
 0.2350000E-01  0.5315383E-03
 0.2360000E-01  0.5441437E-03
 0.2370000E-01  0.5585583E-03
 0.2380000E-01  0.5790885E-03
 0.2390000E-01  0.6084293E-03
 0.2400000E-01  0.6466938E-03
 0.2410000E-01  0.6913446E-03
 0.2420000E-01  0.7380667E-03
 0.2430000E-01  0.7822869E-03
 0.2440000E-01  0.8208062E-03
 0.2450000E-01  0.8529676E-03
 0.2460000E-01  0.8809361E-03
 0.2470000E-01  0.9089802E-03
 0.2480000E-01  0.9419968E-03
 0.2490000E-01  0.9837977E-03
 0.2500000E-01  0.1035761E-02
 0.2510000E-01  0.1096328E-02
 0.2520000E-01  0.1161542E-02
 0.2530000E-01  0.1226434E-02
 0.2540000E-01  0.1286799E-02
 0.2550000E-01  0.1340703E-02
 0.2560000E-01  0.1389226E-02
 0.2570000E-01  0.1436133E-02
 0.2580000E-01  0.1486620E-02
 0.2590000E-01  0.1545548E-02
 0.2600000E-01  0.1615801E-02
 0.2610000E-01  0.1697332E-02
 0.2620000E-01  0.1787252E-02
 0.2630000E-01  0.1880892E-02
 0.2640000E-01  0.1973467E-02
 0.2650000E-01  0.2061751E-02
 0.2660000E-01  0.2145144E-02
 0.2670000E-01  0.2225787E-02
 0.2680000E-01  0.2307729E-02
 0.2690000E-01  0.2395444E-02
 0.2700000E-01  0.2492293E-02
 0.2710000E-01  0.2599468E-02
 0.2720000E-01  0.2715795E-02
 0.2730000E-01  0.2838417E-02
 0.2740000E-01  0.2964060E-02
 0.2750000E-01  0.3090357E-02
 0.2760000E-01  0.3216710E-02
 0.2770000E-01  0.3344404E-02
 0.2780000E-01  0.3475934E-02
 0.2790000E-01  0.3613886E-02
 0.2800000E-01  0.3759842E-02
 0.2810000E-01  0.3913760E-02
 0.2820000E-01  0.4074098E-02
 0.2830000E-01  0.4238592E-02
 0.2840000E-01  0.4405363E-02
 0.2850000E-01  0.4573881E-02
 0.2860000E-01  0.4745376E-02
 0.2870000E-01  0.4922513E-02
 0.2880000E-01  0.5108429E-02
 0.2890000E-01  0.5305546E-02
 0.2900000E-01  0.5514587E-02
 0.2910000E-01  0.5734233E-02
 0.2920000E-01  0.5961562E-02
 0.2930000E-01  0.6193106E-02
 0.2940000E-01  0.6426132E-02
 0.2950000E-01  0.6659701E-02
 0.2960000E-01  0.6895080E-02
 0.2970000E-01  0.7135391E-02
 0.2980000E-01  0.7384608E-02
 0.2990000E-01  0.7646300E-02
 0.3000000E-01  0.7922559E-02
 0.3010000E-01  0.8213460E-02
 0.3020000E-01  0.8517206E-02
 0.3030000E-01  0.8830850E-02
 0.3040000E-01  0.9151319E-02
 0.3050000E-01  0.9476349E-02
 0.3060000E-01  0.9805076E-02
 0.3070000E-01  0.1013812E-01
 0.3080000E-01  0.1047727E-01
 0.3090000E-01  0.1082490E-01
 0.3100000E-01  0.1118334E-01
 0.3110000E-01  0.1155441E-01
 0.3120000E-01  0.1193918E-01
 0.3130000E-01  0.1233796E-01
 0.3140000E-01  0.1275038E-01
 0.3150000E-01  0.1317557E-01
 0.3160000E-01  0.1361238E-01
 0.3170000E-01  0.1405951E-01
 0.3180000E-01  0.1451572E-01
 0.3190000E-01  0.1498012E-01
 0.3200000E-01  0.1545240E-01
 0.3210000E-01  0.1593302E-01
 0.3220000E-01  0.1642324E-01
 0.3230000E-01  0.1692488E-01
 0.3240000E-01  0.1743998E-01
 0.3250000E-01  0.1797026E-01
 0.3260000E-01  0.1851664E-01
 0.3270000E-01  0.1907910E-01
 0.3280000E-01  0.1965664E-01
 0.3290000E-01  0.2024758E-01
 0.3300000E-01  0.2085014E-01
 0.3310000E-01  0.2146289E-01
 0.3320000E-01  0.2208521E-01
 0.3330000E-01  0.2271741E-01
 0.3340000E-01  0.2336057E-01
 0.3350000E-01  0.2401615E-01
 0.3360000E-01  0.2468546E-01
 0.3370000E-01  0.2536949E-01
 0.3380000E-01  0.2606886E-01
 0.3390000E-01  0.2678365E-01
 0.3400000E-01  0.2751365E-01
 0.3410000E-01  0.2825850E-01
 0.3420000E-01  0.2901769E-01
 0.3430000E-01  0.2979065E-01
 0.3440000E-01  0.3057678E-01
 0.3450000E-01  0.3137539E-01
 0.3460000E-01  0.3218568E-01
 0.3470000E-01  0.3300698E-01
 0.3480000E-01  0.3383911E-01
 0.3490000E-01  0.3468245E-01
 0.3500000E-01  0.3553792E-01
 0.3510000E-01  0.3640688E-01
 0.3520000E-01  0.3729074E-01
 0.3530000E-01  0.3819041E-01
 0.3540000E-01  0.3910606E-01
 0.3550000E-01  0.4003697E-01
 0.3560000E-01  0.4098151E-01
 0.3570000E-01  0.4193759E-01
 0.3580000E-01  0.4290336E-01
 0.3590000E-01  0.4387771E-01
 0.3600000E-01  0.4486055E-01
 0.3610000E-01  0.4585263E-01
 0.3620000E-01  0.4685511E-01
 0.3630000E-01  0.4786909E-01
 0.3640000E-01  0.4889514E-01
 0.3650000E-01  0.4993303E-01
 0.3660000E-01  0.5098176E-01
 0.3670000E-01  0.5203999E-01
 0.3680000E-01  0.5310660E-01
 0.3690000E-01  0.5418100E-01
 0.3700000E-01  0.5526322E-01
 0.3710000E-01  0.5635368E-01
 0.3720000E-01  0.5745287E-01
 0.3730000E-01  0.5856076E-01
 0.3740000E-01  0.5967632E-01
 0.3750000E-01  0.6079777E-01
 0.3760000E-01  0.6192296E-01
 0.3770000E-01  0.6304993E-01
 0.3780000E-01  0.6417739E-01
 0.3790000E-01  0.6530507E-01
 0.3800000E-01  0.6643406E-01
 0.3810000E-01  0.6756616E-01
 0.3820000E-01  0.6870314E-01
 0.3830000E-01  0.6984604E-01
 0.3840000E-01  0.7099456E-01
 0.3850000E-01  0.7214661E-01
 0.3860000E-01  0.7329863E-01
 0.3870000E-01  0.7444659E-01
 0.3880000E-01  0.7558704E-01
 0.3890000E-01  0.7671805E-01
 0.3900000E-01  0.7783976E-01
 0.3910000E-01  0.7895383E-01
 0.3920000E-01  0.8006271E-01
 0.3930000E-01  0.8116858E-01
 0.3940000E-01  0.8227219E-01
 0.3950000E-01  0.8337232E-01
 0.3960000E-01  0.8446632E-01
 0.3970000E-01  0.8555069E-01
 0.3980000E-01  0.8662211E-01
 0.3990000E-01  0.8767833E-01
 0.4000000E-01  0.8871839E-01
 0.4010000E-01  0.8974227E-01
 0.4020000E-01  0.9075037E-01
 0.4030000E-01  0.9174293E-01
 0.4040000E-01  0.9271970E-01
 0.4050000E-01  0.9367967E-01
 0.4060000E-01  0.9462123E-01
 0.4070000E-01  0.9554291E-01
 0.4080000E-01  0.9644330E-01
 0.4090000E-01  0.9732119E-01
 0.4100000E-01  0.9817579E-01
 0.4110000E-01  0.9900656E-01
 0.4120000E-01  0.9981321E-01
 0.4130000E-01  0.1005953E+00
 0.4140000E-01  0.1013515E+00
 0.4150000E-01  0.1020794E+00
 0.4160000E-01  0.1027768E+00
 0.4170000E-01  0.1034416E+00
 0.4180000E-01  0.1040725E+00
 0.4190000E-01  0.1046692E+00
 0.4200000E-01  0.1052320E+00
 0.4210000E-01  0.1057609E+00
 0.4220000E-01  0.1062558E+00
 0.4230000E-01  0.1067159E+00
 0.4240000E-01  0.1071399E+00
 0.4250000E-01  0.1075258E+00
 0.4260000E-01  0.1078716E+00
 0.4270000E-01  0.1081753E+00
 0.4280000E-01  0.1084354E+00
 0.4290000E-01  0.1086511E+00
 0.4300000E-01  0.1088223E+00
 0.4310000E-01  0.1089489E+00
 0.4320000E-01  0.1090308E+00
 0.4330000E-01  0.1090673E+00
 0.4340000E-01  0.1090576E+00
 0.4350000E-01  0.1090003E+00
 0.4360000E-01  0.1088936E+00
 0.4370000E-01  0.1087366E+00
 0.4380000E-01  0.1085282E+00
 0.4390000E-01  0.1082681E+00
 0.4400000E-01  0.1079560E+00
 0.4410000E-01  0.1075913E+00
 0.4420000E-01  0.1071736E+00
 0.4430000E-01  0.1067026E+00
 0.4440000E-01  0.1061777E+00
 0.4450000E-01  0.1055974E+00
 0.4460000E-01  0.1049608E+00
 0.4470000E-01  0.1042672E+00
 0.4480000E-01  0.1035166E+00
 0.4490000E-01  0.1027091E+00
 0.4500000E-01  0.1018443E+00
 0.4510000E-01  0.1009219E+00
 0.4520000E-01  0.9994113E-01
 0.4530000E-01  0.9890127E-01
 0.4540000E-01  0.9780204E-01
 0.4550000E-01  0.9664425E-01
 0.4560000E-01  0.9542847E-01
 0.4570000E-01  0.9415503E-01
 0.4580000E-01  0.9282448E-01
 0.4590000E-01  0.9143639E-01
 0.4600000E-01  0.8998920E-01
 0.4610000E-01  0.8848113E-01
 0.4620000E-01  0.8691148E-01
 0.4630000E-01  0.8528125E-01
 0.4640000E-01  0.8359239E-01
 0.4650000E-01  0.8184689E-01
 0.4660000E-01  0.8004659E-01
 0.4670000E-01  0.7819251E-01
 0.4680000E-01  0.7628392E-01
 0.4690000E-01  0.7431924E-01
 0.4700000E-01  0.7229699E-01
 0.4710000E-01  0.7021703E-01
 0.4720000E-01  0.6808087E-01
 0.4730000E-01  0.6589014E-01
 0.4740000E-01  0.6364692E-01
 0.4750000E-01  0.6135333E-01
 0.4760000E-01  0.5901067E-01
 0.4770000E-01  0.5661983E-01
 0.4780000E-01  0.5418079E-01
 0.4790000E-01  0.5169328E-01
 0.4800000E-01  0.4915756E-01
 0.4810000E-01  0.4657428E-01
 0.4820000E-01  0.4394463E-01
 0.4830000E-01  0.4127024E-01
 0.4840000E-01  0.3855259E-01
 0.4850000E-01  0.3579405E-01
 0.4860000E-01  0.3299733E-01
 0.4870000E-01  0.3016493E-01
 0.4880000E-01  0.2729863E-01
 0.4890000E-01  0.2439826E-01
 0.4900000E-01  0.2146347E-01
 0.4910000E-01  0.1849465E-01
 0.4920000E-01  0.1549246E-01
 0.4930000E-01  0.1245816E-01
 0.4940000E-01  0.9394431E-02
 0.4950000E-01  0.6305406E-02
 0.4960000E-01  0.3195286E-02
 0.4970000E-01  0.6633162E-04
 0.4980000E-01 -0.3080240E-02
 0.4990000E-01 -0.6243999E-02
 0.5000000E-01 -0.9425987E-02
 0.5010000E-01 -0.1262556E-01
 0.5020000E-01 -0.1583998E-01
 0.5030000E-01 -0.1906633E-01
 0.5040000E-01 -0.2230114E-01
 0.5050000E-01 -0.2554170E-01
 0.5060000E-01 -0.2878668E-01
 0.5070000E-01 -0.3203536E-01
 0.5080000E-01 -0.3528622E-01
 0.5090000E-01 -0.3853705E-01
 0.5100000E-01 -0.4178533E-01
 0.5110000E-01 -0.4502783E-01
 0.5120000E-01 -0.4826230E-01
 0.5130000E-01 -0.5148768E-01
 0.5140000E-01 -0.5470259E-01
 0.5150000E-01 -0.5790431E-01
 0.5160000E-01 -0.6109001E-01
 0.5170000E-01 -0.6425698E-01
 0.5180000E-01 -0.6740315E-01
 0.5190000E-01 -0.7052774E-01
 0.5200000E-01 -0.7363088E-01
 0.5210000E-01 -0.7671230E-01
 0.5220000E-01 -0.7977017E-01
 0.5230000E-01 -0.8280192E-01
 0.5240000E-01 -0.8580349E-01
 0.5250000E-01 -0.8877025E-01
 0.5260000E-01 -0.9169859E-01
 0.5270000E-01 -0.9458598E-01
 0.5280000E-01 -0.9743132E-01
 0.5290000E-01 -0.1002348E+00
 0.5300000E-01 -0.1029969E+00
 0.5310000E-01 -0.1057171E+00
 0.5320000E-01 -0.1083939E+00
 0.5330000E-01 -0.1110251E+00
 0.5340000E-01 -0.1136082E+00
 0.5350000E-01 -0.1161411E+00
 0.5360000E-01 -0.1186222E+00
 0.5370000E-01 -0.1210504E+00
 0.5380000E-01 -0.1234239E+00
 0.5390000E-01 -0.1257412E+00
 0.5400000E-01 -0.1280001E+00
 0.5410000E-01 -0.1301979E+00
 0.5420000E-01 -0.1323327E+00
 0.5430000E-01 -0.1344029E+00
 0.5440000E-01 -0.1364078E+00
 0.5450000E-01 -0.1383479E+00
 0.5460000E-01 -0.1402240E+00
 0.5470000E-01 -0.1420367E+00
 0.5480000E-01 -0.1437853E+00
 0.5490000E-01 -0.1454686E+00
 0.5500000E-01 -0.1470840E+00
 0.5510000E-01 -0.1486296E+00
 0.5520000E-01 -0.1501037E+00
 0.5530000E-01 -0.1515049E+00
 0.5540000E-01 -0.1528325E+00
 0.5550000E-01 -0.1540862E+00
 0.5560000E-01 -0.1552663E+00
 0.5570000E-01 -0.1563723E+00
 0.5580000E-01 -0.1574034E+00
 0.5590000E-01 -0.1583589E+00
 0.5600000E-01 -0.1592387E+00
 0.5610000E-01 -0.1600434E+00
 0.5620000E-01 -0.1607744E+00
 0.5630000E-01 -0.1614326E+00
 0.5640000E-01 -0.1620183E+00
 0.5650000E-01 -0.1625312E+00
 0.5660000E-01 -0.1629693E+00
 0.5670000E-01 -0.1633305E+00
 0.5680000E-01 -0.1636140E+00
 0.5690000E-01 -0.1638207E+00
 0.5700000E-01 -0.1639529E+00
 0.5710000E-01 -0.1640132E+00
 0.5720000E-01 -0.1640036E+00
 0.5730000E-01 -0.1639245E+00
 0.5740000E-01 -0.1637744E+00
 0.5750000E-01 -0.1635517E+00
 0.5760000E-01 -0.1632546E+00
 0.5770000E-01 -0.1628832E+00
 0.5780000E-01 -0.1624394E+00
 0.5790000E-01 -0.1619260E+00
 0.5800000E-01 -0.1613458E+00
 0.5810000E-01 -0.1607010E+00
 0.5820000E-01 -0.1599933E+00
 0.5830000E-01 -0.1592232E+00
 0.5840000E-01 -0.1583911E+00
 0.5850000E-01 -0.1574970E+00
 0.5860000E-01 -0.1565406E+00
 0.5870000E-01 -0.1555222E+00
 0.5880000E-01 -0.1544418E+00
 0.5890000E-01 -0.1533003E+00
 0.5900000E-01 -0.1520994E+00
 0.5910000E-01 -0.1508419E+00
 0.5920000E-01 -0.1495310E+00
 0.5930000E-01 -0.1481699E+00
 0.5940000E-01 -0.1467603E+00
 0.5950000E-01 -0.1453025E+00
 0.5960000E-01 -0.1437960E+00
 0.5970000E-01 -0.1422401E+00
 0.5980000E-01 -0.1406355E+00
 0.5990000E-01 -0.1389847E+00