-0.4000000E-01  0.0000000E+00
-0.3990000E-01  0.0000000E+00
-0.3980000E-01  0.0000000E+00
-0.3970000E-01  0.0000000E+00
-0.3960000E-01  0.0000000E+00
-0.3950000E-01  0.0000000E+00
-0.3940000E-01  0.0000000E+00
-0.3930000E-01  0.0000000E+00
-0.3920000E-01  0.0000000E+00
-0.3910000E-01  0.0000000E+00
-0.3900000E-01  0.0000000E+00
-0.3890000E-01  0.0000000E+00
-0.3880000E-01  0.0000000E+00
-0.3870000E-01  0.0000000E+00
-0.3860000E-01  0.0000000E+00
-0.3850000E-01  0.0000000E+00
-0.3840000E-01  0.0000000E+00
-0.3830000E-01  0.0000000E+00
-0.3820000E-01  0.0000000E+00
-0.3810000E-01  0.0000000E+00
-0.3800000E-01  0.0000000E+00
-0.3790000E-01  0.0000000E+00
-0.3780000E-01  0.0000000E+00
-0.3770000E-01  0.0000000E+00
-0.3760000E-01  0.0000000E+00
-0.3750000E-01  0.0000000E+00
-0.3740000E-01  0.0000000E+00
-0.3730000E-01  0.0000000E+00
-0.3720000E-01  0.0000000E+00
-0.3710000E-01  0.0000000E+00
-0.3700000E-01  0.0000000E+00
-0.3690000E-01  0.0000000E+00
-0.3680000E-01  0.0000000E+00
-0.3670000E-01  0.0000000E+00
-0.3660000E-01  0.0000000E+00
-0.3650000E-01  0.0000000E+00
-0.3640000E-01  0.0000000E+00
-0.3630000E-01  0.0000000E+00
-0.3620000E-01  0.0000000E+00
-0.3610000E-01  0.0000000E+00
-0.3600000E-01  0.0000000E+00
-0.3590000E-01  0.0000000E+00
-0.3580000E-01  0.0000000E+00
-0.3570000E-01  0.0000000E+00
-0.3560000E-01  0.0000000E+00
-0.3550000E-01  0.0000000E+00
-0.3540000E-01  0.0000000E+00
-0.3530000E-01  0.0000000E+00
-0.3520000E-01  0.0000000E+00
-0.3510000E-01  0.0000000E+00
-0.3500000E-01  0.0000000E+00
-0.3490000E-01  0.0000000E+00
-0.3480000E-01  0.0000000E+00
-0.3470000E-01  0.0000000E+00
-0.3460000E-01  0.0000000E+00
-0.3450000E-01  0.0000000E+00
-0.3440000E-01  0.0000000E+00
-0.3430000E-01  0.0000000E+00
-0.3420000E-01  0.0000000E+00
-0.3410000E-01  0.0000000E+00
-0.3400000E-01  0.0000000E+00
-0.3390000E-01  0.0000000E+00
-0.3380000E-01  0.0000000E+00
-0.3370000E-01  0.0000000E+00
-0.3360000E-01  0.0000000E+00
-0.3350000E-01  0.0000000E+00
-0.3340000E-01  0.0000000E+00
-0.3330000E-01  0.0000000E+00
-0.3320000E-01  0.0000000E+00
-0.3310000E-01  0.0000000E+00
-0.3300000E-01  0.0000000E+00
-0.3290000E-01  0.0000000E+00
-0.3280000E-01  0.0000000E+00
-0.3270000E-01  0.0000000E+00
-0.3260000E-01  0.0000000E+00
-0.3250000E-01 -0.0000000E+00
-0.3240000E-01 -0.0000000E+00
-0.3230000E-01 -0.0000000E+00
-0.3220000E-01 -0.0000000E+00
-0.3210000E-01  0.0000000E+00
-0.3200000E-01  0.0000000E+00
-0.3190000E-01  0.0000000E+00
-0.3180000E-01  0.0000000E+00
-0.3170000E-01  0.0000000E+00
-0.3160000E-01  0.0000000E+00
-0.3150000E-01 -0.1642950E-36
-0.3140000E-01 -0.4791605E-36
-0.3130000E-01 -0.2186519E-36
-0.3120000E-01  0.2789596E-35
-0.3110000E-01  0.7579471E-35
-0.3100000E-01  0.7232698E-35
-0.3090000E-01 -0.1885964E-34
-0.3080000E-01 -0.7442050E-34
-0.3070000E-01 -0.1184142E-33
-0.3060000E-01 -0.2758481E-34
-0.3050000E-01  0.2664326E-33
-0.3040000E-01  0.5545075E-33
-0.3030000E-01  0.3053686E-33
-0.3020000E-01 -0.1018998E-32
-0.3010000E-01 -0.3231420E-32
-0.3000000E-01 -0.4660050E-32
-0.2990000E-01 -0.2085938E-32
-0.2980000E-01  0.7519917E-32
-0.2970000E-01  0.2295528E-31
-0.2960000E-01  0.3396580E-31
-0.2950000E-01  0.2040205E-31
-0.2940000E-01 -0.3802466E-31
-0.2930000E-01 -0.1379161E-30
-0.2920000E-01 -0.2224913E-30
-0.2910000E-01 -0.1724579E-30
-0.2900000E-01  0.1439029E-30
-0.2890000E-01  0.7385042E-30
-0.2880000E-01  0.1328683E-29
-0.2870000E-01  0.1258868E-29
-0.2860000E-01 -0.2697543E-30
-0.2850000E-01 -0.3518083E-29
-0.2840000E-01 -0.7242274E-29
-0.2830000E-01 -0.8119501E-29
-0.2820000E-01 -0.1657750E-29
-0.2810000E-01  0.1456155E-28
-0.2800000E-01  0.3587778E-28
-0.2790000E-01  0.4684360E-28
-0.2780000E-01  0.2411092E-28
-0.2770000E-01 -0.4938904E-28
-0.2760000E-01 -0.1602741E-27
-0.2750000E-01 -0.2432485E-27
-0.2740000E-01 -0.1864414E-27
-0.2730000E-01  0.1121980E-27
-0.2720000E-01  0.6364353E-27
-0.2710000E-01  0.1139123E-26
-0.2700000E-01  0.1127820E-26
-0.2690000E-01  0.6505911E-28
-0.2680000E-01 -0.2181390E-26
-0.2670000E-01 -0.4799125E-26
-0.2660000E-01 -0.5807385E-26
-0.2650000E-01 -0.2667983E-26
-0.2640000E-01  0.5996648E-26
-0.2630000E-01  0.1803701E-25
-0.2620000E-01  0.2624000E-25
-0.2610000E-01  0.1976948E-25
-0.2600000E-01 -0.9869891E-26
-0.2590000E-01 -0.5931155E-25
-0.2580000E-01 -0.1051834E-24
-0.2570000E-01 -0.1055719E-24
-0.2560000E-01 -0.1850950E-25
-0.2550000E-01  0.1629502E-24
-0.2540000E-01  0.3738515E-24
-0.2530000E-01  0.4677809E-24
-0.2520000E-01  0.2660946E-24
-0.2510000E-01 -0.3243724E-24
-0.2500000E-01 -0.1163372E-23
-0.2490000E-01 -0.1793739E-23
-0.2480000E-01 -0.1542688E-23
-0.2470000E-01  0.1222673E-24
-0.2460000E-01  0.3060020E-23
-0.2450000E-01  0.6024595E-23
-0.2440000E-01  0.6754847E-23
-0.2430000E-01  0.2922338E-23
-0.2420000E-01 -0.6133595E-23
-0.2410000E-01 -0.1761779E-22
-0.2400000E-01 -0.2476692E-22
-0.2390000E-01 -0.1895784E-22
-0.2380000E-01  0.5217465E-23
-0.2370000E-01  0.4355286E-22
-0.2360000E-01  0.7833016E-22
-0.2350000E-01  0.8161425E-22
-0.2340000E-01  0.2841018E-22
-0.2330000E-01 -0.8306445E-22
-0.2320000E-01 -0.2138694E-21
-0.2310000E-01 -0.2842243E-21
-0.2300000E-01 -0.2026994E-21
-0.2290000E-01  0.7655648E-22
-0.2280000E-01  0.4908246E-21
-0.2270000E-01  0.8411000E-21
-0.2260000E-01  0.8422736E-21
-0.2250000E-01  0.2661173E-21
-0.2240000E-01 -0.8638988E-21
-0.2230000E-01 -0.2129083E-20
-0.2220000E-01 -0.2754944E-20
-0.2210000E-01 -0.1919480E-20
-0.2200000E-01  0.7169929E-21
-0.2190000E-01  0.4488699E-20
-0.2180000E-01  0.7568039E-20
-0.2170000E-01  0.7499402E-20
-0.2160000E-01  0.2468008E-20
-0.2150000E-01 -0.7121407E-20
-0.2140000E-01 -0.1763315E-19
-0.2130000E-01 -0.2275170E-19
-0.2120000E-01 -0.1610898E-19
-0.2110000E-01  0.4589977E-20
-0.2100000E-01  0.3382757E-19
-0.2090000E-01  0.5757632E-19
-0.2080000E-01  0.5773754E-19
-0.2070000E-01  0.2157608E-19
-0.2060000E-01 -0.4730698E-19
-0.2050000E-01 -0.1227204E-18
-0.2040000E-01 -0.1607938E-18
-0.2030000E-01 -0.1186252E-18
-0.2020000E-01  0.1824567E-19
-0.2010000E-01  0.2125277E-18
-0.2000000E-01  0.3728082E-18
-0.1990000E-01  0.3838723E-18
-0.1980000E-01  0.1665605E-18
-0.1970000E-01 -0.2560466E-18
-0.1960000E-01 -0.7242999E-18
-0.1950000E-01 -0.9757639E-18
-0.1940000E-01 -0.7578835E-18
-0.1930000E-01  0.1360240E-19
-0.1920000E-01  0.1126966E-17
-0.1910000E-01  0.2069519E-17
-0.1900000E-01  0.2203099E-17
-0.1890000E-01  0.1092804E-17
-0.1880000E-01 -0.1143529E-17
-0.1870000E-01 -0.3667562E-17
-0.1860000E-01 -0.5113228E-17
-0.1850000E-01 -0.4176661E-17
-0.1840000E-01 -0.4157268E-18
-0.1830000E-01  0.5132233E-17
-0.1820000E-01  0.9957556E-17
-0.1810000E-01  0.1095983E-16
-0.1800000E-01  0.6032100E-17
-0.1790000E-01 -0.4310801E-17
-0.1780000E-01 -0.1620414E-16
-0.1770000E-01 -0.2338577E-16
-0.1760000E-01 -0.1991817E-16
-0.1750000E-01 -0.3759910E-17
-0.1740000E-01  0.2058239E-16
-0.1730000E-01  0.4221554E-16
-0.1720000E-01  0.4778551E-16
-0.1710000E-01  0.2826875E-16
-0.1700000E-01 -0.1426933E-16
-0.1690000E-01 -0.6387626E-16
-0.1680000E-01 -0.9490917E-16
-0.1670000E-01 -0.8328213E-16
-0.1660000E-01 -0.2075952E-16
-0.1650000E-01  0.7486468E-16
-0.1640000E-01  0.1609630E-15
-0.1630000E-01  0.1858469E-15
-0.1620000E-01  0.1150265E-15
-0.1610000E-01 -0.4351687E-16
-0.1600000E-01 -0.2297844E-15
-0.1590000E-01 -0.3485577E-15
-0.1580000E-01 -0.3116058E-15
-0.1570000E-01 -0.8959291E-16
-0.1560000E-01  0.2526002E-15
-0.1550000E-01  0.5623984E-15
-0.1540000E-01  0.6574344E-15
-0.1530000E-01  0.4182836E-15
-0.1520000E-01 -0.1253493E-15
-0.1510000E-01 -0.7654478E-15
-0.1500000E-01 -0.1177300E-14
-0.1490000E-01 -0.1064900E-14
-0.1480000E-01 -0.3339607E-15
-0.1470000E-01  0.7958852E-15
-0.1460000E-01  0.1820277E-14
-0.1450000E-01  0.2145908E-14
-0.1440000E-01  0.1392470E-14
-0.1430000E-01 -0.3363265E-15
-0.1420000E-01 -0.2371828E-14
-0.1410000E-01 -0.3688415E-14
-0.1400000E-01 -0.3366748E-14
-0.1390000E-01 -0.1127755E-14
-0.1380000E-01  0.2337563E-14
-0.1370000E-01  0.5480348E-14
-0.1360000E-01  0.6507062E-14
-0.1350000E-01  0.4292417E-14
-0.1340000E-01 -0.8282491E-15
-0.1330000E-01 -0.6853507E-14
-0.1320000E-01 -0.1076502E-13
-0.1310000E-01 -0.9901024E-14
-0.1300000E-01 -0.3492980E-14
-0.1290000E-01  0.6430052E-14
-0.1280000E-01  0.1542430E-13
-0.1270000E-01  0.1842104E-13
-0.1260000E-01  0.1230673E-13
-0.1250000E-01 -0.1908102E-14
-0.1240000E-01 -0.1860939E-13
-0.1230000E-01 -0.2946695E-13
-0.1220000E-01 -0.2724961E-13
-0.1210000E-01 -0.9977138E-14
-0.1200000E-01  0.1674966E-13
-0.1190000E-01  0.4093481E-13
-0.1180000E-01  0.4909000E-13
-0.1170000E-01  0.3309877E-13
-0.1160000E-01 -0.4184010E-14
-0.1150000E-01 -0.4789825E-13
-0.1140000E-01 -0.7632515E-13
-0.1130000E-01 -0.7088365E-13
-0.1120000E-01 -0.2673987E-13
-0.1110000E-01  0.4150107E-13
-0.1100000E-01  0.1031716E-12
-0.1090000E-01  0.1242224E-12
-0.1080000E-01  0.8452595E-13
-0.1070000E-01 -0.8381939E-14
-0.1060000E-01 -0.1172140E-12
-0.1050000E-01 -0.1881553E-12
-0.1040000E-01 -0.1757072E-12
-0.1030000E-01 -0.6849129E-13
-0.1020000E-01  0.9745037E-13
-0.1010000E-01  0.2475572E-12
-0.1000000E-01  0.2998511E-12
-0.9900000E-02  0.2064816E-12
-0.9800000E-02 -0.1402263E-13
-0.9700000E-02 -0.2727236E-12
-0.9600000E-02 -0.4424124E-12
-0.9500000E-02 -0.4164213E-12
-0.9400000E-02 -0.1686307E-12
-0.9300000E-02  0.2166039E-12
-0.9200000E-02  0.5663567E-12
-0.9100000E-02  0.6917497E-12
-0.9000000E-02  0.4833181E-12
-0.8900000E-02 -0.1629380E-13
-0.8800000E-02 -0.6047712E-12
-0.8700000E-02 -0.9943554E-12
-0.8600000E-02 -0.9449603E-12
-0.8500000E-02 -0.3980829E-12
-0.8400000E-02  0.4581388E-12
-0.8300000E-02  0.1239716E-11
-0.8200000E-02  0.1528935E-11
-0.8100000E-02  0.1084455E-11
-0.8000000E-02 -0.8362359E-15
-0.7900000E-02 -0.1285894E-11
-0.7800000E-02 -0.2145353E-11
-0.7700000E-02 -0.2058866E-11
-0.7600000E-02 -0.8989470E-12
-0.7500000E-02  0.9319790E-12
-0.7400000E-02  0.2613518E-11
-0.7300000E-02  0.3255110E-11
-0.7200000E-02  0.2342168E-11
-0.7100000E-02  0.6766439E-13
-0.7000000E-02 -0.2642171E-11
-0.6900000E-02 -0.4475119E-11
-0.6800000E-02 -0.4339527E-11
-0.6700000E-02 -0.1962946E-11
-0.6600000E-02  0.1826506E-11
-0.6500000E-02  0.5335347E-11
-0.6400000E-02  0.6724088E-11
-0.6300000E-02  0.4923823E-11
-0.6200000E-02  0.3132033E-12
-0.6100000E-02 -0.5231622E-11
-0.6000000E-02 -0.9044679E-11
-0.5900000E-02 -0.8899285E-11
-0.5800000E-02 -0.4216085E-11
-0.5700000E-02  0.3371057E-11
-0.5600000E-02  0.1048555E-10
-0.5500000E-02  0.1344342E-10
-0.5400000E-02  0.1007724E-10
-0.5300000E-02  0.1081095E-11
-0.5200000E-02 -0.9885488E-11
-0.5100000E-02 -0.1758514E-10
-0.5000000E-02 -0.1761141E-10
-0.4900000E-02 -0.8754019E-11
-0.4800000E-02  0.5888987E-11
-0.4700000E-02  0.1981248E-10
-0.4600000E-02  0.2587314E-10
-0.4500000E-02  0.1980805E-10
-0.4400000E-02  0.2832648E-11
-0.4300000E-02 -0.1814025E-10
-0.4200000E-02 -0.3313250E-10
-0.4100000E-02 -0.3368126E-10
-0.4000000E-02 -0.1734173E-10
-0.3900000E-02  0.1017848E-10
-0.3800000E-02  0.3668558E-10
-0.3700000E-02  0.4868740E-10
-0.3600000E-02  0.3800139E-10
-0.3500000E-02  0.6654913E-11
-0.3400000E-02 -0.3264377E-10
-0.3300000E-02 -0.6134415E-10
-0.3200000E-02 -0.6353015E-10
-0.3100000E-02 -0.3428885E-10
-0.3000000E-02  0.1625557E-10
-0.2900000E-02  0.6588544E-10
-0.2800000E-02  0.8971526E-10
-0.2700000E-02  0.7227285E-10
-0.2600000E-02  0.1654176E-10
-0.2500000E-02 -0.5499108E-10
-0.2400000E-02 -0.1089058E-09
-0.2300000E-02 -0.1160538E-09
-0.2200000E-02 -0.6667871E-10
-0.2100000E-02  0.2213144E-10
-0.2000000E-02  0.1114157E-09
-0.1900000E-02  0.1568996E-09
-0.1800000E-02  0.1303849E-09
-0.1700000E-02  0.3589979E-10
-0.1600000E-02 -0.8815671E-10
-0.1500000E-02 -0.1837719E-09
-0.1400000E-02 -0.1997787E-09
-0.1300000E-02 -0.1182822E-09
-0.1200000E-02  0.3218183E-10
-0.1100000E-02  0.1850445E-09
-0.1000000E-02  0.2642036E-09
-0.9000000E-03  0.2209101E-09
-0.8000000E-03  0.6162384E-10
-0.7000000E-03 -0.1482701E-09
-0.6000000E-03 -0.3098111E-09
-0.5000000E-03 -0.3358560E-09
-0.4000000E-03 -0.1962934E-09
-0.3000000E-03  0.5962122E-10
-0.2000000E-03  0.3179193E-09
-0.1000000E-03  0.4489142E-09
 0.0000000E+00  0.3703346E-09
 0.1000000E-03  0.9473375E-10
 0.2000000E-03 -0.2646051E-09
 0.3000000E-03 -0.5375417E-09
 0.4000000E-03 -0.5751300E-09
 0.5000000E-03 -0.3271502E-09
 0.6000000E-03  0.1197488E-09
 0.7000000E-03  0.5674555E-09
 0.8000000E-03  0.7908672E-09
 0.9000000E-03  0.6469142E-09
 0.1000000E-02  0.1569715E-09
 0.1100000E-02 -0.4818085E-09
 0.1200000E-02 -0.9710844E-09
 0.1300000E-02 -0.1045957E-08
 0.1400000E-02 -0.6107484E-09
 0.1500000E-02  0.1909939E-09
 0.1600000E-02  0.1015234E-08
 0.1700000E-02  0.1459769E-08
 0.1800000E-02  0.1253535E-08
 0.1900000E-02  0.4062418E-09
 0.2000000E-02 -0.7595550E-09
 0.2100000E-02 -0.1724131E-08
 0.2200000E-02 -0.1996087E-08
 0.2300000E-02 -0.1352095E-08
 0.2400000E-02  0.2273374E-10
 0.2500000E-02  0.1572782E-08
 0.2600000E-02  0.2590580E-08
 0.2700000E-02  0.2532548E-08
 0.2800000E-02  0.1292940E-08
 0.2900000E-02 -0.6976706E-09
 0.3000000E-02 -0.2613863E-08
 0.3100000E-02 -0.3574673E-08
 0.3200000E-02 -0.3041852E-08
 0.3300000E-02 -0.1097909E-08
 0.3400000E-02  0.1534883E-08
 0.3500000E-02  0.3764622E-08
 0.3600000E-02  0.4587798E-08
 0.3700000E-02  0.3539950E-08
 0.3800000E-02  0.9340501E-09
 0.3900000E-02 -0.2233349E-08
 0.4000000E-02 -0.4682549E-08
 0.4100000E-02 -0.5390590E-08
 0.4200000E-02 -0.4033017E-08
 0.4300000E-02 -0.1127210E-08
 0.4400000E-02  0.2190816E-08
 0.4500000E-02  0.4656408E-08
 0.4600000E-02  0.5408779E-08
 0.4700000E-02  0.4322203E-08
 0.4800000E-02  0.1989942E-08
 0.4900000E-02 -0.6149299E-09
 0.5000000E-02 -0.2618636E-08
 0.5100000E-02 -0.3615980E-08
 0.5200000E-02 -0.3743430E-08
 0.5300000E-02 -0.3434383E-08
 0.5400000E-02 -0.3016926E-08
 0.5500000E-02 -0.2414137E-08
 0.5600000E-02 -0.1161776E-08
 0.5700000E-02  0.1220535E-08
 0.5800000E-02  0.4693394E-08
 0.5900000E-02  0.8332564E-08
 0.6000000E-02  0.1044125E-07
 0.6100000E-02  0.9227109E-08
 0.6200000E-02  0.3812189E-08
 0.6300000E-02 -0.4914450E-08
 0.6400000E-02 -0.1413286E-07
 0.6500000E-02 -0.1990526E-07
 0.6600000E-02 -0.1879966E-07
 0.6700000E-02 -0.9690113E-08
 0.6800000E-02  0.5137746E-08
 0.6900000E-02  0.2028787E-07
 0.7000000E-02  0.2912045E-07
 0.7100000E-02  0.2660212E-07
 0.7200000E-02  0.1196222E-07
 0.7300000E-02 -0.1015118E-07
 0.7400000E-02 -0.3084206E-07
 0.7500000E-02 -0.4032942E-07
 0.7600000E-02 -0.3230918E-07
 0.7700000E-02 -0.7453244E-08
 0.7800000E-02  0.2571579E-07
 0.7900000E-02  0.5339870E-07
 0.8000000E-02  0.6190560E-07
 0.8100000E-02  0.4383490E-07
 0.8200000E-02  0.2372158E-08
 0.8300000E-02 -0.4849134E-07
 0.8400000E-02 -0.8848803E-07
 0.8500000E-02 -0.9898539E-07
 0.8600000E-02 -0.7123413E-07
 0.8700000E-02 -0.1138089E-07
 0.8800000E-02  0.6033235E-07
 0.8900000E-02  0.1165118E-06
 0.9000000E-02  0.1333848E-06
 0.9100000E-02  0.1011699E-06
 0.9200000E-02  0.2954122E-07
 0.9300000E-02 -0.5466327E-07
 0.9400000E-02 -0.1172857E-06
 0.9500000E-02 -0.1307787E-06
 0.9600000E-02 -0.8667261E-07
 0.9700000E-02 -0.1120548E-08
 0.9800000E-02  0.8951914E-07
 0.9900000E-02  0.1421890E-06
 0.1000000E-01  0.1249644E-06
 0.1010000E-01  0.3221663E-07
 0.1020000E-01 -0.1094168E-06
 0.1030000E-01 -0.2476001E-06
 0.1040000E-01 -0.3219788E-06
 0.1050000E-01 -0.2870047E-06
 0.1060000E-01 -0.1314526E-06
 0.1070000E-01  0.1131479E-06
 0.1080000E-01  0.3792198E-06
 0.1090000E-01  0.5835587E-06
 0.1100000E-01  0.6548370E-06
 0.1110000E-01  0.5586022E-06
 0.1120000E-01  0.3106557E-06
 0.1130000E-01 -0.2647562E-07
 0.1140000E-01 -0.3633943E-06
 0.1150000E-01 -0.6135773E-06
 0.1160000E-01 -0.7228163E-06
 0.1170000E-01 -0.6878506E-06
 0.1180000E-01 -0.5570235E-06
 0.1190000E-01 -0.4117221E-06
 0.1200000E-01 -0.3339860E-06
 0.1210000E-01 -0.3708468E-06
 0.1220000E-01 -0.5079237E-06
 0.1230000E-01 -0.6627664E-06
 0.1240000E-01 -0.7027613E-06
 0.1250000E-01 -0.4846129E-06
 0.1260000E-01  0.9524895E-07
 0.1270000E-01  0.1055060E-05
 0.1280000E-01  0.2303156E-05
 0.1290000E-01  0.3645868E-05
 0.1300000E-01  0.4829976E-05
 0.1310000E-01  0.5610364E-05
 0.1320000E-01  0.5823620E-05
 0.1330000E-01  0.5443638E-05
 0.1340000E-01  0.4598291E-05
 0.1350000E-01  0.3537235E-05
 0.1360000E-01  0.2556998E-05
 0.1370000E-01  0.1905665E-05
 0.1380000E-01  0.1699479E-05
 0.1390000E-01  0.1882968E-05
 0.1400000E-01  0.2251253E-05
 0.1410000E-01  0.2531487E-05
 0.1420000E-01  0.2497064E-05
 0.1430000E-01  0.2072362E-05
 0.1440000E-01  0.1384800E-05
 0.1450000E-01  0.7370845E-06
 0.1460000E-01  0.5016234E-06
 0.1470000E-01  0.9708891E-06
 0.1480000E-01  0.2219592E-05
 0.1490000E-01  0.4036548E-05
 0.1500000E-01  0.5962876E-05
 0.1510000E-01  0.7434558E-05
 0.1520000E-01  0.7985069E-05
 0.1530000E-01  0.7434615E-05
 0.1540000E-01  0.5989798E-05
 0.1550000E-01  0.4205216E-05
 0.1560000E-01  0.2808377E-05
 0.1570000E-01  0.2443594E-05
 0.1580000E-01  0.3427506E-05
 0.1590000E-01  0.5612154E-05
 0.1600000E-01  0.8416839E-05
 0.1610000E-01  0.1102796E-04
 0.1620000E-01  0.1269961E-04
 0.1630000E-01  0.1304314E-04
 0.1640000E-01  0.1219079E-04
 0.1650000E-01  0.1076135E-04
 0.1660000E-01  0.9630171E-05
 0.1670000E-01  0.9584499E-05
 0.1680000E-01  0.1099624E-04
 0.1690000E-01  0.1364559E-04
 0.1700000E-01  0.1677658E-04
 0.1710000E-01  0.1937767E-04
 0.1720000E-01  0.2058864E-04
 0.1730000E-01  0.2007805E-04
 0.1740000E-01  0.1823582E-04
 0.1750000E-01  0.1608896E-04
 0.1760000E-01  0.1495230E-04
 0.1770000E-01  0.1593182E-04
 0.1780000E-01  0.1946532E-04
 0.1790000E-01  0.2508337E-04
 0.1800000E-01  0.3150060E-04
 0.1810000E-01  0.3702766E-04
 0.1820000E-01  0.4017023E-04
 0.1830000E-01  0.4020184E-04
 0.1840000E-01  0.3749375E-04
 0.1850000E-01  0.3346318E-04
 0.1860000E-01  0.3013586E-04
 0.1870000E-01  0.2946095E-04
 0.1880000E-01  0.3261491E-04
 0.1890000E-01  0.3954594E-04
 0.1900000E-01  0.4893471E-04
 0.1910000E-01  0.5860402E-04
 0.1920000E-01  0.6624909E-04
 0.1930000E-01  0.7024049E-04
 0.1940000E-01  0.7021650E-04
 0.1950000E-01  0.6724799E-04
 0.1960000E-01  0.6350390E-04
 0.1970000E-01  0.6152135E-04
 0.1980000E-01  0.6332785E-04
 0.1990000E-01  0.6972365E-04
 0.2000000E-01  0.7998253E-04
 0.2010000E-01  0.9208845E-04
 0.2020000E-01  0.1034379E-03
 0.2030000E-01  0.1117681E-03
 0.2040000E-01  0.1159850E-03
 0.2050000E-01  0.1165901E-03
 0.2060000E-01  0.1155404E-03
 0.2070000E-01  0.1155755E-03
 0.2080000E-01  0.1192380E-03
 0.2090000E-01  0.1279341E-03
 0.2100000E-01  0.1413783E-03
 0.2110000E-01  0.1576376E-03
 0.2120000E-01  0.1737830E-03
 0.2130000E-01  0.1869315E-03
 0.2140000E-01  0.1953114E-03
 0.2150000E-01  0.1989619E-03
 0.2160000E-01  0.1997948E-03
 0.2170000E-01  0.2009736E-03
 0.2180000E-01  0.2058160E-03
 0.2190000E-01  0.2166062E-03
 0.2200000E-01  0.2337549E-03
 0.2210000E-01  0.2556281E-03
 0.2220000E-01  0.2791258E-03
 0.2230000E-01  0.3008153E-03
 0.2240000E-01  0.3182037E-03
 0.2250000E-01  0.3306737E-03
 0.2260000E-01  0.3397204E-03
 0.2270000E-01  0.3483836E-03
 0.2280000E-01  0.3600777E-03
 0.2290000E-01  0.3772624E-03
 0.2300000E-01  0.4004702E-03
 0.2310000E-01  0.4280838E-03
 0.2320000E-01  0.4569759E-03
 0.2330000E-01  0.4837822E-03
 0.2340000E-01  0.5063190E-03
 0.2350000E-01  0.5245816E-03
 0.2360000E-01  0.5408997E-03
 0.2370000E-01  0.5591473E-03
 0.2380000E-01  0.5832749E-03
 0.2390000E-01  0.6157152E-03
 0.2400000E-01  0.6562907E-03
 0.2410000E-01  0.7020834E-03
 0.2420000E-01  0.7483728E-03
 0.2430000E-01  0.7903352E-03
 0.2440000E-01  0.8248876E-03
 0.2450000E-01  0.8519770E-03
 0.2460000E-01  0.8748047E-03
 0.2470000E-01  0.8988534E-03
 0.2480000E-01  0.9300378E-03
 0.2490000E-01  0.9726368E-03
 0.2500000E-01  0.1027761E-02
 0.2510000E-01  0.1092924E-02
 0.2520000E-01  0.1162892E-02
 0.2530000E-01  0.1231508E-02
 0.2540000E-01  0.1293846E-02
 0.2550000E-01  0.1347905E-02
 0.2560000E-01  0.1395264E-02
 0.2570000E-01  0.1440465E-02
 0.2580000E-01  0.1489385E-02
 0.2590000E-01  0.1547192E-02
 0.2600000E-01  0.1616648E-02
 0.2610000E-01  0.1697318E-02
 0.2620000E-01  0.1785954E-02
 0.2630000E-01  0.1877838E-02
 0.2640000E-01  0.1968558E-02
 0.2650000E-01  0.2055558E-02
 0.2660000E-01  0.2138911E-02
 0.2670000E-01  0.2221103E-02
 0.2680000E-01  0.2305962E-02
 0.2690000E-01  0.2397204E-02
 0.2700000E-01  0.2497138E-02
 0.2710000E-01  0.2606012E-02
 0.2720000E-01  0.2722175E-02
 0.2730000E-01  0.2842937E-02
 0.2740000E-01  0.2965750E-02
 0.2750000E-01  0.3089226E-02
 0.2760000E-01  0.3213623E-02
 0.2770000E-01  0.3340649E-02
 0.2780000E-01  0.3472692E-02
 0.2790000E-01  0.3611830E-02
 0.2800000E-01  0.3759024E-02
 0.2810000E-01  0.3913801E-02
 0.2820000E-01  0.4074524E-02
 0.2830000E-01  0.4239148E-02
 0.2840000E-01  0.4406140E-02
 0.2850000E-01  0.4575182E-02
 0.2860000E-01  0.4747414E-02
 0.2870000E-01  0.4925111E-02
 0.2880000E-01  0.5110911E-02
 0.2890000E-01  0.5306895E-02
 0.2900000E-01  0.5513867E-02
 0.2910000E-01  0.5731052E-02
 0.2920000E-01  0.5956384E-02
 0.2930000E-01  0.6187243E-02
 0.2940000E-01  0.6421377E-02
 0.2950000E-01  0.6657706E-02
 0.2960000E-01  0.6896738E-02
 0.2970000E-01  0.7140470E-02
 0.2980000E-01  0.7391782E-02
 0.2990000E-01  0.7653606E-02
 0.3000000E-01  0.7928063E-02
 0.3010000E-01  0.8215866E-02
 0.3020000E-01  0.8516204E-02
 0.3030000E-01  0.8827077E-02
 0.3040000E-01  0.9146007E-02
 0.3050000E-01  0.9470837E-02
 0.3060000E-01  0.9800389E-02
 0.3070000E-01  0.1013480E-01
 0.3080000E-01  0.1047543E-01
 0.3090000E-01  0.1082444E-01
 0.3100000E-01  0.1118417E-01
 0.3110000E-01  0.1155652E-01
 0.3120000E-01  0.1194257E-01
 0.3130000E-01  0.1234241E-01
 0.3140000E-01  0.1275535E-01
 0.3150000E-01  0.1318014E-01
 0.3160000E-01  0.1361543E-01
 0.3170000E-01  0.1406007E-01
 0.3180000E-01  0.1451338E-01
 0.3190000E-01  0.1497526E-01
 0.3200000E-01  0.1544616E-01
 0.3210000E-01  0.1592704E-01
 0.3220000E-01  0.1641911E-01
 0.3230000E-01  0.1692366E-01
 0.3240000E-01  0.1744186E-01
 0.3250000E-01  0.1797455E-01
 0.3260000E-01  0.1852204E-01
 0.3270000E-01  0.1908410E-01
 0.3280000E-01  0.1965994E-01
 0.3290000E-01  0.2024853E-01
 0.3300000E-01  0.2084879E-01
 0.3310000E-01  0.2145991E-01
 0.3320000E-01  0.2208154E-01
 0.3330000E-01  0.2271395E-01
 0.3340000E-01  0.2335801E-01
 0.3350000E-01  0.2401485E-01
 0.3360000E-01  0.2468560E-01
 0.3370000E-01  0.2537110E-01
 0.3380000E-01  0.2607176E-01
 0.3390000E-01  0.2678744E-01
 0.3400000E-01  0.2751764E-01
 0.3410000E-01  0.2826179E-01
 0.3420000E-01  0.2901940E-01
 0.3430000E-01  0.2979016E-01
 0.3440000E-01  0.3057390E-01
 0.3450000E-01  0.3137052E-01
 0.3460000E-01  0.3217987E-01
 0.3470000E-01  0.3300164E-01
 0.3480000E-01  0.3383551E-01
 0.3490000E-01  0.3468150E-01
 0.3500000E-01  0.3553990E-01
 0.3510000E-01  0.3641138E-01
 0.3520000E-01  0.3729676E-01
 0.3530000E-01  0.3819674E-01
 0.3540000E-01  0.3911150E-01
 0.3550000E-01  0.4004053E-01
 0.3560000E-01  0.4098262E-01
 0.3570000E-01  0.4193625E-01
 0.3580000E-01  0.4290002E-01
 0.3590000E-01  0.4387307E-01
 0.3600000E-01  0.4485533E-01
 0.3610000E-01  0.4584752E-01
 0.3620000E-01  0.4685071E-01
 0.3630000E-01  0.4786596E-01
 0.3640000E-01  0.4889371E-01
 0.3650000E-01  0.4993347E-01
 0.3660000E-01  0.5098399E-01
 0.3670000E-01  0.5204369E-01
 0.3680000E-01  0.5311121E-01
 0.3690000E-01  0.5418585E-01
 0.3700000E-01  0.5526769E-01
 0.3710000E-01  0.5635729E-01
 0.3720000E-01  0.5745519E-01
 0.3730000E-01  0.5856152E-01
 0.3740000E-01  0.5967557E-01
 0.3750000E-01  0.6079564E-01
 0.3760000E-01  0.6191944E-01
 0.3770000E-01  0.6304503E-01
 0.3780000E-01  0.6417134E-01
 0.3790000E-01  0.6529874E-01
 0.3800000E-01  0.6642883E-01
 0.3810000E-01  0.6756356E-01
 0.3820000E-01  0.6870449E-01
 0.3830000E-01  0.6985158E-01
 0.3840000E-01  0.7100309E-01
 0.3850000E-01  0.7215582E-01
 0.3860000E-01  0.7330599E-01
 0.3870000E-01  0.7445027E-01
 0.3880000E-01  0.7558623E-01
 0.3890000E-01  0.7671332E-01
 0.3900000E-01  0.7783261E-01
 0.3910000E-01  0.7894621E-01
 0.3920000E-01  0.8005650E-01
 0.3930000E-01  0.8116494E-01
 0.3940000E-01  0.8227145E-01
 0.3950000E-01  0.8337423E-01
 0.3960000E-01  0.8447040E-01
 0.3970000E-01  0.8555650E-01
 0.3980000E-01  0.8662894E-01
 0.3990000E-01  0.8768498E-01
 0.4000000E-01  0.8872329E-01
 0.4010000E-01  0.8974399E-01
 0.4020000E-01  0.9074813E-01
 0.4030000E-01  0.9173697E-01
 0.4040000E-01  0.9271120E-01
 0.4050000E-01  0.9367044E-01
 0.4060000E-01  0.9461338E-01
 0.4070000E-01  0.9553788E-01
 0.4080000E-01  0.9644158E-01
 0.4090000E-01  0.9732267E-01
 0.4100000E-01  0.9818019E-01
 0.4110000E-01  0.9901347E-01
 0.4120000E-01  0.9982166E-01
 0.4130000E-01  0.1006037E+00
 0.4140000E-01  0.1013579E+00
 0.4150000E-01  0.1020827E+00
 0.4160000E-01  0.1027765E+00
 0.4170000E-01  0.1034383E+00
 0.4180000E-01  0.1040676E+00
 0.4190000E-01  0.1046638E+00
 0.4200000E-01  0.1052270E+00
 0.4210000E-01  0.1057568E+00
 0.4220000E-01  0.1062525E+00
 0.4230000E-01  0.1067132E+00
 0.4240000E-01  0.1071378E+00
 0.4250000E-01  0.1075246E+00
 0.4260000E-01  0.1078718E+00
 0.4270000E-01  0.1081772E+00
 0.4280000E-01  0.1084388E+00
 0.4290000E-01  0.1086554E+00
 0.4300000E-01  0.1088264E+00
 0.4310000E-01  0.1089519E+00
 0.4320000E-01  0.1090320E+00
 0.4330000E-01  0.1090664E+00
 0.4340000E-01  0.1090543E+00
 0.4350000E-01  0.1089951E+00
 0.4360000E-01  0.1088877E+00
 0.4370000E-01  0.1087312E+00
 0.4380000E-01  0.1085246E+00
 0.4390000E-01  0.1082675E+00
 0.4400000E-01  0.1079591E+00
 0.4410000E-01  0.1075981E+00
 0.4420000E-01  0.1071826E+00
 0.4430000E-01  0.1067111E+00
 0.4440000E-01  0.1061829E+00
 0.4450000E-01  0.1055978E+00
 0.4460000E-01  0.1049565E+00
 0.4470000E-01  0.1042601E+00
 0.4480000E-01  0.1035090E+00
 0.4490000E-01  0.1027025E+00
 0.4500000E-01  0.1018392E+00
 0.4510000E-01  0.1009179E+00
 0.4520000E-01  0.9993826E-01
 0.4530000E-01  0.9889986E-01
 0.4540000E-01  0.9780288E-01
 0.4550000E-01  0.9664806E-01
 0.4560000E-01  0.9543508E-01
 0.4570000E-01  0.9416272E-01
 0.4580000E-01  0.9283029E-01
 0.4590000E-01  0.9143814E-01
 0.4600000E-01  0.8998680E-01
 0.4610000E-01  0.8847656E-01
 0.4620000E-01  0.8690686E-01
 0.4630000E-01  0.8527756E-01
 0.4640000E-01  0.8359021E-01
 0.4650000E-01  0.8184635E-01
 0.4660000E-01  0.8004723E-01
 0.4670000E-01  0.7819331E-01
 0.4680000E-01  0.7628451E-01
 0.4690000E-01  0.7432030E-01
 0.4700000E-01  0.7229934E-01
 0.4710000E-01  0.7022046E-01
 0.4720000E-01  0.6808358E-01
 0.4730000E-01  0.6589065E-01
 0.4740000E-01  0.6364453E-01
 0.4750000E-01  0.6134857E-01
 0.4760000E-01  0.5900551E-01
 0.4770000E-01  0.5661625E-01
 0.4780000E-01  0.5418006E-01
 0.4790000E-01  0.5169532E-01
 0.4800000E-01  0.4916123E-01
 0.4810000E-01  0.4657808E-01
 0.4820000E-01  0.4394681E-01
 0.4830000E-01  0.4126997E-01
 0.4840000E-01  0.3855088E-01
 0.4850000E-01  0.3579244E-01
 0.4860000E-01  0.3299681E-01
 0.4870000E-01  0.3016580E-01
 0.4880000E-01  0.2729990E-01
 0.4890000E-01  0.2439841E-01
 0.4900000E-01  0.2146132E-01
 0.4910000E-01  0.1848982E-01
 0.4920000E-01  0.1548651E-01
 0.4930000E-01  0.1245369E-01
 0.4940000E-01  0.9393794E-02
 0.4950000E-01  0.6309357E-02
 0.4960000E-01  0.3201704E-02
 0.4970000E-01  0.7224008E-04
 0.4980000E-01 -0.3077293E-02
 0.4990000E-01 -0.6244867E-02
 0.5000000E-01 -0.9429009E-02
 0.5010000E-01 -0.1262855E-01
 0.5020000E-01 -0.1584237E-01
 0.5030000E-01 -0.1906872E-01
 0.5040000E-01 -0.2230451E-01
 0.5050000E-01 -0.2554680E-01
 0.5060000E-01 -0.2879225E-01
 0.5070000E-01 -0.3203801E-01
 0.5080000E-01 -0.3528334E-01
 0.5090000E-01 -0.3852886E-01
 0.5100000E-01 -0.4177448E-01
 0.5110000E-01 -0.4501884E-01
 0.5120000E-01 -0.4825855E-01
 0.5130000E-01 -0.5148913E-01
 0.5140000E-01 -0.5470679E-01
 0.5150000E-01 -0.5790923E-01
 0.5160000E-01 -0.6109457E-01
 0.5170000E-01 -0.6426208E-01
 0.5180000E-01 -0.6741086E-01
 0.5190000E-01 -0.7053868E-01
 0.5200000E-01 -0.7364332E-01
 0.5210000E-01 -0.7672233E-01
 0.5220000E-01 -0.7977376E-01
 0.5230000E-01 -0.8279647E-01
 0.5240000E-01 -0.8578998E-01
 0.5250000E-01 -0.8875360E-01
 0.5260000E-01 -0.9168454E-01
 0.5270000E-01 -0.9457822E-01
 0.5280000E-01 -0.9743030E-01
 0.5290000E-01 -0.1002378E+00
 0.5300000E-01 -0.1030003E+00
 0.5310000E-01 -0.1057192E+00
 0.5320000E-01 -0.1083954E+00
 0.5330000E-01 -0.1110288E+00
 0.5340000E-01 -0.1136164E+00
 0.5350000E-01 -0.1161527E+00
 0.5360000E-01 -0.1186334E+00
 0.5370000E-01 -0.1210560E+00
 0.5380000E-01 -0.1234207E+00
 0.5390000E-01 -0.1257296E+00
 0.5400000E-01 -0.1279842E+00
 0.5410000E-01 -0.1301836E+00
 0.5420000E-01 -0.1323246E+00
 0.5430000E-01 -0.1344028E+00
 0.5440000E-01 -0.1364152E+00
 0.5450000E-01 -0.1383604E+00
 0.5460000E-01 -0.1402388E+00
 0.5470000E-01 -0.1420513E+00
 0.5480000E-01 -0.1437988E+00
 0.5490000E-01 -0.1454796E+00
 0.5500000E-01 -0.1470907E+00
 0.5510000E-01 -0.1486296E+00
 0.5520000E-01 -0.1500958E+00
 0.5530000E-01 -0.1514902E+00
 0.5540000E-01 -0.1528147E+00
 0.5550000E-01 -0.1540703E+00
 0.5560000E-01 -0.1552563E+00
 0.5570000E-01 -0.1563694E+00
 0.5580000E-01 -0.1574061E+00
 0.5590000E-01 -0.1583644E+00
 0.5600000E-01 -0.1592448E+00
 0.5610000E-01 -0.1600490E+00
 0.5620000E-01 -0.1607798E+00
 0.5630000E-01 -0.1614389E+00
 0.5640000E-01 -0.1620253E+00
 0.5650000E-01 -0.1625366E+00
 0.5660000E-01 -0.1629704E+00
 0.5670000E-01 -0.1633260E+00
 0.5680000E-01 -0.1636052E+00
 0.5690000E-01 -0.1638114E+00
 0.5700000E-01 -0.1639476E+00
 0.5710000E-01 -0.1640146E+00
 0.5720000E-01 -0.1640110E+00
 0.5730000E-01 -0.1639342E+00
 0.5740000E-01 -0.1637817E+00
 0.5750000E-01 -0.1635530E+00
 0.5760000E-01 -0.1632502E+00
 0.5770000E-01 -0.1628762E+00
 0.5780000E-01 -0.1624340E+00
 0.5790000E-01 -0.1619249E+00
 0.5800000E-01 -0.1613490E+00
 0.5810000E-01 -0.1607065E+00
 0.5820000E-01 -0.1599984E+00
 0.5830000E-01 -0.1592265E+00
 0.5840000E-01 -0.1583931E+00
 0.5850000E-01 -0.1574997E+00
 0.5860000E-01 -0.1565456E+00
 0.5870000E-01 -0.1555289E+00
 0.5880000E-01 -0.1544476E+00
 0.5890000E-01 -0.1533018E+00
 0.5900000E-01 -0.1520947E+00
 0.5910000E-01 -0.1508320E+00
 0.5920000E-01 -0.1495197E+00
 0.5930000E-01 -0.1481615E+00
 0.5940000E-01 -0.1467582E+00
 0.5950000E-01 -0.1453072E+00
 0.5960000E-01 -0.1438051E+00
 0.5970000E-01 -0.1422503E+00
 0.5980000E-01 -0.1406441E+00
 0.5990000E-01 -0.1389908E+00