  -85.714285714285708          0.0000000000000000     
  -85.464285714285708          0.0000000000000000     
  -85.214285714285708          0.0000000000000000     
  -84.964285714285708          0.0000000000000000     
  -84.714285714285708          0.0000000000000000     
  -84.464285714285708          0.0000000000000000     
  -84.214285714285708          0.0000000000000000     
  -83.964285714285708          0.0000000000000000     
  -83.714285714285708          0.0000000000000000     
  -83.464285714285708          0.0000000000000000     
  -83.214285714285708          0.0000000000000000     
  -82.964285714285708          0.0000000000000000     
  -82.714285714285708          0.0000000000000000     
  -82.464285714285708          0.0000000000000000     
  -82.214285714285708          0.0000000000000000     
  -81.964285714285708          0.0000000000000000     
  -81.714285714285708          0.0000000000000000     
  -81.464285714285708          0.0000000000000000     
  -81.214285714285708          0.0000000000000000     
  -80.964285714285708          0.0000000000000000     
  -80.714285714285708          0.0000000000000000     
  -80.464285714285708          0.0000000000000000     
  -80.214285714285708          0.0000000000000000     
  -79.964285714285708          0.0000000000000000     
  -79.714285714285708          0.0000000000000000     
  -79.464285714285708          0.0000000000000000     
  -79.214285714285708          0.0000000000000000     
  -78.964285714285708          0.0000000000000000     
  -78.714285714285708          0.0000000000000000     
  -78.464285714285708          0.0000000000000000     
  -78.214285714285708          0.0000000000000000     
  -77.964285714285708          0.0000000000000000     
  -77.714285714285708          0.0000000000000000     
  -77.464285714285708          0.0000000000000000     
  -77.214285714285708          0.0000000000000000     
  -76.964285714285708          0.0000000000000000     
  -76.714285714285708          0.0000000000000000     
  -76.464285714285708          0.0000000000000000     
  -76.214285714285708          0.0000000000000000     
  -75.964285714285708          0.0000000000000000     
  -75.714285714285708          0.0000000000000000     
  -75.464285714285708          0.0000000000000000     
  -75.214285714285708          0.0000000000000000     
  -74.964285714285708          0.0000000000000000     
  -74.714285714285708          0.0000000000000000     
  -74.464285714285708          0.0000000000000000     
  -74.214285714285708          0.0000000000000000     
  -73.964285714285708          0.0000000000000000     
  -73.714285714285708          0.0000000000000000     
  -73.464285714285708          0.0000000000000000     
  -73.214285714285708          0.0000000000000000     
  -72.964285714285708          0.0000000000000000     
  -72.714285714285708          0.0000000000000000     
  -72.464285714285708          0.0000000000000000     
  -72.214285714285708          0.0000000000000000     
  -71.964285714285708          0.0000000000000000     
  -71.714285714285708          0.0000000000000000     
  -71.464285714285708          0.0000000000000000     
  -71.214285714285708          0.0000000000000000     
  -70.964285714285708          0.0000000000000000     
  -70.714285714285708          0.0000000000000000     
  -70.464285714285708          0.0000000000000000     
  -70.214285714285708          0.0000000000000000     
  -69.964285714285708          0.0000000000000000     
  -69.714285714285708          0.0000000000000000     
  -69.464285714285708          0.0000000000000000     
  -69.214285714285708          0.0000000000000000     
  -68.964285714285708          0.0000000000000000     
  -68.714285714285708          0.0000000000000000     
  -68.464285714285708          0.0000000000000000     
  -68.214285714285708          0.0000000000000000     
  -67.964285714285708          0.0000000000000000     
  -67.714285714285708          0.0000000000000000     
  -67.464285714285708          0.0000000000000000     
  -67.214285714285708          0.0000000000000000     
  -66.964285714285708          0.0000000000000000     
  -66.714285714285708          0.0000000000000000     
  -66.464285714285708          0.0000000000000000     
  -66.214285714285708          0.0000000000000000     
  -65.964285714285708          0.0000000000000000     
  -65.714285714285708          0.0000000000000000     
  -65.464285714285708          0.0000000000000000     
  -65.214285714285708          0.0000000000000000     
  -64.964285714285708          0.0000000000000000     
  -64.714285714285708          0.0000000000000000     
  -64.464285714285708          0.0000000000000000     
  -64.214285714285708          0.0000000000000000     
  -63.964285714285708          0.0000000000000000     
  -63.714285714285708          0.0000000000000000     
  -63.464285714285708          0.0000000000000000     
  -63.214285714285708          0.0000000000000000     
  -62.964285714285708          0.0000000000000000     
  -62.714285714285708          0.0000000000000000     
  -62.464285714285708          0.0000000000000000     
  -62.214285714285708          0.0000000000000000     
  -61.964285714285708          0.0000000000000000     
  -61.714285714285708          0.0000000000000000     
  -61.464285714285708          0.0000000000000000     
  -61.214285714285708          0.0000000000000000     
  -60.964285714285708          0.0000000000000000     
  -60.714285714285708          0.0000000000000000     
  -60.464285714285708          0.0000000000000000     
  -60.214285714285708          0.0000000000000000     
  -59.964285714285708          0.0000000000000000     
  -59.714285714285708          0.0000000000000000     
  -59.464285714285708          0.0000000000000000     
  -59.214285714285708          0.0000000000000000     
  -58.964285714285708          0.0000000000000000     
  -58.714285714285708          0.0000000000000000     
  -58.464285714285708          0.0000000000000000     
  -58.214285714285708          0.0000000000000000     
  -57.964285714285708          0.0000000000000000     
  -57.714285714285708          0.0000000000000000     
  -57.464285714285708          0.0000000000000000     
  -57.214285714285708          0.0000000000000000     
  -56.964285714285708          0.0000000000000000     
  -56.714285714285708          0.0000000000000000     
  -56.464285714285708          0.0000000000000000     
  -56.214285714285708          0.0000000000000000     
  -55.964285714285708          0.0000000000000000     
  -55.714285714285708          0.0000000000000000     
  -55.464285714285708          0.0000000000000000     
  -55.214285714285708          0.0000000000000000     
  -54.964285714285708          0.0000000000000000     
  -54.714285714285708          0.0000000000000000     
  -54.464285714285708          0.0000000000000000     
  -54.214285714285708          0.0000000000000000     
  -53.964285714285708          0.0000000000000000     
  -53.714285714285708          0.0000000000000000     
  -53.464285714285708          0.0000000000000000     
  -53.214285714285708          0.0000000000000000     
  -52.964285714285708          0.0000000000000000     
  -52.714285714285708          0.0000000000000000     
  -52.464285714285708          0.0000000000000000     
  -52.214285714285708          0.0000000000000000     
  -51.964285714285708          0.0000000000000000     
  -51.714285714285708          0.0000000000000000     
  -51.464285714285708          0.0000000000000000     
  -51.214285714285708          0.0000000000000000     
  -50.964285714285708          0.0000000000000000     
  -50.714285714285708          0.0000000000000000     
  -50.464285714285708          0.0000000000000000     
  -50.214285714285708          0.0000000000000000     
  -49.964285714285708          0.0000000000000000     
  -49.714285714285708          0.0000000000000000     
  -49.464285714285708          0.0000000000000000     
  -49.214285714285708          0.0000000000000000     
  -48.964285714285708          0.0000000000000000     
  -48.714285714285708          0.0000000000000000     
  -48.464285714285708          0.0000000000000000     
  -48.214285714285708          0.0000000000000000     
  -47.964285714285708          0.0000000000000000     
  -47.714285714285708          0.0000000000000000     
  -47.464285714285708          0.0000000000000000     
  -47.214285714285708          0.0000000000000000     
  -46.964285714285708          0.0000000000000000     
  -46.714285714285708          0.0000000000000000     
  -46.464285714285708          0.0000000000000000     
  -46.214285714285708          0.0000000000000000     
  -45.964285714285708          0.0000000000000000     
  -45.714285714285708          0.0000000000000000     
  -45.464285714285708          0.0000000000000000     
  -45.214285714285708          0.0000000000000000     
  -44.964285714285708          0.0000000000000000     
  -44.714285714285708          0.0000000000000000     
  -44.464285714285708          0.0000000000000000     
  -44.214285714285708          0.0000000000000000     
  -43.964285714285708          0.0000000000000000     
  -43.714285714285708          0.0000000000000000     
  -43.464285714285708          0.0000000000000000     
  -43.214285714285708          0.0000000000000000     
  -42.964285714285708          0.0000000000000000     
  -42.714285714285708          0.0000000000000000     
  -42.464285714285708          0.0000000000000000     
  -42.214285714285708          0.0000000000000000     
  -41.964285714285708          0.0000000000000000     
  -41.714285714285708          0.0000000000000000     
  -41.464285714285708          0.0000000000000000     
  -41.214285714285708          0.0000000000000000     
  -40.964285714285708          0.0000000000000000     
  -40.714285714285708          0.0000000000000000     
  -40.464285714285708          0.0000000000000000     
  -40.214285714285708          0.0000000000000000     
  -39.964285714285708          0.0000000000000000     
  -39.714285714285708          0.0000000000000000     
  -39.464285714285708          0.0000000000000000     
  -39.214285714285708          0.0000000000000000     
  -38.964285714285708          0.0000000000000000     
  -38.714285714285708          0.0000000000000000     
  -38.464285714285708          0.0000000000000000     
  -38.214285714285708          0.0000000000000000     
  -37.964285714285708          0.0000000000000000     
  -37.714285714285708          0.0000000000000000     
  -37.464285714285708          0.0000000000000000     
  -37.214285714285708          0.0000000000000000     
  -36.964285714285708          0.0000000000000000     
  -36.714285714285708          0.0000000000000000     
  -36.464285714285708          0.0000000000000000     
  -36.214285714285708          0.0000000000000000     
  -35.964285714285708          0.0000000000000000     
  -35.714285714285708          0.0000000000000000     
  -35.464285714285708          0.0000000000000000     
  -35.214285714285708          0.0000000000000000     
  -34.964285714285708          0.0000000000000000     
  -34.714285714285708          0.0000000000000000     
  -34.464285714285708          0.0000000000000000     
  -34.214285714285708          0.0000000000000000     
  -33.964285714285708          0.0000000000000000     
  -33.714285714285708          0.0000000000000000     
  -33.464285714285708          0.0000000000000000     
  -33.214285714285708          0.0000000000000000     
  -32.964285714285708          0.0000000000000000     
  -32.714285714285708          0.0000000000000000     
  -32.464285714285708          0.0000000000000000     
  -32.214285714285708          0.0000000000000000     
  -31.964285714285708          0.0000000000000000     
  -31.714285714285708          0.0000000000000000     
  -31.464285714285708          0.0000000000000000     
  -31.214285714285708          0.0000000000000000     
  -30.964285714285708          0.0000000000000000     
  -30.714285714285708          0.0000000000000000     
  -30.464285714285708          0.0000000000000000     
  -30.214285714285708          0.0000000000000000     
  -29.964285714285708          0.0000000000000000     
  -29.714285714285708          0.0000000000000000     
  -29.464285714285708          0.0000000000000000     
  -29.214285714285708          0.0000000000000000     
  -28.964285714285708          0.0000000000000000     
  -28.714285714285708          0.0000000000000000     
  -28.464285714285708          0.0000000000000000     
  -28.214285714285708          0.0000000000000000     
  -27.964285714285708          0.0000000000000000     
  -27.714285714285708          0.0000000000000000     
  -27.464285714285708          0.0000000000000000     
  -27.214285714285708          0.0000000000000000     
  -26.964285714285708          0.0000000000000000     
  -26.714285714285708          0.0000000000000000     
  -26.464285714285708          0.0000000000000000     
  -26.214285714285708          0.0000000000000000     
  -25.964285714285708          0.0000000000000000     
  -25.714285714285708          0.0000000000000000     
  -25.464285714285708          0.0000000000000000     
  -25.214285714285708          0.0000000000000000     
  -24.964285714285708          0.0000000000000000     
  -24.714285714285708          0.0000000000000000     
  -24.464285714285708          0.0000000000000000     
  -24.214285714285708          0.0000000000000000     
  -23.964285714285708          0.0000000000000000     
  -23.714285714285708          0.0000000000000000     
  -23.464285714285708          0.0000000000000000     
  -23.214285714285708          0.0000000000000000     
  -22.964285714285708          0.0000000000000000     
  -22.714285714285708          0.0000000000000000     
  -22.464285714285708          0.0000000000000000     
  -22.214285714285708          0.0000000000000000     
  -21.964285714285708          0.0000000000000000     
  -21.714285714285708          0.0000000000000000     
  -21.464285714285708          0.0000000000000000     
  -21.214285714285708          0.0000000000000000     
  -20.964285714285708          0.0000000000000000     
  -20.714285714285708          0.0000000000000000     
  -20.464285714285708          0.0000000000000000     
  -20.214285714285708          0.0000000000000000     
  -19.964285714285708          0.0000000000000000     
  -19.714285714285708          0.0000000000000000     
  -19.464285714285708          0.0000000000000000     
  -19.214285714285708          0.0000000000000000     
  -18.964285714285708          0.0000000000000000     
  -18.714285714285708          0.0000000000000000     
  -18.464285714285708          0.0000000000000000     
  -18.214285714285708          0.0000000000000000     
  -17.964285714285708          0.0000000000000000     
  -17.714285714285708          0.0000000000000000     
  -17.464285714285708          0.0000000000000000     
  -17.214285714285708          0.0000000000000000     
  -16.964285714285708          0.0000000000000000     
  -16.714285714285708          0.0000000000000000     
  -16.464285714285708          0.0000000000000000     
  -16.214285714285708          0.0000000000000000     
  -15.964285714285708          0.0000000000000000     
  -15.714285714285708          0.0000000000000000     
  -15.464285714285708          0.0000000000000000     
  -15.214285714285708          0.0000000000000000     
  -14.964285714285708          0.0000000000000000     
  -14.714285714285708          0.0000000000000000     
  -14.464285714285708          0.0000000000000000     
  -14.214285714285708          0.0000000000000000     
  -13.964285714285708          0.0000000000000000     
  -13.714285714285708          0.0000000000000000     
  -13.464285714285708          0.0000000000000000     
  -13.214285714285708          0.0000000000000000     
  -12.964285714285708          0.0000000000000000     
  -12.714285714285708          0.0000000000000000     
  -12.464285714285708          0.0000000000000000     
  -12.214285714285708          0.0000000000000000     
  -11.964285714285708          0.0000000000000000     
  -11.714285714285708          0.0000000000000000     
  -11.464285714285708          0.0000000000000000     
  -11.214285714285708          0.0000000000000000     
  -10.964285714285708          0.0000000000000000     
  -10.714285714285708          0.0000000000000000     
  -10.464285714285708          0.0000000000000000     
  -10.214285714285708          0.0000000000000000     
  -9.9642857142857082          0.0000000000000000     
  -9.7142857142857082          0.0000000000000000     
  -9.4642857142857082          0.0000000000000000     
  -9.2142857142857082          0.0000000000000000     
  -8.9642857142857082          0.0000000000000000     
  -8.7142857142857082          0.0000000000000000     
  -8.4642857142857082          0.0000000000000000     
  -8.2142857142857082          0.0000000000000000     
  -7.9642857142857082          0.0000000000000000     
  -7.7142857142857082          0.0000000000000000     
  -7.4642857142857082          0.0000000000000000     
  -7.2142857142857082          0.0000000000000000     
  -6.9642857142857082          0.0000000000000000     
  -6.7142857142857082          0.0000000000000000     
  -6.4642857142857082          0.0000000000000000     
  -6.2142857142857082          0.0000000000000000     
  -5.9642857142857082          0.0000000000000000     
  -5.7142857142857082          0.0000000000000000     
  -5.4642857142857082          0.0000000000000000     
  -5.2142857142857082          0.0000000000000000     
  -4.9642857142857082          0.0000000000000000     
  -4.7142857142857082          0.0000000000000000     
  -4.4642857142857082          0.0000000000000000     
  -4.2142857142857082          0.0000000000000000     
  -3.9642857142857082          0.0000000000000000     
  -3.7142857142857082          0.0000000000000000     
  -3.4642857142857082          0.0000000000000000     
  -3.2142857142857082          0.0000000000000000     
  -2.9642857142857082          0.0000000000000000     
  -2.7142857142857082          0.0000000000000000     
  -2.4642857142857082          0.0000000000000000     
  -2.2142857142857082          0.0000000000000000     
  -1.9642857142857082          0.0000000000000000     
  -1.7142857142857082          0.0000000000000000     
  -1.4642857142857082          0.0000000000000000     
  -1.2142857142857082          0.0000000000000000     
 -0.96428571428570820          0.0000000000000000     
 -0.71428571428570820          0.0000000000000000     
 -0.46428571428570820          0.0000000000000000     
 -0.21428571428570820          0.0000000000000000     
   3.5714285714291805E-002     0.0000000000000000     
  0.28571428571429180          0.0000000000000000     
  0.53571428571429180          0.0000000000000000     
  0.78571428571429180          0.0000000000000000     
   1.0357142857142918          0.0000000000000000     
   1.2857142857142918          0.0000000000000000     
   1.5357142857142918          0.0000000000000000     
   1.7857142857142918          0.0000000000000000     
   2.0357142857142918          0.0000000000000000     
   2.2857142857142918          0.0000000000000000     
   2.5357142857142918          0.0000000000000000     
   2.7857142857142918          0.0000000000000000     
   3.0357142857142918          0.0000000000000000     
   3.2857142857142918          0.0000000000000000     
   3.5357142857142918          0.0000000000000000     
   3.7857142857142918          0.0000000000000000     
   4.0357142857142918          0.0000000000000000     
   4.2857142857142918          0.0000000000000000     
   4.5357142857142918          0.0000000000000000     
   4.7857142857142918          0.0000000000000000     
   5.0357142857142918          0.0000000000000000     
   5.2857142857142918          0.0000000000000000     
   5.5357142857142918          0.0000000000000000     
   5.7857142857142918          0.0000000000000000     
   6.0357142857142918          0.0000000000000000     
   6.2857142857142918          0.0000000000000000     
   6.5357142857142918          0.0000000000000000     
   6.7857142857142918          0.0000000000000000     
   7.0357142857142918          0.0000000000000000     
   7.2857142857142918          0.0000000000000000     
   7.5357142857142918          0.0000000000000000     
   7.7857142857142918          0.0000000000000000     
   8.0357142857142918          0.0000000000000000     
   8.2857142857142918          0.0000000000000000     
   8.5357142857142918          0.0000000000000000     
   8.7857142857142918          0.0000000000000000     
   9.0357142857142918          0.0000000000000000     
   9.2857142857142918          0.0000000000000000     
   9.5357142857142918          0.0000000000000000     
   9.7857142857142918          0.0000000000000000     
   10.035714285714292          0.0000000000000000     
   10.285714285714292          0.0000000000000000     
   10.535714285714292          0.0000000000000000     
   10.785714285714292          0.0000000000000000     
   11.035714285714292          0.0000000000000000     
   11.285714285714292          0.0000000000000000     
   11.535714285714292          0.0000000000000000     
   11.785714285714292          0.0000000000000000     
   12.035714285714292          0.0000000000000000     
   12.285714285714292          0.0000000000000000     
   12.535714285714292          0.0000000000000000     
   12.785714285714292          0.0000000000000000     
   13.035714285714292          0.0000000000000000     
   13.285714285714292          0.0000000000000000     
   13.535714285714292          0.0000000000000000     
   13.785714285714292          0.0000000000000000     
   14.035714285714292          0.0000000000000000     
   14.285714285714292          0.0000000000000000     
   14.535714285714292          0.0000000000000000     
   14.785714285714292          0.0000000000000000     
   15.035714285714292          0.0000000000000000     
   15.285714285714292          0.0000000000000000     
   15.535714285714292          0.0000000000000000     
   15.785714285714292          0.0000000000000000     
   16.035714285714292          0.0000000000000000     
   16.285714285714292          0.0000000000000000     
   16.535714285714292          0.0000000000000000     
   16.785714285714292          0.0000000000000000     
   17.035714285714292          0.0000000000000000     
   17.285714285714292          0.0000000000000000     
   17.535714285714292          0.0000000000000000     
   17.785714285714292          0.0000000000000000     
   18.035714285714292          0.0000000000000000     
   18.285714285714292          0.0000000000000000     
   18.535714285714292          0.0000000000000000     
   18.785714285714292          0.0000000000000000     
   19.035714285714292          0.0000000000000000     
   19.285714285714292          0.0000000000000000     
   19.535714285714292          0.0000000000000000     
   19.785714285714292          0.0000000000000000     
   20.035714285714292          0.0000000000000000     
   20.285714285714292          0.0000000000000000     
   20.535714285714292          0.0000000000000000     
   20.785714285714292          0.0000000000000000     
   21.035714285714292          0.0000000000000000     
   21.285714285714292          0.0000000000000000     
   21.535714285714292          0.0000000000000000     
   21.785714285714292          0.0000000000000000     
   22.035714285714292          0.0000000000000000     
   22.285714285714292          0.0000000000000000     
   22.535714285714292          0.0000000000000000     
   22.785714285714292          0.0000000000000000     
   23.035714285714292          0.0000000000000000     
   23.285714285714292          0.0000000000000000     
   23.535714285714292          0.0000000000000000     
   23.785714285714292          0.0000000000000000     
   24.035714285714292          0.0000000000000000     
   24.285714285714292          0.0000000000000000     
   24.535714285714292          0.0000000000000000     
   24.785714285714292          0.0000000000000000     
   25.035714285714292          0.0000000000000000     
   25.285714285714292          0.0000000000000000     
   25.535714285714292          0.0000000000000000     
   25.785714285714292          0.0000000000000000     
   26.035714285714292          0.0000000000000000     
   26.285714285714292          0.0000000000000000     
   26.535714285714292          0.0000000000000000     
   26.785714285714292          0.0000000000000000     
   27.035714285714292          0.0000000000000000     
   27.285714285714292          0.0000000000000000     
   27.535714285714292          0.0000000000000000     
   27.785714285714292          0.0000000000000000     
   28.035714285714292          0.0000000000000000     
   28.285714285714292          0.0000000000000000     
   28.535714285714292          0.0000000000000000     
   28.785714285714292          0.0000000000000000     
   29.035714285714292          0.0000000000000000     
   29.285714285714292          0.0000000000000000     
   29.535714285714292          0.0000000000000000     
   29.785714285714292          0.0000000000000000     
   30.035714285714292          0.0000000000000000     
   30.285714285714292          0.0000000000000000     
   30.535714285714292          0.0000000000000000     
   30.785714285714292          0.0000000000000000     
   31.035714285714292          0.0000000000000000     
   31.285714285714292          0.0000000000000000     
   31.535714285714292          0.0000000000000000     
   31.785714285714292          0.0000000000000000     
   32.035714285714292          0.0000000000000000     
   32.285714285714292          0.0000000000000000     
   32.535714285714292          0.0000000000000000     
   32.785714285714292          0.0000000000000000     
   33.035714285714292          0.0000000000000000     
   33.285714285714292          0.0000000000000000     
   33.535714285714292          0.0000000000000000     
   33.785714285714292          0.0000000000000000     
   34.035714285714292          0.0000000000000000     
   34.285714285714292          0.0000000000000000     
   34.535714285714292          0.0000000000000000     
   34.785714285714292          0.0000000000000000     
   35.035714285714292          0.0000000000000000     
   35.285714285714292          0.0000000000000000     
   35.535714285714292          0.0000000000000000     
   35.785714285714292          0.0000000000000000     
   36.035714285714292          0.0000000000000000     
   36.285714285714292          0.0000000000000000     
   36.535714285714292          0.0000000000000000     
   36.785714285714292          0.0000000000000000     
   37.035714285714292          0.0000000000000000     
   37.285714285714292          0.0000000000000000     
   37.535714285714292          0.0000000000000000     
   37.785714285714292          0.0000000000000000     
   38.035714285714292          0.0000000000000000     
   38.285714285714292          0.0000000000000000     
   38.535714285714292          0.0000000000000000     
   38.785714285714292          0.0000000000000000     
   39.035714285714292          0.0000000000000000     
   39.285714285714292          0.0000000000000000     
   39.535714285714292          0.0000000000000000     
   39.785714285714292          0.0000000000000000     
   40.035714285714292          0.0000000000000000     
   40.285714285714292          0.0000000000000000     
   40.535714285714292          0.0000000000000000     
   40.785714285714292          0.0000000000000000     
   41.035714285714292          0.0000000000000000     
   41.285714285714292          0.0000000000000000     
   41.535714285714292          0.0000000000000000     
   41.785714285714292          0.0000000000000000     
   42.035714285714292          0.0000000000000000     
   42.285714285714292          0.0000000000000000     
   42.535714285714292          0.0000000000000000     
   42.785714285714292          0.0000000000000000     
   43.035714285714292          0.0000000000000000     
   43.285714285714292          0.0000000000000000     
   43.535714285714292          0.0000000000000000     
   43.785714285714292          0.0000000000000000     
   44.035714285714292          0.0000000000000000     
   44.285714285714292          0.0000000000000000     
   44.535714285714292          0.0000000000000000     
   44.785714285714292          0.0000000000000000     
   45.035714285714292          0.0000000000000000     
   45.285714285714292          0.0000000000000000     
   45.535714285714292          0.0000000000000000     
   45.785714285714292          0.0000000000000000     
   46.035714285714292          0.0000000000000000     
   46.285714285714292          0.0000000000000000     
   46.535714285714292          0.0000000000000000     
   46.785714285714292          0.0000000000000000     
   47.035714285714292          0.0000000000000000     
   47.285714285714292          0.0000000000000000     
   47.535714285714292          0.0000000000000000     
   47.785714285714292          0.0000000000000000     
   48.035714285714292          0.0000000000000000     
   48.285714285714292          0.0000000000000000     
   48.535714285714292          0.0000000000000000     
   48.785714285714292          0.0000000000000000     
   49.035714285714292          0.0000000000000000     
   49.285714285714292          0.0000000000000000     
   49.535714285714292          0.0000000000000000     
   49.785714285714292          0.0000000000000000     
   50.035714285714292          0.0000000000000000     
   50.285714285714292          0.0000000000000000     