 -0.23999999999999999          0.0000000000000000     
 -0.23974999999999999          0.0000000000000000     
 -0.23949999999999999          0.0000000000000000     
 -0.23924999999999999          0.0000000000000000     
 -0.23899999999999999          0.0000000000000000     
 -0.23874999999999999          0.0000000000000000     
 -0.23849999999999999          0.0000000000000000     
 -0.23824999999999999          0.0000000000000000     
 -0.23799999999999999          0.0000000000000000     
 -0.23774999999999999          0.0000000000000000     
 -0.23749999999999999          0.0000000000000000     
 -0.23724999999999999          0.0000000000000000     
 -0.23699999999999999          0.0000000000000000     
 -0.23674999999999999          0.0000000000000000     
 -0.23649999999999999          0.0000000000000000     
 -0.23624999999999999          0.0000000000000000     
 -0.23599999999999999          0.0000000000000000     
 -0.23574999999999999          0.0000000000000000     
 -0.23549999999999999          0.0000000000000000     
 -0.23524999999999999          0.0000000000000000     
 -0.23499999999999999          0.0000000000000000     
 -0.23474999999999999          0.0000000000000000     
 -0.23449999999999999          0.0000000000000000     
 -0.23424999999999999          0.0000000000000000     
 -0.23399999999999999          0.0000000000000000     
 -0.23374999999999999          0.0000000000000000     
 -0.23349999999999999          0.0000000000000000     
 -0.23324999999999999          0.0000000000000000     
 -0.23299999999999998          0.0000000000000000     
 -0.23274999999999998          0.0000000000000000     
 -0.23249999999999998          0.0000000000000000     
 -0.23224999999999998          0.0000000000000000     
 -0.23199999999999998          0.0000000000000000     
 -0.23174999999999998          0.0000000000000000     
 -0.23149999999999998          0.0000000000000000     
 -0.23124999999999998          0.0000000000000000     
 -0.23099999999999998          0.0000000000000000     
 -0.23074999999999998          0.0000000000000000     
 -0.23049999999999998          0.0000000000000000     
 -0.23024999999999998          0.0000000000000000     
 -0.22999999999999998          0.0000000000000000     
 -0.22974999999999998          0.0000000000000000     
 -0.22949999999999998          0.0000000000000000     
 -0.22924999999999998          0.0000000000000000     
 -0.22899999999999998          0.0000000000000000     
 -0.22874999999999998          0.0000000000000000     
 -0.22849999999999998          0.0000000000000000     
 -0.22824999999999998          0.0000000000000000     
 -0.22799999999999998          0.0000000000000000     
 -0.22774999999999998          0.0000000000000000     
 -0.22749999999999998          0.0000000000000000     
 -0.22724999999999998          0.0000000000000000     
 -0.22699999999999998          0.0000000000000000     
 -0.22674999999999998          0.0000000000000000     
 -0.22649999999999998          0.0000000000000000     
 -0.22624999999999998          0.0000000000000000     
 -0.22599999999999998          0.0000000000000000     
 -0.22574999999999998          0.0000000000000000     
 -0.22549999999999998          0.0000000000000000     
 -0.22524999999999998          0.0000000000000000     
 -0.22499999999999998          0.0000000000000000     
 -0.22475000000000001          0.0000000000000000     
 -0.22449999999999998          0.0000000000000000     
 -0.22425000000000000          0.0000000000000000     
 -0.22399999999999998          0.0000000000000000     
 -0.22375000000000000          0.0000000000000000     
 -0.22349999999999998          0.0000000000000000     
 -0.22325000000000000          0.0000000000000000     
 -0.22299999999999998          0.0000000000000000     
 -0.22275000000000000          0.0000000000000000     
 -0.22249999999999998          0.0000000000000000     
 -0.22225000000000000          0.0000000000000000     
 -0.22199999999999998          0.0000000000000000     
 -0.22175000000000000          0.0000000000000000     
 -0.22150000000000000          0.0000000000000000     
 -0.22125000000000000          0.0000000000000000     
 -0.22100000000000000          0.0000000000000000     
 -0.22075000000000000          0.0000000000000000     
 -0.22050000000000000          0.0000000000000000     
 -0.22025000000000000          0.0000000000000000     
 -0.22000000000000000          0.0000000000000000     
 -0.21975000000000000          0.0000000000000000     
 -0.21950000000000000          0.0000000000000000     
 -0.21925000000000000          0.0000000000000000     
 -0.21900000000000000          0.0000000000000000     
 -0.21875000000000000          0.0000000000000000     
 -0.21850000000000000          0.0000000000000000     
 -0.21825000000000000          0.0000000000000000     
 -0.21800000000000000          0.0000000000000000     
 -0.21775000000000000          0.0000000000000000     
 -0.21750000000000000          0.0000000000000000     
 -0.21725000000000000          0.0000000000000000     
 -0.21700000000000000          0.0000000000000000     
 -0.21675000000000000          0.0000000000000000     
 -0.21650000000000000          0.0000000000000000     
 -0.21625000000000000          0.0000000000000000     
 -0.21600000000000000          0.0000000000000000     
 -0.21575000000000000          0.0000000000000000     
 -0.21550000000000000          0.0000000000000000     
 -0.21525000000000000          0.0000000000000000     
 -0.21500000000000000          0.0000000000000000     
 -0.21475000000000000          0.0000000000000000     
 -0.21450000000000000          0.0000000000000000     
 -0.21425000000000000          0.0000000000000000     
 -0.21400000000000000          0.0000000000000000     
 -0.21375000000000000          0.0000000000000000     
 -0.21350000000000000          0.0000000000000000     
 -0.21325000000000000          0.0000000000000000     
 -0.21299999999999999          0.0000000000000000     
 -0.21274999999999999          0.0000000000000000     
 -0.21249999999999999          0.0000000000000000     
 -0.21224999999999999          0.0000000000000000     
 -0.21199999999999999          0.0000000000000000     
 -0.21174999999999999          0.0000000000000000     
 -0.21149999999999999          0.0000000000000000     
 -0.21124999999999999          0.0000000000000000     
 -0.21099999999999999          0.0000000000000000     
 -0.21074999999999999          0.0000000000000000     
 -0.21049999999999999          0.0000000000000000     
 -0.21024999999999999          0.0000000000000000     
 -0.20999999999999999          0.0000000000000000     
 -0.20974999999999999          0.0000000000000000     
 -0.20949999999999999          0.0000000000000000     
 -0.20924999999999999          0.0000000000000000     
 -0.20899999999999999          0.0000000000000000     
 -0.20874999999999999          0.0000000000000000     
 -0.20849999999999999          0.0000000000000000     
 -0.20824999999999999          0.0000000000000000     
 -0.20799999999999999          0.0000000000000000     
 -0.20774999999999999          0.0000000000000000     
 -0.20749999999999999          0.0000000000000000     
 -0.20724999999999999          0.0000000000000000     
 -0.20699999999999999          0.0000000000000000     
 -0.20674999999999999          0.0000000000000000     
 -0.20649999999999999          0.0000000000000000     
 -0.20624999999999999          0.0000000000000000     
 -0.20599999999999999          0.0000000000000000     
 -0.20574999999999999          0.0000000000000000     
 -0.20549999999999999          0.0000000000000000     
 -0.20524999999999999          0.0000000000000000     
 -0.20499999999999999          0.0000000000000000     
 -0.20474999999999999          0.0000000000000000     
 -0.20449999999999999          0.0000000000000000     
 -0.20424999999999999          0.0000000000000000     
 -0.20399999999999999          0.0000000000000000     
 -0.20374999999999999          0.0000000000000000     
 -0.20349999999999999          0.0000000000000000     
 -0.20324999999999999          0.0000000000000000     
 -0.20299999999999999          0.0000000000000000     
 -0.20274999999999999          0.0000000000000000     
 -0.20249999999999999          0.0000000000000000     
 -0.20224999999999999          0.0000000000000000     
 -0.20199999999999999          0.0000000000000000     
 -0.20174999999999998          0.0000000000000000     
 -0.20149999999999998          0.0000000000000000     
 -0.20124999999999998          0.0000000000000000     
 -0.20099999999999998          0.0000000000000000     
 -0.20074999999999998          0.0000000000000000     
 -0.20049999999999998          0.0000000000000000     
 -0.20024999999999998          0.0000000000000000     
 -0.19999999999999998          0.0000000000000000     
 -0.19974999999999998          0.0000000000000000     
 -0.19949999999999998          0.0000000000000000     
 -0.19924999999999998          0.0000000000000000     
 -0.19899999999999998          0.0000000000000000     
 -0.19874999999999998          0.0000000000000000     
 -0.19849999999999998          0.0000000000000000     
 -0.19824999999999998          0.0000000000000000     
 -0.19799999999999998          0.0000000000000000     
 -0.19774999999999998          0.0000000000000000     
 -0.19749999999999998          0.0000000000000000     
 -0.19724999999999998          0.0000000000000000     
 -0.19699999999999998          0.0000000000000000     
 -0.19674999999999998          0.0000000000000000     
 -0.19649999999999998          0.0000000000000000     
 -0.19624999999999998          0.0000000000000000     
 -0.19600000000000001          0.0000000000000000     
 -0.19574999999999998          0.0000000000000000     
 -0.19550000000000001          0.0000000000000000     
 -0.19524999999999998          0.0000000000000000     
 -0.19500000000000001          0.0000000000000000     
 -0.19474999999999998          0.0000000000000000     
 -0.19450000000000001          0.0000000000000000     
 -0.19424999999999998          0.0000000000000000     
 -0.19400000000000001          0.0000000000000000     
 -0.19374999999999998          0.0000000000000000     
 -0.19350000000000001          0.0000000000000000     
 -0.19324999999999998          0.0000000000000000     
 -0.19300000000000000          0.0000000000000000     
 -0.19274999999999998          0.0000000000000000     
 -0.19250000000000000          0.0000000000000000     
 -0.19224999999999998          0.0000000000000000     
 -0.19200000000000000          0.0000000000000000     
 -0.19174999999999998          0.0000000000000000     
 -0.19150000000000000          0.0000000000000000     
 -0.19124999999999998          0.0000000000000000     
 -0.19100000000000000          0.0000000000000000     
 -0.19074999999999998          0.0000000000000000     
 -0.19050000000000000          0.0000000000000000     
 -0.19024999999999997          0.0000000000000000     
 -0.19000000000000000          0.0000000000000000     
 -0.18974999999999997          0.0000000000000000     
 -0.18950000000000000          0.0000000000000000     
 -0.18924999999999997          0.0000000000000000     
 -0.18900000000000000          0.0000000000000000     
 -0.18874999999999997          0.0000000000000000     
 -0.18850000000000000          0.0000000000000000     
 -0.18824999999999997          0.0000000000000000     
 -0.18800000000000000          0.0000000000000000     
 -0.18775000000000000          0.0000000000000000     
 -0.18750000000000000          0.0000000000000000     
 -0.18725000000000000          0.0000000000000000     
 -0.18700000000000000          0.0000000000000000     
 -0.18675000000000000          0.0000000000000000     
 -0.18650000000000000          0.0000000000000000     
 -0.18625000000000000          0.0000000000000000     
 -0.18600000000000000          0.0000000000000000     
 -0.18575000000000000          0.0000000000000000     
 -0.18550000000000000          0.0000000000000000     
 -0.18525000000000000          0.0000000000000000     
 -0.18500000000000000          0.0000000000000000     
 -0.18475000000000000          0.0000000000000000     
 -0.18450000000000000          0.0000000000000000     
 -0.18425000000000000          0.0000000000000000     
 -0.18400000000000000          0.0000000000000000     
 -0.18375000000000000          0.0000000000000000     
 -0.18350000000000000          0.0000000000000000     
 -0.18325000000000000          0.0000000000000000     
 -0.18300000000000000          0.0000000000000000     
 -0.18275000000000000          0.0000000000000000     
 -0.18250000000000000          0.0000000000000000     
 -0.18225000000000000          0.0000000000000000     
 -0.18200000000000000          0.0000000000000000     
 -0.18174999999999999          0.0000000000000000     
 -0.18149999999999999          0.0000000000000000     
 -0.18124999999999999          0.0000000000000000     
 -0.18099999999999999          0.0000000000000000     
 -0.18074999999999999          0.0000000000000000     
 -0.18049999999999999          0.0000000000000000     
 -0.18024999999999999          0.0000000000000000     
 -0.17999999999999999          0.0000000000000000     
 -0.17974999999999999          0.0000000000000000     
 -0.17949999999999999          0.0000000000000000     
 -0.17924999999999999          0.0000000000000000     
 -0.17899999999999999          0.0000000000000000     
 -0.17874999999999999          0.0000000000000000     
 -0.17849999999999999          0.0000000000000000     
 -0.17824999999999999          0.0000000000000000     
 -0.17799999999999999          0.0000000000000000     
 -0.17774999999999999          0.0000000000000000     
 -0.17749999999999999          0.0000000000000000     
 -0.17724999999999999          0.0000000000000000     
 -0.17699999999999999          0.0000000000000000     
 -0.17674999999999999          0.0000000000000000     
 -0.17649999999999999          0.0000000000000000     
 -0.17624999999999999          0.0000000000000000     
 -0.17599999999999999          0.0000000000000000     
 -0.17574999999999999          0.0000000000000000     
 -0.17549999999999999          0.0000000000000000     
 -0.17524999999999999          0.0000000000000000     
 -0.17499999999999999          0.0000000000000000     
 -0.17474999999999999          0.0000000000000000     
 -0.17449999999999999          0.0000000000000000     
 -0.17424999999999999          0.0000000000000000     
 -0.17399999999999999          0.0000000000000000     
 -0.17374999999999999          0.0000000000000000     
 -0.17349999999999999          0.0000000000000000     
 -0.17324999999999999          0.0000000000000000     
 -0.17299999999999999          0.0000000000000000     
 -0.17274999999999999          0.0000000000000000     
 -0.17249999999999999          0.0000000000000000     
 -0.17224999999999999          0.0000000000000000     
 -0.17199999999999999          0.0000000000000000     
 -0.17174999999999999          0.0000000000000000     
 -0.17149999999999999          0.0000000000000000     
 -0.17124999999999999          0.0000000000000000     
 -0.17099999999999999          0.0000000000000000     
 -0.17074999999999999          0.0000000000000000     
 -0.17049999999999998          0.0000000000000000     
 -0.17024999999999998          0.0000000000000000     
 -0.16999999999999998          0.0000000000000000     
 -0.16974999999999998          0.0000000000000000     
 -0.16949999999999998          0.0000000000000000     
 -0.16924999999999998          0.0000000000000000     
 -0.16899999999999998          0.0000000000000000     
 -0.16874999999999998          0.0000000000000000     
 -0.16849999999999998          0.0000000000000000     
 -0.16824999999999998          0.0000000000000000     
 -0.16799999999999998          0.0000000000000000     
 -0.16775000000000001          0.0000000000000000     
 -0.16749999999999998          0.0000000000000000     
 -0.16725000000000001          0.0000000000000000     
 -0.16699999999999998          0.0000000000000000     
 -0.16675000000000001          0.0000000000000000     
 -0.16649999999999998          0.0000000000000000     
 -0.16625000000000001          0.0000000000000000     
 -0.16599999999999998          0.0000000000000000     
 -0.16575000000000001          0.0000000000000000     
 -0.16549999999999998          0.0000000000000000     
 -0.16525000000000001          0.0000000000000000     
 -0.16499999999999998          0.0000000000000000     
 -0.16475000000000001          0.0000000000000000     
 -0.16449999999999998          0.0000000000000000     
 -0.16425000000000001          0.0000000000000000     
 -0.16399999999999998          0.0000000000000000     
 -0.16375000000000001          0.0000000000000000     
 -0.16349999999999998          0.0000000000000000     
 -0.16325000000000001          0.0000000000000000     
 -0.16299999999999998          0.0000000000000000     
 -0.16275000000000001          0.0000000000000000     
 -0.16249999999999998          0.0000000000000000     
 -0.16225000000000001          0.0000000000000000     
 -0.16199999999999998          0.0000000000000000     
 -0.16175000000000000          0.0000000000000000     
 -0.16149999999999998          0.0000000000000000     
 -0.16125000000000000          0.0000000000000000     
 -0.16099999999999998          0.0000000000000000     
 -0.16075000000000000          0.0000000000000000     
 -0.16049999999999998          0.0000000000000000     
 -0.16025000000000000          0.0000000000000000     
 -0.15999999999999998          0.0000000000000000     
 -0.15975000000000000          0.0000000000000000     
 -0.15949999999999998          0.0000000000000000     
 -0.15925000000000000          0.0000000000000000     
 -0.15899999999999997          0.0000000000000000     
 -0.15875000000000000          0.0000000000000000     
 -0.15849999999999997          0.0000000000000000     
 -0.15825000000000000          0.0000000000000000     
 -0.15799999999999997          0.0000000000000000     
 -0.15775000000000000          0.0000000000000000     
 -0.15749999999999997          0.0000000000000000     
 -0.15725000000000000          0.0000000000000000     
 -0.15699999999999997          0.0000000000000000     
 -0.15675000000000000          0.0000000000000000     
 -0.15649999999999997          0.0000000000000000     
 -0.15625000000000000          0.0000000000000000     
 -0.15599999999999997          0.0000000000000000     
 -0.15575000000000000          0.0000000000000000     
 -0.15549999999999997          0.0000000000000000     
 -0.15525000000000000          0.0000000000000000     
 -0.15499999999999997          0.0000000000000000     
 -0.15475000000000000          0.0000000000000000     
 -0.15449999999999997          0.0000000000000000     
 -0.15425000000000000          0.0000000000000000     
 -0.15399999999999997          0.0000000000000000     
 -0.15375000000000000          0.0000000000000000     
 -0.15349999999999997          0.0000000000000000     
 -0.15325000000000000          0.0000000000000000     
 -0.15299999999999997          0.0000000000000000     
 -0.15275000000000000          0.0000000000000000     
 -0.15249999999999997          0.0000000000000000     
 -0.15225000000000000          0.0000000000000000     
 -0.15200000000000000          0.0000000000000000     
 -0.15175000000000000          0.0000000000000000     
 -0.15150000000000000          0.0000000000000000     
 -0.15125000000000000          0.0000000000000000     
 -0.15100000000000000          0.0000000000000000     
 -0.15075000000000000          0.0000000000000000     
 -0.15049999999999999          0.0000000000000000     
 -0.15024999999999999          0.0000000000000000     
 -0.14999999999999999          0.0000000000000000     
 -0.14974999999999999          0.0000000000000000     
 -0.14949999999999999          0.0000000000000000     
 -0.14924999999999999          0.0000000000000000     
 -0.14899999999999999          0.0000000000000000     
 -0.14874999999999999          0.0000000000000000     
 -0.14849999999999999          0.0000000000000000     
 -0.14824999999999999          0.0000000000000000     
 -0.14799999999999999          0.0000000000000000     
 -0.14774999999999999          0.0000000000000000     
 -0.14749999999999999          0.0000000000000000     
 -0.14724999999999999          0.0000000000000000     
 -0.14699999999999999          0.0000000000000000     
 -0.14674999999999999          0.0000000000000000     
 -0.14649999999999999          0.0000000000000000     
 -0.14624999999999999          0.0000000000000000     
 -0.14599999999999999          0.0000000000000000     
 -0.14574999999999999          0.0000000000000000     
 -0.14549999999999999          0.0000000000000000     
 -0.14524999999999999          0.0000000000000000     
 -0.14499999999999999          0.0000000000000000     
 -0.14474999999999999          0.0000000000000000     
 -0.14449999999999999          0.0000000000000000     
 -0.14424999999999999          0.0000000000000000     
 -0.14399999999999999          0.0000000000000000     
 -0.14374999999999999          0.0000000000000000     
 -0.14349999999999999          0.0000000000000000     
 -0.14324999999999999          0.0000000000000000     
 -0.14299999999999999          0.0000000000000000     
 -0.14274999999999999          0.0000000000000000     
 -0.14249999999999999          0.0000000000000000     
 -0.14224999999999999          0.0000000000000000     
 -0.14199999999999999          0.0000000000000000     
 -0.14174999999999999          0.0000000000000000     
 -0.14149999999999999          0.0000000000000000     
 -0.14124999999999999          0.0000000000000000     
 -0.14099999999999999          0.0000000000000000     
 -0.14074999999999999          0.0000000000000000     
 -0.14049999999999999          0.0000000000000000     
 -0.14024999999999999          0.0000000000000000     
 -0.13999999999999999          0.0000000000000000     
 -0.13974999999999999          0.0000000000000000     
 -0.13949999999999999          0.0000000000000000     
 -0.13924999999999998          0.0000000000000000     
 -0.13899999999999998          0.0000000000000000     
 -0.13874999999999998          0.0000000000000000     
 -0.13849999999999998          0.0000000000000000     
 -0.13824999999999998          0.0000000000000000     
 -0.13799999999999998          0.0000000000000000     
 -0.13774999999999998          0.0000000000000000     
 -0.13749999999999998          0.0000000000000000     
 -0.13724999999999998          0.0000000000000000     
 -0.13699999999999998          0.0000000000000000     
 -0.13674999999999998          0.0000000000000000     
 -0.13649999999999998          0.0000000000000000     
 -0.13624999999999998          0.0000000000000000     
 -0.13599999999999998          0.0000000000000000     
 -0.13574999999999998          0.0000000000000000     
 -0.13550000000000001          0.0000000000000000     
 -0.13524999999999998          0.0000000000000000     
 -0.13500000000000001          0.0000000000000000     
 -0.13474999999999998          0.0000000000000000     
 -0.13450000000000001          0.0000000000000000     
 -0.13424999999999998          0.0000000000000000     
 -0.13400000000000001          0.0000000000000000     
 -0.13374999999999998          0.0000000000000000     
 -0.13350000000000001          0.0000000000000000     
 -0.13324999999999998          0.0000000000000000     
 -0.13300000000000001          0.0000000000000000     
 -0.13274999999999998          0.0000000000000000     
 -0.13250000000000001          0.0000000000000000     
 -0.13224999999999998          0.0000000000000000     
 -0.13200000000000001          0.0000000000000000     
 -0.13174999999999998          0.0000000000000000     
 -0.13150000000000001          0.0000000000000000     
 -0.13124999999999998          0.0000000000000000     
 -0.13100000000000001          0.0000000000000000     
 -0.13074999999999998          0.0000000000000000     
 -0.13050000000000000          0.0000000000000000     
 -0.13024999999999998          0.0000000000000000     
 -0.13000000000000000          0.0000000000000000     
 -0.12974999999999998          0.0000000000000000     
 -0.12950000000000000          0.0000000000000000     
 -0.12924999999999998          0.0000000000000000     
 -0.12900000000000000          0.0000000000000000     
 -0.12874999999999998          0.0000000000000000     
 -0.12850000000000000          0.0000000000000000     
 -0.12824999999999998          0.0000000000000000     
 -0.12800000000000000          0.0000000000000000     
 -0.12774999999999997          0.0000000000000000     
 -0.12750000000000000          0.0000000000000000     
 -0.12724999999999997          0.0000000000000000     
 -0.12700000000000000          0.0000000000000000     
 -0.12674999999999997          0.0000000000000000     
 -0.12650000000000000          0.0000000000000000     
 -0.12624999999999997          0.0000000000000000     
 -0.12600000000000000          0.0000000000000000     
 -0.12574999999999997          0.0000000000000000     
 -0.12550000000000000          0.0000000000000000     
 -0.12524999999999997          0.0000000000000000     
 -0.12499999999999999          0.0000000000000000     
 -0.12474999999999999          0.0000000000000000     
 -0.12449999999999999          0.0000000000000000     
 -0.12424999999999999          0.0000000000000000     
 -0.12399999999999999          0.0000000000000000     
 -0.12374999999999999          0.0000000000000000     
 -0.12349999999999998          0.0000000000000000     
 -0.12324999999999998          0.0000000000000000     
 -0.12299999999999998          0.0000000000000000     
 -0.12274999999999998          0.0000000000000000     
 -0.12249999999999998          0.0000000000000000     
 -0.12224999999999998          0.0000000000000000     
 -0.12199999999999998          0.0000000000000000     
 -0.12174999999999998          0.0000000000000000     
 -0.12149999999999998          0.0000000000000000     
 -0.12124999999999998          0.0000000000000000     
 -0.12099999999999998          0.0000000000000000     
 -0.12074999999999998          0.0000000000000000     
 -0.12049999999999998          0.0000000000000000     
 -0.12024999999999998          0.0000000000000000     
 -0.12000000000000000          0.0000000000000000     
 -0.11975000000000000          0.0000000000000000     
 -0.11950000000000000          0.0000000000000000     
 -0.11924999999999999          0.0000000000000000     
 -0.11899999999999999          0.0000000000000000     
 -0.11874999999999999          0.0000000000000000     
 -0.11849999999999999          0.0000000000000000     
 -0.11824999999999999          0.0000000000000000     
 -0.11799999999999999          0.0000000000000000     
 -0.11774999999999999          0.0000000000000000     
 -0.11749999999999999          0.0000000000000000     
 -0.11724999999999999          0.0000000000000000     
 -0.11699999999999999          0.0000000000000000     
 -0.11674999999999999          0.0000000000000000     
 -0.11649999999999999          0.0000000000000000     
 -0.11624999999999999          0.0000000000000000     
 -0.11599999999999999          0.0000000000000000     
 -0.11574999999999999          0.0000000000000000     
 -0.11549999999999999          0.0000000000000000     
 -0.11524999999999999          0.0000000000000000     
 -0.11499999999999999          0.0000000000000000     
 -0.11474999999999999          0.0000000000000000     
 -0.11449999999999999          0.0000000000000000     
 -0.11424999999999999          0.0000000000000000     
 -0.11399999999999999          0.0000000000000000     
 -0.11374999999999999          0.0000000000000000     
 -0.11349999999999999          0.0000000000000000     
 -0.11324999999999999          0.0000000000000000     
 -0.11299999999999999          0.0000000000000000     
 -0.11274999999999999          0.0000000000000000     
 -0.11249999999999999          0.0000000000000000     
 -0.11224999999999999          0.0000000000000000     
 -0.11199999999999999          0.0000000000000000     
 -0.11174999999999999          0.0000000000000000     
 -0.11149999999999999          0.0000000000000000     
 -0.11124999999999999          0.0000000000000000     
 -0.11099999999999999          0.0000000000000000     
 -0.11074999999999999          0.0000000000000000     
 -0.11049999999999999          0.0000000000000000     
 -0.11024999999999999          0.0000000000000000     
 -0.10999999999999999          0.0000000000000000     
 -0.10974999999999999          0.0000000000000000     
 -0.10949999999999999          0.0000000000000000     
 -0.10924999999999999          0.0000000000000000     
 -0.10899999999999999          0.0000000000000000     
 -0.10874999999999999          0.0000000000000000     
 -0.10849999999999999          0.0000000000000000     
 -0.10824999999999999          0.0000000000000000     
 -0.10799999999999998          0.0000000000000000     
 -0.10774999999999998          0.0000000000000000     
 -0.10749999999999998          0.0000000000000000     
 -0.10724999999999998          0.0000000000000000     
 -0.10699999999999998          0.0000000000000000     
 -0.10674999999999998          0.0000000000000000     
 -0.10649999999999998          0.0000000000000000     
 -0.10624999999999998          0.0000000000000000     
 -0.10599999999999998          0.0000000000000000     
 -0.10574999999999998          0.0000000000000000     
 -0.10549999999999998          0.0000000000000000     
 -0.10524999999999998          0.0000000000000000     
 -0.10499999999999998          0.0000000000000000     
 -0.10474999999999998          0.0000000000000000     
 -0.10449999999999998          0.0000000000000000     
 -0.10424999999999998          0.0000000000000000     
 -0.10399999999999998          0.0000000000000000     