 -0.23999999999999999          0.0000000000000000     
 -0.23974999999999999          0.0000000000000000     
 -0.23949999999999999          0.0000000000000000     
 -0.23924999999999999          0.0000000000000000     
 -0.23899999999999999          0.0000000000000000     
 -0.23874999999999999          0.0000000000000000     
 -0.23849999999999999          0.0000000000000000     
 -0.23824999999999999          0.0000000000000000     
 -0.23799999999999999          0.0000000000000000     
 -0.23774999999999999          0.0000000000000000     
 -0.23749999999999999          0.0000000000000000     
 -0.23724999999999999          0.0000000000000000     
 -0.23699999999999999          0.0000000000000000     
 -0.23674999999999999          7.2385371943772811E-040
 -0.23649999999999999          3.2374825551275712E-039
 -0.23624999999999999          4.8380859449075664E-038
 -0.23599999999999999          1.7093351746751289E-037
 -0.23574999999999999          5.4789114433822989E-037
 -0.23549999999999999          1.6195667179554684E-036
 -0.23524999999999999          4.4640875039901122E-036
 -0.23499999999999999          1.1574489931699839E-035
 -0.23474999999999999          2.8430849447275168E-035
 -0.23449999999999999          6.6548199273736165E-035
 -0.23424999999999999          1.4916346660671581E-034
 -0.23399999999999999          3.2148545792703512E-034
 -0.23374999999999999          6.6859605463216331E-034
 -0.23349999999999999          1.3458260997418491E-033
 -0.23324999999999999          2.6289504901194443E-033
 -0.23299999999999998          4.9951201776162110E-033
 -0.23274999999999998          9.2504141368172241E-033
 -0.23249999999999998          1.6726615994693812E-032
 -0.23224999999999998          2.9578801412465582E-032
 -0.23199999999999998          5.1226938163114638E-032
 -0.23174999999999998          8.6999663417744399E-032
 -0.23149999999999998          1.4505697287573020E-031
 -0.23124999999999998          2.3769156353191110E-031
 -0.23099999999999998          3.8313577698734541E-031
 -0.23074999999999998          6.0803382098304351E-031
 -0.23049999999999998          9.5077526443353748E-031
 -0.23024999999999998          1.4659277704743153E-030
 -0.22999999999999998          2.2300508049373431E-030
 -0.22974999999999998          3.3492194658250016E-030
 -0.22949999999999998          4.9686316264635294E-030
 -0.22924999999999998          7.2847139627133439E-030
 -0.22899999999999998          1.0560174535309948E-029
 -0.22874999999999998          1.5142474093503897E-029
 -0.22849999999999998          2.1486162865158482E-029
 -0.22824999999999998          3.0179547139023167E-029
 -0.22799999999999998          4.1975990137148171E-029
 -0.22774999999999998          5.7830132707286639E-029
 -0.22749999999999998          7.8939032869496136E-029
 -0.22724999999999998          1.0678799377189330E-028
 -0.22699999999999998          1.4320048161132523E-028
 -0.22674999999999998          1.9039104670470221E-028
 -0.22649999999999998          2.5101958950511682E-028
 -0.22624999999999998          3.2824439228828522E-028
 -0.22599999999999998          4.2577078050701820E-028
 -0.22574999999999998          5.4789085661404724E-028
 -0.22549999999999998          6.9950846351245731E-028
 -0.22524999999999998          8.8614277618312780E-028
 -0.22499999999999998          1.1139016588420486E-027
 -0.22475000000000001          1.3894138985639130E-027
 -0.22449999999999998          1.7197092389681344E-027
 -0.22425000000000000          2.1120307249705923E-027
 -0.22399999999999998          2.5735653401952739E-027
 -0.22375000000000000          3.1110727389121886E-027
 -0.22349999999999998          3.7303943148197919E-027
 -0.22325000000000000          4.4358209963618186E-027
 -0.22299999999999998          5.2292974507145112E-027
 -0.22275000000000000          6.1094417459632006E-027
 -0.22249999999999998          7.0703551316067738E-027
 -0.22225000000000000          8.1002043167663006E-027
 -0.22199999999999998          9.1795555403730363E-027
 -0.22175000000000000          1.0279442476474116E-026
 -0.22150000000000000          1.1359163545455061E-026
 -0.22125000000000000          1.2363799155403534E-026
 -0.22100000000000000          1.3221458928558055E-026
 -0.22075000000000000          1.3840261743243063E-026
 -0.22050000000000000          1.4105097750389711E-026
 -0.22025000000000000          1.3874201279208760E-026
 -0.22000000000000000          1.2975586490667307E-026
 -0.21975000000000000          1.1203467286158466E-026
 -0.21950000000000000          8.3147048692030626E-027
 -0.21925000000000000          4.0254618777363329E-027
 -0.21900000000000000         -1.9918177421728165E-027
 -0.21875000000000000         -1.0110899803589481E-026
 -0.21850000000000000         -2.0753533747343151E-026
 -0.21825000000000000         -3.4390275763694973E-026
 -0.21800000000000000         -5.1540062294550158E-026
 -0.21775000000000000         -7.2768320670137795E-026
 -0.21750000000000000         -9.8683226168310461E-026
 -0.21725000000000000         -1.2992988945778227E-025
 -0.21700000000000000         -1.6718200319010722E-025
 -0.21675000000000000         -2.1113082583910632E-025
 -0.21650000000000000         -2.6247087668956771E-025
 -0.21625000000000000         -3.2188236543141537E-025
 -0.21600000000000000         -3.9000988327777088E-025
 -0.21575000000000000         -4.6743711306363322E-025
 -0.21550000000000000         -5.5465765952566633E-025
 -0.21525000000000000         -6.5204132261794267E-025
 -0.21500000000000000         -7.5979703246562399E-025
 -0.21475000000000000         -8.7793051325425212E-025
 -0.21450000000000000         -1.0061998071187013E-024
 -0.21425000000000000         -1.1440664159694150E-024
 -0.21400000000000000         -1.2906441935758983E-024
 -0.21375000000000000         -1.4446466482744119E-024
 -0.21350000000000000         -1.6043332075954340E-024
 -0.21325000000000000         -1.7674562506826476E-024
 -0.21299999999999999         -1.9312102086410014E-024
 -0.21274999999999999         -2.0921842681748458E-024
 -0.21249999999999999         -2.2463214200313651E-024
 -0.21224999999999999         -2.3888847016686138E-024
 -0.21199999999999999         -2.5144349101670032E-024
 -0.21174999999999999         -2.6168202658215922E-024
 -0.21149999999999999         -2.6891833090648919E-024
 -0.21124999999999999         -2.7239851702756117E-024
 -0.21099999999999999         -2.7130524360433539E-024
 -0.21074999999999999         -2.6476468632197346E-024
 -0.21049999999999999         -2.5185645358295011E-024
 -0.21024999999999999         -2.3162616920834821E-024
 -0.20999999999999999         -2.0310150437350238E-024
 -0.20974999999999999         -1.6531124582776750E-024
 -0.20949999999999999         -1.1730807525086203E-024
 -0.20924999999999999         -5.8194573794900694E-025
 -0.20899999999999999          1.2847230378105564E-025
 -0.20874999999999999          9.6523143930721436E-025
 -0.20849999999999999          1.9339117984280219E-024
 -0.20824999999999999          3.0382324991104471E-024
 -0.20799999999999999          4.2796500283406559E-024
 -0.20774999999999999          5.6569442558864590E-024
 -0.20749999999999999          7.1658012258859706E-024
 -0.20724999999999999          8.7983989624732522E-024
 -0.20699999999999999          1.0543021057413618E-023
 -0.20674999999999999          1.2383695406347071E-023
 -0.20649999999999999          1.4299886760626271E-023
 -0.20624999999999999          1.6266260148167600E-023
 -0.20599999999999999          1.8252517444789171E-023
 -0.20574999999999999          2.0223362974347772E-023
 -0.20549999999999999          2.2138570743942807E-023
 -0.20524999999999999          2.3953222605952937E-023
 -0.20499999999999999          2.5618108789808048E-023
 -0.20474999999999999          2.7080319857595612E-023
 -0.20449999999999999          2.8284048605911826E-023
 -0.20424999999999999          2.9171649272537479E-023
 -0.20399999999999999          2.9684893447786048E-023
 -0.20374999999999999          2.9766538378537970E-023
 -0.20349999999999999          2.9362130187113166E-023
 -0.20324999999999999          2.8422079624851532E-023
 -0.20299999999999999          2.6904012657189729E-023
 -0.20274999999999999          2.4775359876644560E-023
 -0.20249999999999999          2.2016203971614747E-023
 -0.20224999999999999          1.8622288831642754E-023
 -0.20199999999999999          1.4608218791591814E-023
 -0.20174999999999998          1.0010758809932682E-023
 -0.20149999999999998          4.8921780371767753E-024
 -0.20124999999999998         -6.5646006378939238E-025
 -0.20099999999999998         -6.5120946772840604E-024
 -0.20074999999999998         -1.2516750122571194E-023
 -0.20049999999999998         -1.8474923153291551E-023
 -0.20024999999999998         -2.4151484717637839E-023
 -0.19999999999999998         -2.9270198393026274E-023
 -0.19974999999999998         -3.3513019196010003E-023
 -0.19949999999999998         -3.6520364312917413E-023
 -0.19924999999999998         -3.7892473081889086E-023
 -0.19899999999999998         -3.7192125168103902E-023
 -0.19874999999999998         -3.3948787460265208E-023
 -0.19849999999999998         -2.7664438590802000E-023
 -0.19824999999999998         -1.7821257296748494E-023
 -0.19799999999999998         -3.8912639205337241E-024
 -0.19774999999999998          1.4651864500636235E-023
 -0.19749999999999998          3.8318688511042984E-023
 -0.19724999999999998          6.7587555289099514E-023
 -0.19699999999999998          1.0288595134817792E-022
 -0.19674999999999998          1.4456879835955099E-022
 -0.19649999999999998          1.9289512353159307E-022
 -0.19624999999999998          2.4800170769376797E-022
 -0.19600000000000001          3.0987516737336594E-022
 -0.19574999999999998          3.7832199935620690E-022
 -0.19550000000000001          4.5293581334668389E-022
 -0.19524999999999998          5.3306558360296468E-022
 -0.19500000000000001          6.1778110569227483E-022
 -0.19474999999999998          7.0583867668702813E-022
 -0.19450000000000001          7.9564871031732432E-022
 -0.19424999999999998          8.8524240220557850E-022
 -0.19400000000000001          9.7224196088899941E-022
 -0.19374999999999998          1.0538338227609661E-021
 -0.19350000000000001          1.1267458873850953E-021
 -0.19324999999999998          1.1872298021501259E-021
 -0.19300000000000000          1.2310502540314913E-021
 -0.19274999999999998          1.2534824174640612E-021
 -0.19250000000000000          1.2493190432150221E-021
 -0.19224999999999998          1.2128865796424695E-021
 -0.19200000000000000          1.1380761978852341E-021
 -0.19174999999999998          1.0183865983104392E-021
 -0.19150000000000000          8.4698295558796650E-022
 -0.19124999999999998          6.1677201940192640E-022
 -0.19100000000000000          3.2049504700043302E-022
 -0.19074999999999998         -4.9160281445051537E-023
 -0.19050000000000000         -4.9942713710017198E-022
 -0.19024999999999997         -1.0373081101705736E-021
 -0.19000000000000000         -1.6693999215111680E-021
 -0.18974999999999997         -2.4016993524499844E-021
 -0.18950000000000000         -3.2393840158020897E-021
 -0.18924999999999997         -4.1865792997374160E-021
 -0.18900000000000000         -5.2460948094765337E-021
 -0.18874999999999997         -6.4191575285012835E-021
 -0.18850000000000000         -7.7051089687577003E-021
 -0.18824999999999997         -9.1011093872290681E-021
 -0.18800000000000000         -1.0601817784526739E-020
 -0.18775000000000000         -1.2199064897104518E-020
 -0.18750000000000000         -1.3881540586024623E-020
 -0.18725000000000000         -1.5634457345149275E-020
 -0.18700000000000000         -1.7439253191069032E-020
 -0.18675000000000000         -1.9273278960298206E-020
 -0.18650000000000000         -2.1109543967923531E-020
 -0.18625000000000000         -2.2916455063325938E-020
 -0.18600000000000000         -2.4657623565068688E-020
 -0.18575000000000000         -2.6291710119079753E-020
 -0.18550000000000000         -2.7772330201186418E-020
 -0.18525000000000000         -2.9048023113739239E-020
 -0.18500000000000000         -3.0062307167995963E-020
 -0.18475000000000000         -3.0753815159425434E-020
 -0.18450000000000000         -3.1056539191813718E-020
 -0.18425000000000000         -3.0900178925194809E-020
 -0.18400000000000000         -3.0210606537359791E-020
 -0.18375000000000000         -2.8910472330596148E-020
 -0.18350000000000000         -2.6919937107727213E-020
 -0.18325000000000000         -2.4157552620955192E-020
 -0.18300000000000000         -2.0541300991013376E-020
 -0.18275000000000000         -1.5989780867099694E-020
 -0.18250000000000000         -1.0423553949948386E-020
 -0.18225000000000000         -3.7666655576024799E-021
 -0.18200000000000000          4.0516926693967254E-021
 -0.18174999999999999          1.3095351251813903E-020
 -0.18149999999999999          2.3419186152428664E-020
 -0.18124999999999999          3.5066999313761636E-020
 -0.18099999999999999          4.8069286686335063E-020
 -0.18074999999999999          6.2440863519420263E-020
 -0.18049999999999999          7.8178452307711882E-020
 -0.18024999999999999          9.5258146071889954E-020
 -0.17999999999999999          1.1363286948662104E-019
 -0.17974999999999999          1.3322982963196117E-019
 -0.17949999999999999          1.5394798969535947E-019
 -0.17924999999999999          1.7565562390079740E-019
 -0.17899999999999999          1.9818803948536140E-019
 -0.17874999999999999          2.2134526600375955E-019
 -0.17849999999999999          2.4489030852878725E-019
 -0.17824999999999999          2.6854728880149580E-019
 -0.17799999999999999          2.9200021023704173E-019
 -0.17774999999999999          3.1489189918586813E-019
 -0.17749999999999999          3.3682364872771878E-019
 -0.17724999999999999          3.5735511777521525E-019
 -0.17699999999999999          3.7600498218486642E-019
 -0.17674999999999999          3.9225201153082690E-019
 -0.17649999999999999          4.0553728281883213E-019
 -0.17624999999999999          4.1526671292051449E-019
 -0.17599999999999999          4.2081451850039894E-019
 -0.17574999999999999          4.2152781661145693E-019
 -0.17549999999999999          4.1673174025310565E-019
 -0.17524999999999999          4.0573571724606960E-019
 -0.17499999999999999          3.8784094486407251E-019
 -0.17474999999999999          3.6234828398109983E-019
 -0.17449999999999999          3.2856781383038666E-019
 -0.17424999999999999          2.8582891796261725E-019
 -0.17399999999999999          2.3349163272531113E-019
 -0.17374999999999999          1.7095875012091889E-019
 -0.17349999999999999          9.7689016669100982E-020
 -0.17324999999999999          1.3211010422303107E-020
 -0.17299999999999999         -8.2862130374211246E-020
 -0.17274999999999999         -1.9081735630766719E-019
 -0.17249999999999999         -3.1082601742065171E-019
 -0.17224999999999999         -4.4292743562230782E-019
 -0.17199999999999999         -5.8701270506347605E-019
 -0.17174999999999999         -7.4280793862165918E-019
 -0.17149999999999999         -9.0985845202572652E-019
 -0.17124999999999999         -1.0875126615012560E-018
 -0.17099999999999999         -1.2749070884956702E-018
 -0.17074999999999999         -1.4709520255145776E-018
 -0.17049999999999998         -1.6743189167692715E-018
 -0.17024999999999998         -1.8834285642811470E-018
 -0.16999999999999998         -2.0964412079490720E-018
 -0.16974999999999998         -2.3112499267772397E-018
 -0.16949999999999998         -2.5254756276318259E-018
 -0.16924999999999998         -2.7364637677488438E-018
 -0.16899999999999998         -2.9412862451856686E-018
 -0.16874999999999998         -3.1367464034849818E-018
 -0.16849999999999998         -3.3193857094894390E-018
 -0.16824999999999998         -3.4854975406236828E-018
 -0.16799999999999998         -3.6311432093874237E-018
 -0.16775000000000001         -3.7521737325451575E-018
 -0.16749999999999998         -3.8442541124829274E-018
 -0.16725000000000001         -3.9028984692188518E-018
 -0.16699999999999998         -3.9235022912624967E-018
 -0.16675000000000001         -3.9013867062239188E-018
 -0.16649999999999998         -3.8318446196813556E-018
 -0.16625000000000001         -3.7101936343596297E-018
 -0.16599999999999998         -3.5318330105748792E-018
 -0.16575000000000001         -3.2923060680257207E-018
 -0.16549999999999998         -2.9873688803039691E-018
 -0.16525000000000001         -2.6130621190898697E-018
 -0.16499999999999998         -2.1657862010430918E-018
 -0.16475000000000001         -1.6423823772476374E-018
 -0.16449999999999998         -1.0402160367760785E-018
 -0.16425000000000001         -3.5726097435257018E-019
 -0.16399999999999998          4.0781211383048692E-019
 -0.16375000000000001          1.2555484183269267E-018
 -0.16349999999999998          2.1856204020725715E-018
 -0.16325000000000001          3.1967414451389490E-018
 -0.16299999999999998          4.2865809244676029E-018
 -0.16275000000000001          5.4516822559660655E-018
 -0.16249999999999998          6.6873891110387817E-018
 -0.16225000000000001          7.9877709892118960E-018
 -0.16199999999999998          9.3455633275391972E-018
 -0.16175000000000000          1.0752111194319272E-017
 -0.16149999999999998          1.2197325762863485E-017
 -0.16125000000000000          1.3669655149498185E-017
 -0.16099999999999998          1.5156058675175129E-017
 -0.16075000000000000          1.6642012058395291E-017
 -0.16049999999999998          1.8111509917022836E-017
 -0.16025000000000000          1.9547097051153109E-017
 -0.15999999999999998          2.0929927831728801E-017
 -0.15975000000000000          2.2239819425476674E-017
 -0.15949999999999998          2.3455345797639725E-017
 -0.15925000000000000          2.4553953656055676E-017
 -0.15899999999999997          2.5512100452919806E-017
 -0.15875000000000000          2.6305391607880903E-017
 -0.15849999999999997          2.6908792915154202E-017
 -0.15825000000000000          2.7296809046617142E-017
 -0.15799999999999997          2.7443729282405155E-017
 -0.15775000000000000          2.7323873628457955E-017
 -0.15749999999999997          2.6911876420342606E-017
 -0.15725000000000000          2.6182975804199909E-017
 -0.15699999999999997          2.5113340861370537E-017
 -0.15675000000000000          2.3680407689056566E-017
 -0.15649999999999997          2.1863230723589670E-017
 -0.15625000000000000          1.9642856195594319E-017
 -0.15599999999999997          1.7002709069349354E-017
 -0.15575000000000000          1.3928975816641541E-017
 -0.15549999999999997          1.0411008761607136E-017
 -0.15525000000000000          6.4417211113926795E-018
 -0.15499999999999997          2.0179886702189950E-018
 -0.15475000000000000         -2.8589641155941394E-018
 -0.15449999999999997         -8.1831813379813255E-018
 -0.15425000000000000         -1.3943618256906184E-017
 -0.15399999999999997         -2.0123788880463570E-017
 -0.15375000000000000         -2.6701462218015777E-017
 -0.15349999999999997         -3.3648371910976722E-017
 -0.15325000000000000         -4.0929971958039677E-017
 -0.15299999999999997         -4.8505247375677078E-017
 -0.15275000000000000         -5.6326543588363314E-017
 -0.15249999999999997         -6.4339486289769592E-017
 -0.15225000000000000         -7.2482941031797447E-017
 -0.15200000000000000         -8.0689053079408359E-017
 -0.15175000000000000         -8.8883316528719912E-017
 -0.15150000000000000         -9.6984801681603253E-017
 -0.15125000000000000         -1.0490636653714557E-016
 -0.15100000000000000         -1.1255504712831303E-016
 -0.15075000000000000         -1.1983243477680339E-016
 -0.15049999999999999         -1.2663525553890472E-016
 -0.15024999999999999         -1.3285593149971572E-016
 -0.14999999999999999         -1.3838330784203159E-016
 -0.14974999999999999         -1.4310344803615818E-016
 -0.14949999999999999         -1.4690052360635830E-016
 -0.14924999999999999         -1.4965783751936589E-016
 -0.14899999999999999         -1.5125880745303209E-016
 -0.14874999999999999         -1.5158820187449527E-016
 -0.14849999999999999         -1.5053332744690670E-016
 -0.14824999999999999         -1.4798536759845278E-016
 -0.14799999999999999         -1.4384070962463080E-016
 -0.14774999999999999         -1.3800241354038271E-016
 -0.14749999999999999         -1.3038171725422390E-016
 -0.14724999999999999         -1.2089941759671660E-016
 -0.14699999999999999         -1.0948757437530484E-016
 -0.14674999999999999         -9.6090927845305710E-017
 -0.14649999999999999         -8.0668483264424683E-017
 -0.14624999999999999         -6.3195022075999816E-017
 -0.14599999999999999         -4.3662617319716324E-017
 -0.14574999999999999         -2.2081999948546526E-017
 -0.14549999999999999          1.5160431046500740E-018
 -0.14524999999999999          2.7079414213395152E-017
 -0.14499999999999999          5.4533552107443767E-017
 -0.14474999999999999          8.3780418829341893E-017
 -0.14449999999999999          1.1469759872169686E-016
 -0.14424999999999999          1.4713761170412410E-016
 -0.14399999999999999          1.8092740059884114E-016
 -0.14374999999999999          2.1586799338469472E-016
 -0.14349999999999999          2.5173441274695404E-016
 -0.14324999999999999          2.8827583568456914E-016
 -0.14299999999999999          3.2521598478069812E-016
 -0.14274999999999999          3.6225384682906332E-016
 -0.14249999999999999          3.9906463395121049E-016
 -0.14224999999999999          4.3530090241834316E-016
 -0.14199999999999999          4.7059430281239329E-016
 -0.14174999999999999          5.0455733535471125E-016
 -0.14149999999999999          5.3678544058535434E-016
 -0.14124999999999999          5.6685975781640457E-016
 -0.14099999999999999          5.9434964548021942E-016
 -0.14074999999999999          6.1881593668430284E-016
 -0.14049999999999999          6.3981423229183121E-016
 -0.14024999999999999          6.5689878440897664E-016
 -0.13999999999999999          6.6962623668331980E-016
 -0.13974999999999999          6.7755997835241274E-016
 -0.13949999999999999          6.8027442325112870E-016
 -0.13924999999999998          6.7735990153472548E-016
 -0.13899999999999998          6.6842726742536498E-016
 -0.13874999999999998          6.5311277818017744E-016
 -0.13849999999999998          6.3108345982554722E-016
 -0.13824999999999998          6.0204185830472537E-016
 -0.13799999999999998          5.6573136535865568E-016
 -0.13774999999999998          5.2194130989463147E-016
 -0.13749999999999998          4.7051189480329890E-016
 -0.13724999999999998          4.1133901696365019E-016
 -0.13699999999999998          3.4437918364271771E-016
 -0.13674999999999998          2.6965382712159605E-016
 -0.13649999999999998          1.8725344378502952E-016
 -0.13624999999999998          9.7341450860592513E-017
 -0.13599999999999998          1.5755468809197916E-019
 -0.13574999999999998         -1.0397925778997750E-016
 -0.13550000000000001         -2.1466840060687320E-016
 -0.13524999999999998         -3.3142579169744828E-016
 -0.13500000000000001         -4.5368270420479726E-016
 -0.13474999999999998         -5.8078522388200176E-016
 -0.13450000000000001         -7.1199445453776374E-016
 -0.13424999999999998         -8.4648761654412729E-016
 -0.13400000000000001         -9.8335976528863445E-016
 -0.13374999999999998         -1.1216260227030244E-015
 -0.13350000000000001         -1.2602260665611116E-015
 -0.13324999999999998         -1.3980276363324649E-015
 -0.13300000000000001         -1.5338319923977421E-015
 -0.13274999999999998         -1.6663802418497597E-015
 -0.13250000000000001         -1.7943607696556730E-015
 -0.13224999999999998         -1.9164167649709327E-015
 -0.13200000000000001         -2.0311550885142157E-015
 -0.13174999999999998         -2.1371562460533156E-015
 -0.13150000000000001         -2.2329853979089787E-015
 -0.13124999999999998         -2.3172023685286993E-015
 -0.13100000000000001         -2.3883750899327812E-015
 -0.13074999999999998         -2.4450910939492371E-015
 -0.13050000000000000         -2.4859714669727319E-015
 -0.13024999999999998         -2.5096846520186743E-015
 -0.13000000000000000         -2.5149601329736393E-015
 -0.12974999999999998         -2.5006025208689973E-015
 -0.12950000000000000         -2.4655070486435657E-015
 -0.12924999999999998         -2.4086733004244276E-015
 -0.12900000000000000         -2.3292208291531486E-015
 -0.12874999999999998         -2.2264017599001686E-015
 -0.12850000000000000         -2.0996163267317882E-015
 -0.12824999999999998         -1.9484260010469162E-015
 -0.12800000000000000         -1.7725661942119392E-015
 -0.12774999999999997         -1.5719581527711951E-015
 -0.12750000000000000         -1.3467204950109492E-015
 -0.12724999999999997         -1.0971795737420574E-015
 -0.12700000000000000         -8.2387777147073205E-016
 -0.12674999999999997         -5.2758178067336118E-016
 -0.12650000000000000         -2.0928807794020832E-016
 -0.12624999999999997          1.2977234623223178E-016
 -0.12600000000000000          4.8813127772573913E-016
 -0.12574999999999997          8.6408232494137798E-016
 -0.12550000000000000          1.2556823412905771E-015
 -0.12524999999999997          1.6607540084825098E-015
 -0.12499999999999999          2.0768918126816500E-015
 -0.12474999999999999          2.5014691519035428E-015
 -0.12449999999999999          2.9316477872150633E-015
 -0.12424999999999999          3.3643901962857788E-015
 -0.12399999999999999          3.7964738569582605E-015
 -0.12374999999999999          4.2245078015298554E-015
 -0.12349999999999998          4.6449505737676689E-015
 -0.12324999999999998          5.0541328646474196E-015
 -0.12299999999999998          5.4482788440826665E-015
 -0.12274999999999998          5.8235324603148696E-015
 -0.12249999999999998          6.1759839021765389E-015
 -0.12224999999999998          6.5016986764115768E-015
 -0.12199999999999998          6.7967481089569549E-015
 -0.12174999999999998          7.0572408575109507E-015
 -0.12149999999999998          7.2793560996786630E-015
 -0.12124999999999998          7.4593775838866693E-015
 -0.12099999999999998          7.5937291070051367E-015
 -0.12074999999999998          7.6790098308642115E-015
 -0.12049999999999998          7.7120290221015761E-015
 -0.12024999999999998          7.6898427306778980E-015
 -0.12000000000000000          7.6097880292040367E-015
 -0.11975000000000000          7.4695194404071375E-015
 -0.11950000000000000          7.2670405074356969E-015
 -0.11924999999999999          7.0007373810149673E-015
 -0.11899999999999999          6.6694094079327582E-015
 -0.11874999999999999          6.2722976859140731E-015
 -0.11849999999999999          5.8091110364424377E-015
 -0.11824999999999999          5.2800520655842082E-015
 -0.11799999999999999          4.6858360187621088E-015
 -0.11774999999999999          4.0277091711369965E-015
 -0.11749999999999999          3.3074636399640647E-015
 -0.11724999999999999          2.5274474265872628E-015
 -0.11699999999999999          1.6905715132161501E-015
 -0.11674999999999999          8.0031197536372791E-016
 -0.11649999999999999         -1.3929216745805187E-016
 -0.11624999999999999         -1.1236453136255360E-015
 -0.11599999999999999         -2.1476069481674445E-015
 -0.11574999999999999         -3.2055076840193815E-015
 -0.11549999999999999         -4.2911702516433983E-015
 -0.11524999999999999         -5.3979348841769842E-015
 -0.11499999999999999         -6.5186914447745506E-015
 -0.11474999999999999         -7.6459143091155462E-015
 -0.11449999999999999         -8.7717029665568190E-015
 -0.11424999999999999         -9.8878265765109528E-015
 -0.11399999999999999         -1.0985772628054596E-014
 -0.11374999999999999         -1.2056804362688338E-014
 -0.11349999999999999         -1.3092013977853260E-014
 -0.11324999999999999         -1.4082382376263461E-014
 -0.11299999999999999         -1.5018850809605076E-014
 -0.11274999999999999         -1.5892380554641861E-014
 -0.11249999999999999         -1.6694026153204355E-014
 -0.11224999999999999         -1.7415005615580665E-014
 -0.11199999999999999         -1.8046773975208591E-014
 -0.11174999999999999         -1.8581094932936009E-014
 -0.11149999999999999         -1.9010117755151705E-014
 -0.11124999999999999         -1.9326451437810885E-014
 -0.11099999999999999         -1.9523229248019046E-014
 -0.11074999999999999         -1.9594193712841161E-014
 -0.11049999999999999         -1.9533756828917358E-014
 -0.11024999999999999         -1.9337069360169672E-014
 -0.10999999999999999         -1.9000079301221639E-014
 -0.10974999999999999         -1.8519601982182632E-014
 -0.10949999999999999         -1.7893363415701882E-014
 -0.10924999999999999         -1.7120057432199699E-014
 -0.10899999999999999         -1.6199386555874352E-014
 -0.10874999999999999         -1.5132099390987843E-014
 -0.10849999999999999         -1.3920023128166551E-014
 -0.10824999999999999         -1.2566084495743889E-014
 -0.10799999999999998         -1.1074332112380302E-014
 -0.10774999999999998         -9.4499355288718665E-015
 -0.10749999999999998         -7.6991946831344595E-015
 -0.10724999999999998         -5.8295230571891067E-015
 -0.10699999999999998         -3.8494357131229896E-015
 -0.10674999999999998         -1.7685199456243258E-015
 -0.10649999999999998          4.0259760641429346E-016
 -0.10624999999999998          2.6522964848695792E-015
 -0.10599999999999998          4.9680147920289818E-015
 -0.10574999999999998          7.3363104598464689E-015
 -0.10549999999999998          9.7429312049024113E-015
 -0.10524999999999998          1.2172893322205767E-014
 -0.10499999999999998          1.4610565890845243E-014
 -0.10474999999999998          1.7039767868705039E-014
 -0.10449999999999998          1.9443858155591646E-014
 -0.10424999999999998          2.1805856450902706E-014
 -0.10399999999999998          2.4108541125221888E-014