 -0.23999999999999999          0.0000000000000000     
 -0.23974999999999999          0.0000000000000000     
 -0.23949999999999999          0.0000000000000000     
 -0.23924999999999999          0.0000000000000000     
 -0.23899999999999999          0.0000000000000000     
 -0.23874999999999999          0.0000000000000000     
 -0.23849999999999999          0.0000000000000000     
 -0.23824999999999999          0.0000000000000000     
 -0.23799999999999999          0.0000000000000000     
 -0.23774999999999999          0.0000000000000000     
 -0.23749999999999999          0.0000000000000000     
 -0.23724999999999999          0.0000000000000000     
 -0.23699999999999999          0.0000000000000000     
 -0.23674999999999999          0.0000000000000000     
 -0.23649999999999999          0.0000000000000000     
 -0.23624999999999999          0.0000000000000000     
 -0.23599999999999999          0.0000000000000000     
 -0.23574999999999999          0.0000000000000000     
 -0.23549999999999999          0.0000000000000000     
 -0.23524999999999999          0.0000000000000000     
 -0.23499999999999999          0.0000000000000000     
 -0.23474999999999999          0.0000000000000000     
 -0.23449999999999999          0.0000000000000000     
 -0.23424999999999999          0.0000000000000000     
 -0.23399999999999999          0.0000000000000000     
 -0.23374999999999999          0.0000000000000000     
 -0.23349999999999999          0.0000000000000000     
 -0.23324999999999999          0.0000000000000000     
 -0.23299999999999998          0.0000000000000000     
 -0.23274999999999998          0.0000000000000000     
 -0.23249999999999998          0.0000000000000000     
 -0.23224999999999998          0.0000000000000000     
 -0.23199999999999998          0.0000000000000000     
 -0.23174999999999998          0.0000000000000000     
 -0.23149999999999998          0.0000000000000000     
 -0.23124999999999998          0.0000000000000000     
 -0.23099999999999998          0.0000000000000000     
 -0.23074999999999998          0.0000000000000000     
 -0.23049999999999998          0.0000000000000000     
 -0.23024999999999998          0.0000000000000000     
 -0.22999999999999998          0.0000000000000000     
 -0.22974999999999998          0.0000000000000000     
 -0.22949999999999998          0.0000000000000000     
 -0.22924999999999998          0.0000000000000000     
 -0.22899999999999998          0.0000000000000000     
 -0.22874999999999998          0.0000000000000000     
 -0.22849999999999998          0.0000000000000000     
 -0.22824999999999998          0.0000000000000000     
 -0.22799999999999998          0.0000000000000000     
 -0.22774999999999998          0.0000000000000000     
 -0.22749999999999998          0.0000000000000000     
 -0.22724999999999998          0.0000000000000000     
 -0.22699999999999998          0.0000000000000000     
 -0.22674999999999998          0.0000000000000000     
 -0.22649999999999998          0.0000000000000000     
 -0.22624999999999998          0.0000000000000000     
 -0.22599999999999998          0.0000000000000000     
 -0.22574999999999998          0.0000000000000000     
 -0.22549999999999998          0.0000000000000000     
 -0.22524999999999998          0.0000000000000000     
 -0.22499999999999998          0.0000000000000000     
 -0.22475000000000001          0.0000000000000000     
 -0.22449999999999998          0.0000000000000000     
 -0.22425000000000000          0.0000000000000000     
 -0.22399999999999998          0.0000000000000000     
 -0.22375000000000000          0.0000000000000000     
 -0.22349999999999998          0.0000000000000000     
 -0.22325000000000000          0.0000000000000000     
 -0.22299999999999998          0.0000000000000000     
 -0.22275000000000000          0.0000000000000000     
 -0.22249999999999998          0.0000000000000000     
 -0.22225000000000000          0.0000000000000000     
 -0.22199999999999998          0.0000000000000000     
 -0.22175000000000000          0.0000000000000000     
 -0.22150000000000000          0.0000000000000000     
 -0.22125000000000000          0.0000000000000000     
 -0.22100000000000000          0.0000000000000000     
 -0.22075000000000000          0.0000000000000000     
 -0.22050000000000000          0.0000000000000000     
 -0.22025000000000000          0.0000000000000000     
 -0.22000000000000000          0.0000000000000000     
 -0.21975000000000000          0.0000000000000000     
 -0.21950000000000000          0.0000000000000000     
 -0.21925000000000000          0.0000000000000000     
 -0.21900000000000000          0.0000000000000000     
 -0.21875000000000000          0.0000000000000000     
 -0.21850000000000000          0.0000000000000000     
 -0.21825000000000000          0.0000000000000000     
 -0.21800000000000000          0.0000000000000000     
 -0.21775000000000000          0.0000000000000000     
 -0.21750000000000000          0.0000000000000000     
 -0.21725000000000000          0.0000000000000000     
 -0.21700000000000000          0.0000000000000000     
 -0.21675000000000000          0.0000000000000000     
 -0.21650000000000000          0.0000000000000000     
 -0.21625000000000000          0.0000000000000000     
 -0.21600000000000000          0.0000000000000000     
 -0.21575000000000000          0.0000000000000000     
 -0.21550000000000000          0.0000000000000000     
 -0.21525000000000000          0.0000000000000000     
 -0.21500000000000000          0.0000000000000000     
 -0.21475000000000000          0.0000000000000000     
 -0.21450000000000000          0.0000000000000000     
 -0.21425000000000000          0.0000000000000000     
 -0.21400000000000000          0.0000000000000000     
 -0.21375000000000000          0.0000000000000000     
 -0.21350000000000000          0.0000000000000000     
 -0.21325000000000000          0.0000000000000000     
 -0.21299999999999999          0.0000000000000000     
 -0.21274999999999999          0.0000000000000000     
 -0.21249999999999999          0.0000000000000000     
 -0.21224999999999999          0.0000000000000000     
 -0.21199999999999999          0.0000000000000000     
 -0.21174999999999999          0.0000000000000000     
 -0.21149999999999999          0.0000000000000000     
 -0.21124999999999999          0.0000000000000000     
 -0.21099999999999999          0.0000000000000000     
 -0.21074999999999999          0.0000000000000000     
 -0.21049999999999999          0.0000000000000000     
 -0.21024999999999999          0.0000000000000000     
 -0.20999999999999999          0.0000000000000000     
 -0.20974999999999999          0.0000000000000000     
 -0.20949999999999999          0.0000000000000000     
 -0.20924999999999999          0.0000000000000000     
 -0.20899999999999999          0.0000000000000000     
 -0.20874999999999999          0.0000000000000000     
 -0.20849999999999999          0.0000000000000000     
 -0.20824999999999999          0.0000000000000000     
 -0.20799999999999999          0.0000000000000000     
 -0.20774999999999999          0.0000000000000000     
 -0.20749999999999999          0.0000000000000000     
 -0.20724999999999999          0.0000000000000000     
 -0.20699999999999999          0.0000000000000000     
 -0.20674999999999999          0.0000000000000000     
 -0.20649999999999999          0.0000000000000000     
 -0.20624999999999999          0.0000000000000000     
 -0.20599999999999999          0.0000000000000000     
 -0.20574999999999999          0.0000000000000000     
 -0.20549999999999999          0.0000000000000000     
 -0.20524999999999999          0.0000000000000000     
 -0.20499999999999999          0.0000000000000000     
 -0.20474999999999999          0.0000000000000000     
 -0.20449999999999999          0.0000000000000000     
 -0.20424999999999999          0.0000000000000000     
 -0.20399999999999999          0.0000000000000000     
 -0.20374999999999999          0.0000000000000000     
 -0.20349999999999999          0.0000000000000000     
 -0.20324999999999999          0.0000000000000000     
 -0.20299999999999999          0.0000000000000000     
 -0.20274999999999999          0.0000000000000000     
 -0.20249999999999999          0.0000000000000000     
 -0.20224999999999999          0.0000000000000000     
 -0.20199999999999999          0.0000000000000000     
 -0.20174999999999998          0.0000000000000000     
 -0.20149999999999998          0.0000000000000000     
 -0.20124999999999998          0.0000000000000000     
 -0.20099999999999998          0.0000000000000000     
 -0.20074999999999998          0.0000000000000000     
 -0.20049999999999998          0.0000000000000000     
 -0.20024999999999998          0.0000000000000000     
 -0.19999999999999998          0.0000000000000000     
 -0.19974999999999998          0.0000000000000000     
 -0.19949999999999998          0.0000000000000000     
 -0.19924999999999998          0.0000000000000000     
 -0.19899999999999998          0.0000000000000000     
 -0.19874999999999998          0.0000000000000000     
 -0.19849999999999998          0.0000000000000000     
 -0.19824999999999998          0.0000000000000000     
 -0.19799999999999998          0.0000000000000000     
 -0.19774999999999998          0.0000000000000000     
 -0.19749999999999998          0.0000000000000000     
 -0.19724999999999998          0.0000000000000000     
 -0.19699999999999998          0.0000000000000000     
 -0.19674999999999998          0.0000000000000000     
 -0.19649999999999998          0.0000000000000000     
 -0.19624999999999998          0.0000000000000000     
 -0.19600000000000001          0.0000000000000000     
 -0.19574999999999998          0.0000000000000000     
 -0.19550000000000001          0.0000000000000000     
 -0.19524999999999998          0.0000000000000000     
 -0.19500000000000001          0.0000000000000000     
 -0.19474999999999998          0.0000000000000000     
 -0.19450000000000001          0.0000000000000000     
 -0.19424999999999998          0.0000000000000000     
 -0.19400000000000001          0.0000000000000000     
 -0.19374999999999998          0.0000000000000000     
 -0.19350000000000001          0.0000000000000000     
 -0.19324999999999998          0.0000000000000000     
 -0.19300000000000000          0.0000000000000000     
 -0.19274999999999998          0.0000000000000000     
 -0.19250000000000000          0.0000000000000000     
 -0.19224999999999998          0.0000000000000000     
 -0.19200000000000000          0.0000000000000000     
 -0.19174999999999998          0.0000000000000000     
 -0.19150000000000000          0.0000000000000000     
 -0.19124999999999998          0.0000000000000000     
 -0.19100000000000000          0.0000000000000000     
 -0.19074999999999998          0.0000000000000000     
 -0.19050000000000000          0.0000000000000000     
 -0.19024999999999997          0.0000000000000000     
 -0.19000000000000000          0.0000000000000000     
 -0.18974999999999997          0.0000000000000000     
 -0.18950000000000000          0.0000000000000000     
 -0.18924999999999997          0.0000000000000000     
 -0.18900000000000000          0.0000000000000000     
 -0.18874999999999997          0.0000000000000000     
 -0.18850000000000000          0.0000000000000000     
 -0.18824999999999997          0.0000000000000000     
 -0.18800000000000000          0.0000000000000000     
 -0.18775000000000000          0.0000000000000000     
 -0.18750000000000000          0.0000000000000000     
 -0.18725000000000000          0.0000000000000000     
 -0.18700000000000000          0.0000000000000000     
 -0.18675000000000000          0.0000000000000000     
 -0.18650000000000000          0.0000000000000000     
 -0.18625000000000000          0.0000000000000000     
 -0.18600000000000000          0.0000000000000000     
 -0.18575000000000000          0.0000000000000000     
 -0.18550000000000000          0.0000000000000000     
 -0.18525000000000000          0.0000000000000000     
 -0.18500000000000000          0.0000000000000000     
 -0.18475000000000000          0.0000000000000000     
 -0.18450000000000000          0.0000000000000000     
 -0.18425000000000000          0.0000000000000000     
 -0.18400000000000000          0.0000000000000000     
 -0.18375000000000000          0.0000000000000000     
 -0.18350000000000000          0.0000000000000000     
 -0.18325000000000000          0.0000000000000000     
 -0.18300000000000000          0.0000000000000000     
 -0.18275000000000000          0.0000000000000000     
 -0.18250000000000000          0.0000000000000000     
 -0.18225000000000000          0.0000000000000000     
 -0.18200000000000000          0.0000000000000000     
 -0.18174999999999999          0.0000000000000000     
 -0.18149999999999999          0.0000000000000000     
 -0.18124999999999999          0.0000000000000000     
 -0.18099999999999999          0.0000000000000000     
 -0.18074999999999999          0.0000000000000000     
 -0.18049999999999999          0.0000000000000000     
 -0.18024999999999999          0.0000000000000000     
 -0.17999999999999999          0.0000000000000000     
 -0.17974999999999999          0.0000000000000000     
 -0.17949999999999999          0.0000000000000000     
 -0.17924999999999999          0.0000000000000000     
 -0.17899999999999999          0.0000000000000000     
 -0.17874999999999999          0.0000000000000000     
 -0.17849999999999999          0.0000000000000000     
 -0.17824999999999999          0.0000000000000000     
 -0.17799999999999999          0.0000000000000000     
 -0.17774999999999999          0.0000000000000000     
 -0.17749999999999999          0.0000000000000000     
 -0.17724999999999999          0.0000000000000000     
 -0.17699999999999999          0.0000000000000000     
 -0.17674999999999999          0.0000000000000000     
 -0.17649999999999999          0.0000000000000000     
 -0.17624999999999999          0.0000000000000000     
 -0.17599999999999999          0.0000000000000000     
 -0.17574999999999999          0.0000000000000000     
 -0.17549999999999999          0.0000000000000000     
 -0.17524999999999999          0.0000000000000000     
 -0.17499999999999999          0.0000000000000000     
 -0.17474999999999999          0.0000000000000000     
 -0.17449999999999999          0.0000000000000000     
 -0.17424999999999999          0.0000000000000000     
 -0.17399999999999999          0.0000000000000000     
 -0.17374999999999999          0.0000000000000000     
 -0.17349999999999999          0.0000000000000000     
 -0.17324999999999999          0.0000000000000000     
 -0.17299999999999999          0.0000000000000000     
 -0.17274999999999999          0.0000000000000000     
 -0.17249999999999999          0.0000000000000000     
 -0.17224999999999999          0.0000000000000000     
 -0.17199999999999999          0.0000000000000000     
 -0.17174999999999999          0.0000000000000000     
 -0.17149999999999999          0.0000000000000000     
 -0.17124999999999999          0.0000000000000000     
 -0.17099999999999999          0.0000000000000000     
 -0.17074999999999999          0.0000000000000000     
 -0.17049999999999998          0.0000000000000000     
 -0.17024999999999998          0.0000000000000000     
 -0.16999999999999998          0.0000000000000000     
 -0.16974999999999998          0.0000000000000000     
 -0.16949999999999998          0.0000000000000000     
 -0.16924999999999998          0.0000000000000000     
 -0.16899999999999998          0.0000000000000000     
 -0.16874999999999998          0.0000000000000000     
 -0.16849999999999998          0.0000000000000000     
 -0.16824999999999998          0.0000000000000000     
 -0.16799999999999998          0.0000000000000000     
 -0.16775000000000001          0.0000000000000000     
 -0.16749999999999998         -8.2683012039642021E-041
 -0.16725000000000001         -1.0152777200171247E-040
 -0.16699999999999998         -1.2253477057787490E-040
 -0.16675000000000001         -1.4575884655865233E-040
 -0.16649999999999998         -1.7121939004759194E-040
 -0.16625000000000001         -1.9889734737544424E-040
 -0.16599999999999998         -2.2872603890555053E-040
 -0.16575000000000001         -2.6058045878203357E-040
 -0.16549999999999998         -6.9611644809892270E-041
 -0.16525000000000001         -7.5933928200382011E-041
 -0.16499999999999998         -1.3106387670434052E-040
 -0.16475000000000001         -1.4473946407822643E-040
 -0.16449999999999998         -1.5827907578256861E-040
 -0.16425000000000001         -1.7130601270762134E-040
 -0.16399999999999998         -1.8347471988968645E-040
 -0.16375000000000001         -1.9434084626979758E-040
 -0.16349999999999998         -2.0336278713197980E-040
 -0.16325000000000001         -2.0996802781228259E-040
 -0.16299999999999998          2.9677262408985405E-041
 -0.16275000000000001          5.8594348597948159E-041
 -0.16249999999999998          9.2707191946723627E-041
 -0.16225000000000001          1.3235540123051969E-040
 -0.16199999999999998          3.1299590571372582E-040
 -0.16175000000000000          3.7194692572288224E-040
 -0.16149999999999998          4.3547791925950892E-040
 -0.16125000000000000          5.0316146741823020E-040
 -0.16099999999999998          5.7437231935966770E-040
 -0.16075000000000000          6.4837616548386255E-040
 -0.16049999999999998          5.4747967447456875E-040
 -0.16025000000000000          7.7502566636370694E-040
 -0.15999999999999998          1.3491362320896738E-039
 -0.15975000000000000          5.9842710758012688E-040
 -0.15949999999999998          3.2341042366304819E-039
 -0.15925000000000000          3.9657500133462628E-039
 -0.15899999999999997          4.5645342791418699E-039
 -0.15875000000000000          5.5596088251606570E-039
 -0.15849999999999997          6.6561311802913294E-039
 -0.15825000000000000          7.8540089596507336E-039
 -0.15799999999999997          8.5355914302403793E-039
 -0.15775000000000000          9.6068629410520467E-039
 -0.15749999999999997          1.0541877760382492E-038
 -0.15725000000000000          1.1656232199769375E-038
 -0.15699999999999997          1.2780055964955495E-038
 -0.15675000000000000          1.3892901641526601E-038
 -0.15649999999999997          1.5439874144262586E-038
 -0.15625000000000000          1.6375289269649883E-038
 -0.15599999999999997          1.7280891125977153E-038
 -0.15575000000000000          1.8118573681380967E-038
 -0.15549999999999997          2.0765846891360091E-038
 -0.15525000000000000          1.3480284414805804E-038
 -0.15499999999999997          1.2633845152410833E-038
 -0.15475000000000000          1.1396211196193189E-038
 -0.15449999999999997          1.0441259546723362E-038
 -0.15425000000000000          8.2919562822286135E-039
 -0.15399999999999997          5.5821397026169325E-039
 -0.15375000000000000          2.2550311954246638E-039
 -0.15349999999999997         -1.7471005139281496E-039
 -0.15325000000000000         -6.4767776526034669E-039
 -0.15299999999999997         -1.2638016178502738E-038
 -0.15275000000000000         -1.8879490208049816E-038
 -0.15249999999999997         -2.5714446523586878E-038
 -0.15225000000000000         -3.4681756187594656E-038
 -0.15200000000000000         -4.1645666663517161E-038
 -0.15175000000000000         -5.2179439171876547E-038
 -0.15150000000000000         -6.2510375278420317E-038
 -0.15125000000000000         -7.4893984099572047E-038
 -0.15100000000000000         -8.7375873988840657E-038
 -0.15075000000000000         -1.0060629609658934E-037
 -0.15049999999999999         -1.1274774302831812E-037
 -0.15024999999999999         -1.3541715046610530E-037
 -0.14999999999999999         -1.5225862084735571E-037
 -0.14974999999999999         -1.6949077828302428E-037
 -0.14949999999999999         -1.8731730570666751E-037
 -0.14924999999999999         -2.0296198911010609E-037
 -0.14899999999999999         -2.2090945170671656E-037
 -0.14874999999999999         -2.3617061065533977E-037
 -0.14849999999999999         -2.5149033494210712E-037
 -0.14824999999999999         -2.6435390795743856E-037
 -0.14799999999999999         -2.7488511211695792E-037
 -0.14774999999999999         -2.8247725864548955E-037
 -0.14749999999999999         -2.8646784467854777E-037
 -0.14724999999999999         -2.8614148848670840E-037
 -0.14699999999999999         -2.8073324166621001E-037
 -0.14674999999999999         -2.6943303329522193E-037
 -0.14649999999999999         -2.5139282901558492E-037
 -0.14624999999999999         -2.2573498118201304E-037
 -0.14599999999999999         -1.9156222289736680E-037
 -0.14574999999999999         -1.4797057363452585E-037
 -0.14549999999999999         -9.4064520329738453E-038
 -0.14524999999999999         -2.8974480656941819E-038
 -0.14499999999999999          4.8124922561105109E-038
 -0.14474999999999999          1.3799069754860223E-037
 -0.14449999999999999          2.4111532393138296E-037
 -0.14424999999999999          3.5856454878640175E-037
 -0.14399999999999999          4.9020332030132407E-037
 -0.14374999999999999          6.3514481761737473E-037
 -0.14349999999999999          7.9723556684593025E-037
 -0.14324999999999999          9.7219156477121838E-037
 -0.14299999999999999          1.1612567490736445E-036
 -0.14274999999999999          1.3630397106451025E-036
 -0.14249999999999999          1.5764559433718365E-036
 -0.14224999999999999          1.7998380469229612E-036
 -0.14199999999999999          2.0310656848092330E-036
 -0.14174999999999999          2.2675258535667628E-036
 -0.14149999999999999          2.5060774019318673E-036
 -0.14124999999999999          2.7430154845791630E-036
 -0.14099999999999999          2.9740426944174526E-036
 -0.14074999999999999          3.1942449025756648E-036
 -0.14049999999999999          3.3980728690552687E-036
 -0.14024999999999999          3.5793335939315221E-036
 -0.13999999999999999          3.7311896135932867E-036
 -0.13974999999999999          3.8461703007042161E-036
 -0.13949999999999999          3.9161940119644916E-036
 -0.13924999999999998          3.9326087080283767E-036
 -0.13899999999999998          3.8862429106075485E-036
 -0.13874999999999998          3.7674788162126496E-036
 -0.13849999999999998          3.5663402760897329E-036
 -0.13824999999999998          3.2726074477495104E-036
 -0.13799999999999998          2.8759450749659815E-036
 -0.13774999999999998          2.3660628523877666E-036
 -0.13749999999999998          1.7328909614234525E-036
 -0.13724999999999998          9.6679119516663475E-037
 -0.13699999999999998          5.8780842968454480E-038
 -0.13674999999999998         -9.9920535934830190E-037
 -0.13649999999999998         -2.2140389364674475E-036
 -0.13624999999999998         -3.5910870980064883E-036
 -0.13599999999999998         -5.1338896647681246E-036
 -0.13574999999999998         -6.8438017414632075E-036
 -0.13550000000000001         -8.7196327542221640E-036
 -0.13524999999999998         -1.0757258626297453E-035
 -0.13500000000000001         -1.2949228073484725E-035
 -0.13474999999999998         -1.5284359409637171E-035
 -0.13450000000000001         -1.7747342693508919E-035
 -0.13424999999999998         -2.0318337670146182E-035
 -0.13400000000000001         -2.2972597640570995E-035
 -0.13374999999999998         -2.5680105137214406E-035
 -0.13350000000000001         -2.8405242944746424E-035
 -0.13324999999999998         -3.1106505396519893E-035
 -0.13300000000000001         -3.3736264074534698E-035
 -0.13274999999999998         -3.6240597114883225E-035
 -0.13250000000000001         -3.8559190165600902E-035
 -0.13224999999999998         -4.0625342775946932E-035
 -0.13200000000000001         -4.2366048983583881E-035
 -0.13174999999999998         -4.3702242476001967E-035
 -0.13150000000000001         -4.4549126868067251E-035
 -0.13124999999999998         -4.4816674696640020E-035
 -0.13100000000000001         -4.4410292030209378E-035
 -0.13074999999999998         -4.3231653482267958E-035
 -0.13050000000000000         -4.1179704530311835E-035
 -0.13024999999999998         -3.8151888989025667E-035
 -0.13000000000000000         -3.4045569409149689E-035
 -0.12974999999999998         -2.8759671800875284E-035
 -0.12950000000000000         -2.2196552266299110E-035
 -0.12924999999999998         -1.4264071974354547E-035
 -0.12900000000000000         -4.8778525728957035E-036
 -0.12874999999999998          6.0360558226267482E-036
 -0.12850000000000000          1.8538587997720451E-035
 -0.12824999999999998          3.2674601259947426E-035
 -0.12800000000000000          4.8469879798308657E-035
 -0.12774999999999997          6.5927732225774191E-035
 -0.12750000000000000          8.5025682367079680E-035
 -0.12724999999999997          1.0571188889144277E-034
 -0.12700000000000000          1.2790166818176383E-034
 -0.12674999999999997          1.5147393211878200E-034
 -0.12650000000000000          1.7626763623604747E-034
 -0.12624999999999997          2.0207846161192045E-034
 -0.12600000000000000          2.2865555688596452E-034
 -0.12574999999999997          2.5569870497683977E-034
 -0.12550000000000000          2.8285568872636437E-034
 -0.12524999999999997          3.0972011329486816E-034
 -0.12499999999999999          3.3582994844854116E-034
 -0.12474999999999999          3.6066641236088921E-034
 -0.12449999999999999          3.8365395544260108E-034
 -0.12424999999999999          4.0416068645813356E-034
 -0.12399999999999999          4.2150017121065863E-034
 -0.12374999999999999          4.3493415415736523E-034
 -0.12349999999999998          4.4367637708315252E-034
 -0.12324999999999998          4.4689782520968583E-034
 -0.12299999999999998          4.4373339359904165E-034
 -0.12274999999999998          4.3329001522286240E-034
 -0.12249999999999998          4.1465643168721737E-034
 -0.12224999999999998          3.8691444526988743E-034
 -0.12199999999999998          3.4915240372229323E-034
 -0.12174999999999998          3.0047990839169156E-034
 -0.12149999999999998          2.4004443191410849E-034
 -0.12124999999999998          1.6705002650223522E-034
 -0.12099999999999998          8.0777470909098462E-035
 -0.12074999999999998         -1.9393537593949037E-035
 -0.12049999999999998         -1.3396103324250352E-034
 -0.12024999999999998         -2.6327577470007700E-034
 -0.12000000000000000         -4.0751482851966335E-034
 -0.11975000000000000         -5.6665432146361585E-034
 -0.11950000000000000         -7.4044126436993264E-034
 -0.11924999999999999         -9.2836460048443907E-034
 -0.11899999999999999         -1.1296276719934736E-033
 -0.11874999999999999         -1.3431176041586390E-033
 -0.11849999999999999         -1.5673806867428320E-033
 -0.11824999999999999         -1.8005931788686481E-033
 -0.11799999999999999         -2.0405392035442463E-033
 -0.11774999999999999         -2.2845879195210222E-033
 -0.11749999999999999         -2.5296746851432902E-033
 -0.11724999999999999         -2.7722869234738682E-033
 -0.11699999999999999         -3.0084538092159509E-033
 -0.11674999999999999         -3.2337415101982985E-033
 -0.11649999999999999         -3.4432553020081316E-033
 -0.11624999999999999         -3.6316482945456420E-033
 -0.11599999999999999         -3.7931380346823283E-033
 -0.11574999999999999         -3.9215324899655624E-033
 -0.11549999999999999         -4.0102640844667736E-033
 -0.11524999999999999         -4.0524362216832392E-033
 -0.11499999999999999         -4.0408798663187895E-033
 -0.11474999999999999         -3.9682203395488508E-033
 -0.11449999999999999         -3.8269599989990978E-033
 -0.11424999999999999         -3.6095697846017088E-033
 -0.11399999999999999         -3.3085953633306167E-033
 -0.11374999999999999         -2.9167788894069024E-033
 -0.11349999999999999         -2.4271883261426561E-033
 -0.11324999999999999         -1.8333688959393779E-033
 -0.11299999999999999         -1.1294963351969264E-033
 -0.11274999999999999         -3.1055002180953379E-034
 -0.11249999999999999          6.2750477309906348E-034
 -0.11224999999999999          1.6875235096744107E-033
 -0.11199999999999999          2.8709861916325047E-033
 -0.11174999999999999          4.1777844604649300E-033
 -0.11149999999999999          5.6060138444273249E-033
 -0.11124999999999999          7.1517538282691857E-033
 -0.11099999999999999          8.8088618271373075E-033
 -0.11074999999999999          1.0568759029069871E-032
 -0.11049999999999999          1.2420222456089253E-032
 -0.11024999999999999          1.4349204862746040E-032
 -0.10999999999999999          1.6338647591784861E-032
 -0.10974999999999999          1.8368326138028296E-032
 -0.10949999999999999          2.0414731078858224E-032
 -0.10924999999999999          2.2450934851505065E-032
 -0.10899999999999999          2.4446566888213000E-032
 -0.10874999999999999          2.6367754993185733E-032
 -0.10849999999999999          2.8177150156440389E-032
 -0.10824999999999999          2.9834012878836206E-032
 -0.10799999999999998          3.1294320236602996E-032
 -0.10774999999999998          3.2510980915806619E-032
 -0.10749999999999998          3.3434076651110186E-032
 -0.10724999999999998          3.4011210635277677E-032
 -0.10699999999999998          3.4187910085055666E-032
 -0.10674999999999998          3.3908120714764818E-032
 -0.10649999999999998          3.3114795572530377E-032
 -0.10624999999999998          3.1750561044024392E-032
 -0.10599999999999998          2.9758474514895221E-032
 -0.10574999999999998          2.7082875324090272E-032
 -0.10549999999999998          2.3670334584669930E-032
 -0.10524999999999998          1.9470683436673120E-032
 -0.10499999999999998          1.4438133841492793E-032
 -0.10474999999999998          8.5324739603599606E-033
 -0.10449999999999998          1.7203675375060633E-033
 -0.10424999999999998         -6.0233413256474066E-033
 -0.10399999999999998         -1.4714174412643952E-032