 -0.23999999999999999          0.0000000000000000     
 -0.23974999999999999          0.0000000000000000     
 -0.23949999999999999          0.0000000000000000     
 -0.23924999999999999          0.0000000000000000     
 -0.23899999999999999          0.0000000000000000     
 -0.23874999999999999          0.0000000000000000     
 -0.23849999999999999          0.0000000000000000     
 -0.23824999999999999          0.0000000000000000     
 -0.23799999999999999          0.0000000000000000     
 -0.23774999999999999          0.0000000000000000     
 -0.23749999999999999          0.0000000000000000     
 -0.23724999999999999          0.0000000000000000     
 -0.23699999999999999          0.0000000000000000     
 -0.23674999999999999          0.0000000000000000     
 -0.23649999999999999          0.0000000000000000     
 -0.23624999999999999          0.0000000000000000     
 -0.23599999999999999          0.0000000000000000     
 -0.23574999999999999          0.0000000000000000     
 -0.23549999999999999          0.0000000000000000     
 -0.23524999999999999          0.0000000000000000     
 -0.23499999999999999          0.0000000000000000     
 -0.23474999999999999          0.0000000000000000     
 -0.23449999999999999          0.0000000000000000     
 -0.23424999999999999          0.0000000000000000     
 -0.23399999999999999          0.0000000000000000     
 -0.23374999999999999          0.0000000000000000     
 -0.23349999999999999          0.0000000000000000     
 -0.23324999999999999          0.0000000000000000     
 -0.23299999999999998          0.0000000000000000     
 -0.23274999999999998          0.0000000000000000     
 -0.23249999999999998          0.0000000000000000     
 -0.23224999999999998          0.0000000000000000     
 -0.23199999999999998          0.0000000000000000     
 -0.23174999999999998          0.0000000000000000     
 -0.23149999999999998          0.0000000000000000     
 -0.23124999999999998          0.0000000000000000     
 -0.23099999999999998          0.0000000000000000     
 -0.23074999999999998          0.0000000000000000     
 -0.23049999999999998          0.0000000000000000     
 -0.23024999999999998          0.0000000000000000     
 -0.22999999999999998          0.0000000000000000     
 -0.22974999999999998          0.0000000000000000     
 -0.22949999999999998          0.0000000000000000     
 -0.22924999999999998          0.0000000000000000     
 -0.22899999999999998          0.0000000000000000     
 -0.22874999999999998          0.0000000000000000     
 -0.22849999999999998          0.0000000000000000     
 -0.22824999999999998          0.0000000000000000     
 -0.22799999999999998          0.0000000000000000     
 -0.22774999999999998          0.0000000000000000     
 -0.22749999999999998          0.0000000000000000     
 -0.22724999999999998          0.0000000000000000     
 -0.22699999999999998          0.0000000000000000     
 -0.22674999999999998          0.0000000000000000     
 -0.22649999999999998          0.0000000000000000     
 -0.22624999999999998          0.0000000000000000     
 -0.22599999999999998          0.0000000000000000     
 -0.22574999999999998          0.0000000000000000     
 -0.22549999999999998          0.0000000000000000     
 -0.22524999999999998          0.0000000000000000     
 -0.22499999999999998          0.0000000000000000     
 -0.22475000000000001          0.0000000000000000     
 -0.22449999999999998          0.0000000000000000     
 -0.22425000000000000          0.0000000000000000     
 -0.22399999999999998          0.0000000000000000     
 -0.22375000000000000          0.0000000000000000     
 -0.22349999999999998          0.0000000000000000     
 -0.22325000000000000          0.0000000000000000     
 -0.22299999999999998          0.0000000000000000     
 -0.22275000000000000          0.0000000000000000     
 -0.22249999999999998          0.0000000000000000     
 -0.22225000000000000          0.0000000000000000     
 -0.22199999999999998          0.0000000000000000     
 -0.22175000000000000          0.0000000000000000     
 -0.22150000000000000          0.0000000000000000     
 -0.22125000000000000          0.0000000000000000     
 -0.22100000000000000          0.0000000000000000     
 -0.22075000000000000          0.0000000000000000     
 -0.22050000000000000          0.0000000000000000     
 -0.22025000000000000          0.0000000000000000     
 -0.22000000000000000          0.0000000000000000     
 -0.21975000000000000          0.0000000000000000     
 -0.21950000000000000          0.0000000000000000     
 -0.21925000000000000          0.0000000000000000     
 -0.21900000000000000          0.0000000000000000     
 -0.21875000000000000          0.0000000000000000     
 -0.21850000000000000          0.0000000000000000     
 -0.21825000000000000          0.0000000000000000     
 -0.21800000000000000          0.0000000000000000     
 -0.21775000000000000          0.0000000000000000     
 -0.21750000000000000          0.0000000000000000     
 -0.21725000000000000          0.0000000000000000     
 -0.21700000000000000          0.0000000000000000     
 -0.21675000000000000          0.0000000000000000     
 -0.21650000000000000          0.0000000000000000     
 -0.21625000000000000          0.0000000000000000     
 -0.21600000000000000          0.0000000000000000     
 -0.21575000000000000          0.0000000000000000     
 -0.21550000000000000          0.0000000000000000     
 -0.21525000000000000          0.0000000000000000     
 -0.21500000000000000          0.0000000000000000     
 -0.21475000000000000          0.0000000000000000     
 -0.21450000000000000          0.0000000000000000     
 -0.21425000000000000          0.0000000000000000     
 -0.21400000000000000          0.0000000000000000     
 -0.21375000000000000          0.0000000000000000     
 -0.21350000000000000          0.0000000000000000     
 -0.21325000000000000          0.0000000000000000     
 -0.21299999999999999          0.0000000000000000     
 -0.21274999999999999          0.0000000000000000     
 -0.21249999999999999          0.0000000000000000     
 -0.21224999999999999          0.0000000000000000     
 -0.21199999999999999          0.0000000000000000     
 -0.21174999999999999          0.0000000000000000     
 -0.21149999999999999          0.0000000000000000     
 -0.21124999999999999          0.0000000000000000     
 -0.21099999999999999          0.0000000000000000     
 -0.21074999999999999          0.0000000000000000     
 -0.21049999999999999          0.0000000000000000     
 -0.21024999999999999          0.0000000000000000     
 -0.20999999999999999          0.0000000000000000     
 -0.20974999999999999          0.0000000000000000     
 -0.20949999999999999          0.0000000000000000     
 -0.20924999999999999          0.0000000000000000     
 -0.20899999999999999          0.0000000000000000     
 -0.20874999999999999          0.0000000000000000     
 -0.20849999999999999          0.0000000000000000     
 -0.20824999999999999          0.0000000000000000     
 -0.20799999999999999          0.0000000000000000     
 -0.20774999999999999          0.0000000000000000     
 -0.20749999999999999          0.0000000000000000     
 -0.20724999999999999          0.0000000000000000     
 -0.20699999999999999          0.0000000000000000     
 -0.20674999999999999          0.0000000000000000     
 -0.20649999999999999          0.0000000000000000     
 -0.20624999999999999          0.0000000000000000     
 -0.20599999999999999          0.0000000000000000     
 -0.20574999999999999          0.0000000000000000     
 -0.20549999999999999          0.0000000000000000     
 -0.20524999999999999          0.0000000000000000     
 -0.20499999999999999          0.0000000000000000     
 -0.20474999999999999          0.0000000000000000     
 -0.20449999999999999          0.0000000000000000     
 -0.20424999999999999          0.0000000000000000     
 -0.20399999999999999          0.0000000000000000     
 -0.20374999999999999          0.0000000000000000     
 -0.20349999999999999          0.0000000000000000     
 -0.20324999999999999          0.0000000000000000     
 -0.20299999999999999          0.0000000000000000     
 -0.20274999999999999          0.0000000000000000     
 -0.20249999999999999          0.0000000000000000     
 -0.20224999999999999          0.0000000000000000     
 -0.20199999999999999          0.0000000000000000     
 -0.20174999999999998          0.0000000000000000     
 -0.20149999999999998          0.0000000000000000     
 -0.20124999999999998          0.0000000000000000     
 -0.20099999999999998          0.0000000000000000     
 -0.20074999999999998          0.0000000000000000     
 -0.20049999999999998          0.0000000000000000     
 -0.20024999999999998          0.0000000000000000     
 -0.19999999999999998          0.0000000000000000     
 -0.19974999999999998          0.0000000000000000     
 -0.19949999999999998          0.0000000000000000     
 -0.19924999999999998          0.0000000000000000     
 -0.19899999999999998          0.0000000000000000     
 -0.19874999999999998          0.0000000000000000     
 -0.19849999999999998          0.0000000000000000     
 -0.19824999999999998          0.0000000000000000     
 -0.19799999999999998          0.0000000000000000     
 -0.19774999999999998          0.0000000000000000     
 -0.19749999999999998          0.0000000000000000     
 -0.19724999999999998          0.0000000000000000     
 -0.19699999999999998          0.0000000000000000     
 -0.19674999999999998          0.0000000000000000     
 -0.19649999999999998          0.0000000000000000     
 -0.19624999999999998          0.0000000000000000     
 -0.19600000000000001          0.0000000000000000     
 -0.19574999999999998          0.0000000000000000     
 -0.19550000000000001          0.0000000000000000     
 -0.19524999999999998          0.0000000000000000     
 -0.19500000000000001          0.0000000000000000     
 -0.19474999999999998          0.0000000000000000     
 -0.19450000000000001          0.0000000000000000     
 -0.19424999999999998          0.0000000000000000     
 -0.19400000000000001          0.0000000000000000     
 -0.19374999999999998          0.0000000000000000     
 -0.19350000000000001          0.0000000000000000     
 -0.19324999999999998          0.0000000000000000     
 -0.19300000000000000          0.0000000000000000     
 -0.19274999999999998          0.0000000000000000     
 -0.19250000000000000          0.0000000000000000     
 -0.19224999999999998          0.0000000000000000     
 -0.19200000000000000          0.0000000000000000     
 -0.19174999999999998          0.0000000000000000     
 -0.19150000000000000          0.0000000000000000     
 -0.19124999999999998          0.0000000000000000     
 -0.19100000000000000          0.0000000000000000     
 -0.19074999999999998          0.0000000000000000     
 -0.19050000000000000          0.0000000000000000     
 -0.19024999999999997          0.0000000000000000     
 -0.19000000000000000          0.0000000000000000     
 -0.18974999999999997          0.0000000000000000     
 -0.18950000000000000          0.0000000000000000     
 -0.18924999999999997          0.0000000000000000     
 -0.18900000000000000          0.0000000000000000     
 -0.18874999999999997          0.0000000000000000     
 -0.18850000000000000          0.0000000000000000     
 -0.18824999999999997          0.0000000000000000     
 -0.18800000000000000          0.0000000000000000     
 -0.18775000000000000          0.0000000000000000     
 -0.18750000000000000          0.0000000000000000     
 -0.18725000000000000          0.0000000000000000     
 -0.18700000000000000          0.0000000000000000     
 -0.18675000000000000          0.0000000000000000     
 -0.18650000000000000          0.0000000000000000     
 -0.18625000000000000          0.0000000000000000     
 -0.18600000000000000          0.0000000000000000     
 -0.18575000000000000          0.0000000000000000     
 -0.18550000000000000          0.0000000000000000     
 -0.18525000000000000          0.0000000000000000     
 -0.18500000000000000          0.0000000000000000     
 -0.18475000000000000          0.0000000000000000     
 -0.18450000000000000          0.0000000000000000     
 -0.18425000000000000          0.0000000000000000     
 -0.18400000000000000          0.0000000000000000     
 -0.18375000000000000          0.0000000000000000     
 -0.18350000000000000          0.0000000000000000     
 -0.18325000000000000          0.0000000000000000     
 -0.18300000000000000          0.0000000000000000     
 -0.18275000000000000          0.0000000000000000     
 -0.18250000000000000          0.0000000000000000     
 -0.18225000000000000          0.0000000000000000     
 -0.18200000000000000          0.0000000000000000     
 -0.18174999999999999          0.0000000000000000     
 -0.18149999999999999          0.0000000000000000     
 -0.18124999999999999          0.0000000000000000     
 -0.18099999999999999          0.0000000000000000     
 -0.18074999999999999          0.0000000000000000     
 -0.18049999999999999          0.0000000000000000     
 -0.18024999999999999          0.0000000000000000     
 -0.17999999999999999          0.0000000000000000     
 -0.17974999999999999          0.0000000000000000     
 -0.17949999999999999          0.0000000000000000     
 -0.17924999999999999          0.0000000000000000     
 -0.17899999999999999          0.0000000000000000     
 -0.17874999999999999          0.0000000000000000     
 -0.17849999999999999          0.0000000000000000     
 -0.17824999999999999          0.0000000000000000     
 -0.17799999999999999          0.0000000000000000     
 -0.17774999999999999          0.0000000000000000     
 -0.17749999999999999          0.0000000000000000     
 -0.17724999999999999          0.0000000000000000     
 -0.17699999999999999          0.0000000000000000     
 -0.17674999999999999          0.0000000000000000     
 -0.17649999999999999          0.0000000000000000     
 -0.17624999999999999          0.0000000000000000     
 -0.17599999999999999          0.0000000000000000     
 -0.17574999999999999          0.0000000000000000     
 -0.17549999999999999          0.0000000000000000     
 -0.17524999999999999          0.0000000000000000     
 -0.17499999999999999          0.0000000000000000     
 -0.17474999999999999          0.0000000000000000     
 -0.17449999999999999          0.0000000000000000     
 -0.17424999999999999          0.0000000000000000     
 -0.17399999999999999          0.0000000000000000     
 -0.17374999999999999          0.0000000000000000     
 -0.17349999999999999          0.0000000000000000     
 -0.17324999999999999          0.0000000000000000     
 -0.17299999999999999          0.0000000000000000     
 -0.17274999999999999          0.0000000000000000     
 -0.17249999999999999          0.0000000000000000     
 -0.17224999999999999          0.0000000000000000     
 -0.17199999999999999          0.0000000000000000     
 -0.17174999999999999          0.0000000000000000     
 -0.17149999999999999          0.0000000000000000     
 -0.17124999999999999          0.0000000000000000     
 -0.17099999999999999          0.0000000000000000     
 -0.17074999999999999          0.0000000000000000     
 -0.17049999999999998          0.0000000000000000     
 -0.17024999999999998          0.0000000000000000     
 -0.16999999999999998          0.0000000000000000     
 -0.16974999999999998          0.0000000000000000     
 -0.16949999999999998          0.0000000000000000     
 -0.16924999999999998          0.0000000000000000     
 -0.16899999999999998          0.0000000000000000     
 -0.16874999999999998          0.0000000000000000     
 -0.16849999999999998          0.0000000000000000     
 -0.16824999999999998          0.0000000000000000     
 -0.16799999999999998         -2.2203311530297113E-041
 -0.16775000000000001         -2.9114937557782517E-041
 -0.16749999999999998         -3.6991266574309361E-041
 -0.16725000000000001         -4.5890334633625799E-041
 -0.16699999999999998         -5.5858080221185904E-041
 -0.16675000000000001          1.2924129984596001E-041
 -0.16649999999999998          1.5029747781564447E-041
 -0.16625000000000001          1.7324320632316531E-041
 -0.16599999999999998          1.9793638685151350E-041
 -0.16575000000000001          2.6711665912317282E-040
 -0.16549999999999998          3.0207077598828463E-040
 -0.16525000000000001          3.3851625983968837E-040
 -0.16499999999999998          3.7602680464262531E-040
 -0.16475000000000001          4.1413041001441028E-040
 -0.16449999999999998          2.2668315258701085E-040
 -0.16425000000000001          2.4117645823144516E-040
 -0.16399999999999998          2.5407951602488669E-040
 -0.16375000000000001          5.4443514082812905E-041
 -0.16349999999999998          4.9117967839787187E-041
 -0.16325000000000001          4.1606545707818083E-041
 -0.16299999999999998          1.0227663202213548E-040
 -0.16275000000000001          1.0121017227634492E-040
 -0.16249999999999998          1.4476323053663773E-040
 -0.16225000000000001          1.4962456224683548E-040
 -0.16199999999999998          1.5201022418691055E-040
 -0.16175000000000000          1.5140342977608598E-040
 -0.16149999999999998          1.4718334974752264E-040
 -0.16125000000000000          3.3549233199320823E-040
 -0.16099999999999998          2.8726684975740082E-040
 -0.16075000000000000          9.5465979264649653E-041
 -0.16049999999999998          2.9535134094782003E-040
 -0.16025000000000000          3.1549785904406999E-040
 -0.15999999999999998         -1.2564921550627008E-040
 -0.15975000000000000         -4.0175602681602710E-040
 -0.15949999999999998         -1.0587543167993666E-040
 -0.15925000000000000         -1.7690403789809709E-040
 -0.15899999999999997         -2.5929655921352828E-040
 -0.15875000000000000          1.8596565469702601E-040
 -0.15849999999999997          1.7922199166164077E-040
 -0.15825000000000000          3.0353069472334005E-040
 -0.15799999999999997          3.2849035766394717E-040
 -0.15775000000000000          3.5408094301967316E-040
 -0.15749999999999997          3.8020763185687604E-040
 -0.15725000000000000          4.0673157130540926E-040
 -0.15699999999999997          4.3364270393227873E-040
 -0.15675000000000000          4.4487684746508763E-040
 -0.15649999999999997          4.8840568108518016E-040
 -0.15625000000000000          3.0522247226383266E-040
 -0.15599999999999997         -4.0492615617795465E-040
 -0.15575000000000000          3.4068972766654222E-041
 -0.15549999999999997          6.1452102512877009E-040
 -0.15525000000000000         -1.5764703379744622E-039
 -0.15499999999999997         -1.6432320597891134E-039
 -0.15475000000000000         -1.6899451501982886E-039
 -0.15449999999999997         -1.7113177379926633E-039
 -0.15425000000000000         -3.2943832760247186E-039
 -0.15399999999999997         -3.4198467410081943E-039
 -0.15375000000000000         -1.4389764661231695E-039
 -0.15349999999999997         -1.2968029978116300E-040
 -0.15325000000000000         -5.3742587813767401E-040
 -0.15299999999999997         -6.4332971277462117E-040
 -0.15275000000000000         -7.5412273210801614E-040
 -0.15249999999999997         -8.6728458600780002E-040
 -0.15225000000000000         -1.1538817294681919E-039
 -0.15200000000000000         -1.0944475756180602E-039
 -0.15175000000000000         -2.0183376541963547E-039
 -0.15150000000000000          8.4285950933167567E-040
 -0.15125000000000000          2.5649090888215660E-039
 -0.15100000000000000          3.8699165440780509E-039
 -0.15075000000000000          4.9425634318841498E-039
 -0.15049999999999999          6.3949038048946883E-039
 -0.15024999999999999          8.0102959667272624E-039
 -0.14999999999999999          9.7891779639893450E-039
 -0.14974999999999999          1.2651222732884941E-038
 -0.14949999999999999          1.3967927926674448E-038
 -0.14924999999999999          1.5266010309146424E-038
 -0.14899999999999999          1.5418468327536332E-038
 -0.14874999999999999          1.1956686364235815E-038
 -0.14849999999999999          1.2044127359771754E-038
 -0.14824999999999999          1.3977407880317281E-038
 -0.14799999999999999          1.3265336261306536E-038
 -0.14774999999999999          1.5077828001926769E-038
 -0.14749999999999999          1.3134033068071803E-038
 -0.14724999999999999          1.2169579864505937E-038
 -0.14699999999999999          1.0807912212949927E-038
 -0.14674999999999999          1.6742980082832429E-038
 -0.14649999999999999          1.6245188076657951E-038
 -0.14624999999999999          1.5303262491045435E-038
 -0.14599999999999999          1.3845346808861481E-038
 -0.14574999999999999          1.1795554598244863E-038
 -0.14549999999999999          9.0756030141721290E-039
 -0.14524999999999999          5.6053398228265922E-039
 -0.14499999999999999          1.3034101549228337E-039
 -0.14474999999999999         -3.9103647169496276E-039
 -0.14449999999999999         -1.0113439011534980E-038
 -0.14424999999999999         -1.7379075216637128E-038
 -0.14399999999999999         -2.5773499803103331E-038
 -0.14374999999999999         -3.5353194568393207E-038
 -0.14349999999999999         -4.6162346266779495E-038
 -0.14324999999999999         -5.8229537817787672E-038
 -0.14299999999999999         -7.1564035056983771E-038
 -0.14274999999999999         -8.6152520472951022E-038
 -0.14249999999999999         -1.0244025307403743E-037
 -0.14224999999999999         -1.1889973439776496E-037
 -0.14199999999999999         -1.3688079732737235E-037
 -0.14174999999999999         -1.5616988271569969E-037
 -0.14149999999999999         -1.7532193277538762E-037
 -0.14124999999999999         -1.9535179832075383E-037
 -0.14099999999999999         -2.1181450078006436E-037
 -0.14074999999999999         -2.3563840638089203E-037
 -0.14049999999999999         -2.5498264805849126E-037
 -0.14024999999999999         -2.7333233243546056E-037
 -0.13999999999999999         -2.9006828272605871E-037
 -0.13974999999999999         -3.0457763722644618E-037
 -0.13949999999999999         -3.1617710535820154E-037
 -0.13924999999999998         -3.2411150974173923E-037
 -0.13899999999999998         -3.2755750615522635E-037
 -0.13874999999999998         -3.2562446592302057E-037
 -0.13849999999999998         -3.1735893839341471E-037
 -0.13824999999999998         -3.0175153521113991E-037
 -0.13799999999999998         -2.7774492218538234E-037
 -0.13774999999999998         -2.4424439873195410E-037
 -0.13749999999999998         -2.0013253267061746E-037
 -0.13724999999999998         -1.4428116404947690E-037
 -0.13699999999999998         -7.5575546048898085E-038
 -0.13674999999999998          7.0690000310326930E-039
 -0.13649999999999998          1.0467847347865699E-037
 -0.13624999999999998          2.1819526020426018E-037
 -0.13599999999999998          3.4844411094123770E-037
 -0.13574999999999998          4.9610021953673507E-037
 -0.13550000000000001          6.6165063695548495E-037
 -0.13524999999999998          8.4535245022488488E-037
 -0.13500000000000001          1.0471907326276521E-036
 -0.13474999999999998          1.2668338083105832E-036
 -0.13450000000000001          1.5035819517116299E-036
 -0.13424999999999998          1.7563210559544747E-036
 -0.13400000000000001          2.0234703806678275E-036
 -0.13374999999999998          2.3029314631273231E-036
 -0.13350000000000001          2.5920388492984613E-036
 -0.13324999999999998          2.8875107858994129E-036
 -0.13300000000000001          3.1854018829381751E-036
 -0.13274999999999998          3.4810608284062764E-036
 -0.13250000000000001          3.7690945617437945E-036
 -0.13224999999999998          4.0433315837595813E-036
 -0.13200000000000001          4.2971926190267134E-036
 -0.13174999999999998          4.5217407507972779E-036
 -0.13150000000000001          4.7095428288769761E-036
 -0.13124999999999998          4.8508172462592556E-036
 -0.13100000000000001          4.9353961735416903E-036
 -0.13074999999999998          4.9523751782164339E-036
 -0.13050000000000000          4.8901870031321760E-036
 -0.13024999999999998          4.7366694110701331E-036
 -0.13000000000000000          4.4791940106763650E-036
 -0.12974999999999998          4.1047706982674053E-036
 -0.12950000000000000          3.6002328895275219E-036
 -0.12924999999999998          2.9523987902137843E-036
 -0.12900000000000000          2.1483145785088756E-036
 -0.12874999999999998          1.1754661330182887E-036
 -0.12850000000000000          2.2083516774423052E-038
 -0.12824999999999998         -1.3225726963822735E-036
 -0.12800000000000000         -2.8678494782274676E-036
 -0.12774999999999997         -4.6213587692098851E-036
 -0.12750000000000000         -6.5885748519931681E-036
 -0.12724999999999997         -8.7723790761156895E-036
 -0.12700000000000000         -1.1172693439823250E-035
 -0.12674999999999997         -1.3785893851619424E-035
 -0.12650000000000000         -1.6604437237120759E-035
 -0.12624999999999997         -1.9616320328081718E-035
 -0.12600000000000000         -2.2804572798882170E-035
 -0.12574999999999997         -2.6146804583993932E-035
 -0.12550000000000000         -2.9614662618617086E-035
 -0.12524999999999997         -3.3173429776920750E-035
 -0.12499999999999999         -3.6781553581183432E-035
 -0.12474999999999999         -4.0390290531794064E-035
 -0.12449999999999999         -4.3943353727415559E-035
 -0.12424999999999999         -4.7376631951346941E-035
 -0.12399999999999999         -5.0618070211454118E-035
 -0.12374999999999999         -5.3587521153961733E-035
 -0.12349999999999998         -5.6196809592461646E-035
 -0.12324999999999998         -5.8349891670639924E-035
 -0.12299999999999998         -5.9943142516824150E-035
 -0.12274999999999998         -6.0865877641421364E-035
 -0.12249999999999998         -6.1000901553352698E-035
 -0.12224999999999998         -6.0225452887730607E-035
 -0.12199999999999998         -5.8412180007570222E-035
 -0.12174999999999998         -5.5430473385955585E-035
 -0.12149999999999998         -5.1148008086832868E-035
 -0.12124999999999998         -4.5432192926660068E-035
 -0.12099999999999998         -3.8152812724771300E-035
 -0.12074999999999998         -2.9183612979964452E-035
 -0.12049999999999998         -1.8405273240039303E-035
 -0.12024999999999998         -5.7081174014928026E-036
 -0.12000000000000000          9.0049730900648510E-036
 -0.11975000000000000          2.5815000681506671E-035
 -0.11950000000000000          4.4783694662446481E-035
 -0.11924999999999999          6.5949251490807995E-035
 -0.11899999999999999          8.9322754055361902E-035
 -0.11874999999999999          1.1488415102362713E-034
 -0.11849999999999999          1.4257774280141158E-034
 -0.11824999999999999          1.7230824834602795E-034
 -0.11799999999999999          2.0393610580182787E-034
 -0.11774999999999999          2.3727389564211706E-034
 -0.11749999999999999          2.7208139708840211E-034
 -0.11724999999999999          3.0806244180225189E-034
 -0.11699999999999999          3.4486106660585036E-034
 -0.11674999999999999          3.8205776718291462E-034
 -0.11649999999999999          4.1916770678865201E-034
 -0.11624999999999999          4.5563757583606179E-034
 -0.11599999999999999          4.9084465282638327E-034
 -0.11574999999999999          5.2409599243225179E-034
 -0.11549999999999999          5.5462856996419569E-034
 -0.11524999999999999          5.8161083211738820E-034
 -0.11499999999999999          6.0414491227311088E-034
 -0.11474999999999999          6.2127044620998579E-034
 -0.11449999999999999          6.3196996822851423E-034
 -0.11424999999999999          6.3517572340211139E-034
 -0.11399999999999999          6.2977761695498481E-034
 -0.11374999999999999          6.1463355863905814E-034
 -0.11349999999999999          5.8858165552832108E-034
 -0.11324999999999999          5.5045395479423379E-034
 -0.11299999999999999          4.9909218725332323E-034
 -0.11274999999999999          4.3336558666816708E-034
 -0.11249999999999999          3.5219165808080139E-034
 -0.11224999999999999          2.5455572319110342E-034
 -0.11199999999999999          1.3953826481540293E-034
 -0.11174999999999999          6.3369016159433154E-036
 -0.11149999999999999         -1.4570393700436693E-034
 -0.11124999999999999         -3.1706431513880199E-034
 -0.11099999999999999         -5.0801879724846459E-034
 -0.11074999999999999         -7.1860461031928245E-034
 -0.11049999999999999         -9.4858994044326946E-034
 -0.11024999999999999         -1.1974397316550954E-033
 -0.10999999999999999         -1.4642843445703459E-033
 -0.10974999999999999         -1.7478850026832315E-033
 -0.10949999999999999         -2.0466049753152931E-033
 -0.10924999999999999         -2.3583741647548819E-033
 -0.10899999999999999         -2.6806662212376371E-033
 -0.10874999999999999         -3.0104697158390386E-033
 -0.10849999999999999         -3.3442667382138528E-033
 -0.10824999999999999         -3.6780131621259147E-033
 -0.10799999999999998         -4.0071261235315183E-033
 -0.10774999999999998         -4.3264786100576688E-033
 -0.10749999999999998         -4.6303953508034262E-033
 -0.10724999999999998         -4.9126559866664534E-033
 -0.10699999999999998         -5.1665185116570321E-033
 -0.10674999999999998         -5.3847334645136248E-033
 -0.10649999999999998         -5.5595821595480991E-033
 -0.10624999999999998         -5.6829200263470312E-033
 -0.10599999999999998         -5.7462306949584590E-033
 -0.10574999999999998         -5.7406930456743538E-033
 -0.10549999999999998         -5.6572669379372839E-033
 -0.10524999999999998         -5.4867774076629429E-033
 -0.10499999999999998         -5.2200296445920662E-033
 -0.10474999999999998         -4.8479239879860879E-033
 -0.10449999999999998         -4.3615987239541315E-033
 -0.10424999999999998         -3.7525711225491725E-033
 -0.10399999999999998         -3.0129002977778413E-033