 -0.23999999999999999          0.0000000000000000     
 -0.23974999999999999          0.0000000000000000     
 -0.23949999999999999          0.0000000000000000     
 -0.23924999999999999          0.0000000000000000     
 -0.23899999999999999          0.0000000000000000     
 -0.23874999999999999          0.0000000000000000     
 -0.23849999999999999          0.0000000000000000     
 -0.23824999999999999          0.0000000000000000     
 -0.23799999999999999          0.0000000000000000     
 -0.23774999999999999          0.0000000000000000     
 -0.23749999999999999          0.0000000000000000     
 -0.23724999999999999          0.0000000000000000     
 -0.23699999999999999         -1.2501330899367323E-042
 -0.23674999999999999          8.7544976175536720E-041
 -0.23649999999999999          2.0120890312110262E-039
 -0.23624999999999999          2.5629536867525170E-038
 -0.23599999999999999          9.0516552355247164E-038
 -0.23574999999999999          2.9015097324740567E-037
 -0.23549999999999999          8.5826250169124202E-037
 -0.23524999999999999          2.3674059834979430E-036
 -0.23499999999999999          6.1430489419886115E-036
 -0.23474999999999999          1.5102101125984139E-035
 -0.23449999999999999          3.5381124705926968E-035
 -0.23424999999999999          7.9379673287301010E-035
 -0.23399999999999999          1.7125531944058617E-034
 -0.23374999999999999          3.5653955596836437E-034
 -0.23349999999999999          7.1848920829248852E-034
 -0.23324999999999999          1.4051676442086884E-033
 -0.23299999999999998          2.6732173887282858E-033
 -0.23274999999999998          4.9570261550103967E-033
 -0.23249999999999998          8.9757366207837347E-033
 -0.23224999999999998          1.5895564045435726E-032
 -0.23199999999999998          2.7571459440978586E-032
 -0.23174999999999998          4.6900638992762884E-032
 -0.23149999999999998          7.8331204750842728E-032
 -0.23124999999999998          1.2858240704695619E-031
 -0.23099999999999998          2.0764910852208405E-031
 -0.23074999999999998          3.3018260970295522E-031
 -0.23049999999999998          5.1736208200736865E-031
 -0.23024999999999998          7.9939662972884566E-031
 -0.22999999999999998          1.2188270618933732E-030
 -0.22974999999999998          1.8348261267356920E-030
 -0.22949999999999998          2.7287291832232591E-030
 -0.22924999999999998          4.0110571987755637E-030
 -0.22899999999999998          5.8303246749844558E-030
 -0.22874999999999998          8.3839484720985800E-030
 -0.22849999999999998          1.1931582701226287E-029
 -0.22824999999999998          1.6811219189926642E-029
 -0.22799999999999998          2.3458342948643526E-029
 -0.22774999999999998          3.2428437711855912E-029
 -0.22749999999999998          4.4422990207011355E-029
 -0.22724999999999998          6.0319066567011926E-029
 -0.22699999999999998          8.1202338334852902E-029
 -0.22674999999999998          1.0840320931352068E-028
 -0.22649999999999998          1.4353529144253175E-028
 -0.22624999999999998          1.8853519012879607E-028
 -0.22599999999999998          2.4570199312588338E-028
 -0.22574999999999998          3.1773416113591721E-028
 -0.22549999999999998          4.0776076366604315E-028
 -0.22524999999999998          5.1936339855025852E-028
 -0.22499999999999998          6.5658367472690567E-028
 -0.22475000000000001          8.2390989367625590E-028
 -0.22449999999999998          1.0262362070854872E-027
 -0.22425000000000000          1.2687843485529914E-027
 -0.22399999999999998          1.5569788349533054E-027
 -0.22375000000000000          1.8962607883756481E-027
 -0.22349999999999998          2.2918303645431383E-027
 -0.22325000000000000          2.7482976476691039E-027
 -0.22299999999999998          3.2692269039012676E-027
 -0.22275000000000000          3.8565547228039657E-027
 -0.22249999999999998          4.5098595453524039E-027
 -0.22225000000000000          5.2254618938228133E-027
 -0.22199999999999998          5.9953308549694955E-027
 -0.22175000000000000          6.8057728499547183E-027
 -0.22150000000000000          7.6358802109443590E-027
 -0.22125000000000000          8.4557174218753822E-027
 -0.22100000000000000          9.2242167635031573E-027
 -0.22075000000000000          9.8867796469883798E-027
 -0.22050000000000000          1.0372552279655763E-026
 -0.22025000000000000          1.0591381739959482E-026
 -0.22000000000000000          1.0430442958560420E-026
 -0.21975000000000000          9.7505488038225047E-027
 -0.21950000000000000          8.3821589186308500E-027
 -0.21925000000000000          6.1211255206647807E-027
 -0.21900000000000000          2.7242115790916962E-027
 -0.21875000000000000         -2.0955386162391689E-027
 -0.21850000000000000         -8.6734988278095330E-027
 -0.21825000000000000         -1.7398125413126967E-026
 -0.21800000000000000         -2.8715439752488501E-026
 -0.21775000000000000         -4.3133193013495392E-026
 -0.21750000000000000         -6.1224494294136494E-026
 -0.21725000000000000         -8.3630718214949905E-026
 -0.21700000000000000         -1.1106340911156474E-025
 -0.21675000000000000         -1.4430492199729983E-025
 -0.21650000000000000         -1.8420746975249836E-025
 -0.21625000000000000         -2.3169023189611027E-025
 -0.21600000000000000         -2.8773418936514253E-025
 -0.21575000000000000         -3.5337412514270393E-025
 -0.21550000000000000         -4.2968769621220307E-025
 -0.21525000000000000         -5.1778059147413677E-025
 -0.21500000000000000         -6.1876807726731815E-025
 -0.21475000000000000         -7.3375137838151304E-025
 -0.21450000000000000         -8.6378968069733111E-025
 -0.21425000000000000         -1.0098664395856986E-024
 -0.21400000000000000         -1.1728495221745845E-024
 -0.21375000000000000         -1.3534457807342183E-024
 -0.21350000000000000         -1.5521481614242245E-024
 -0.21325000000000000         -1.7691761214502441E-024
 -0.21299999999999999         -2.0044099640244005E-024
 -0.21274999999999999         -2.2573165229402018E-024
 -0.21249999999999999         -2.5268682655593636E-024
 -0.21224999999999999         -2.8114563376185723E-024
 -0.21199999999999999         -3.1087959974458875E-024
 -0.21174999999999999         -3.4158257692329314E-024
 -0.21149999999999999         -3.7286025087857845E-024
 -0.21124999999999999         -4.0421916485547703E-024
 -0.21099999999999999         -4.3505539656826730E-024
 -0.21074999999999999         -4.6464308151685809E-024
 -0.21049999999999999         -4.9212309120888663E-024
 -0.21024999999999999         -5.1649175312279304E-024
 -0.20999999999999999         -5.3659026045283637E-024
 -0.20974999999999999         -5.5109440169032736E-024
 -0.20949999999999999         -5.5850607942853993E-024
 -0.20924999999999999         -5.5714552195727183E-024
 -0.20899999999999999         -5.4514552871723028E-024
 -0.20874999999999999         -5.2044793276681315E-024
 -0.20849999999999999         -4.8080254760738694E-024
 -0.20824999999999999         -4.2376920637922893E-024
 -0.20799999999999999         -3.4672341623313150E-024
 -0.20774999999999999         -2.4686546508442498E-024
 -0.20749999999999999         -1.2123538635306783E-024
 -0.20724999999999999          3.3268881124739055E-025
 -0.20699999999999999          2.1986605358294828E-024
 -0.20674999999999999          4.4186097814020498E-024
 -0.20649999999999999          7.0260708865168084E-024
 -0.20624999999999999          1.0054620649937167E-023
 -0.20599999999999999          1.3537353245640351E-023
 -0.20574999999999999          1.7506284675280958E-023
 -0.20549999999999999          2.1991664345974089E-023
 -0.20524999999999999          2.7021205172154366E-023
 -0.20499999999999999          3.2619224847314918E-023
 -0.20474999999999999          3.8805694383627865E-023
 -0.20449999999999999          4.5595198188357143E-023
 -0.20424999999999999          5.2995797812752540E-023
 -0.20399999999999999          6.1007819368203842E-023
 -0.20374999999999999          6.9622537803124606E-023
 -0.20349999999999999          7.8820797500031465E-023
 -0.20324999999999999          8.8571540786130931E-023
 -0.20299999999999999          9.8830304793425972E-023
 -0.20274999999999999          1.0953758763155925E-022
 -0.20249999999999999          1.2061727570509931E-022
 -0.20224999999999999          1.3197493336110935E-022
 -0.20199999999999999          1.4349617110937721E-022
 -0.20174999999999998          1.5504494305226387E-022
 -0.20149999999999998          1.6646188946656781E-022
 -0.20124999999999998          1.7756280139026941E-022
 -0.20099999999999998          1.8813699016232829E-022
 -0.20074999999999998          1.9794596310628061E-022
 -0.20049999999999998          2.0672212415633710E-022
 -0.20024999999999998          2.1416755441980200E-022
 -0.19999999999999998          2.1995323799583045E-022
 -0.19974999999999998          2.2371827617296984E-022
 -0.19949999999999998          2.2506959367965091E-022
 -0.19924999999999998          2.2358186677034141E-022
 -0.19899999999999998          2.1879774854023222E-022
 -0.19874999999999998          2.1022880004176039E-022
 -0.19849999999999998          1.9735663881339290E-022
 -0.19824999999999998          1.7963476053383346E-022
 -0.19799999999999998          1.5649082525025113E-022
 -0.19774999999999998          1.2732990317635942E-022
 -0.19749999999999998          9.1538057202745799E-023
 -0.19724999999999998          4.8486921854709106E-023
 -0.19699999999999998         -2.4607724338741212E-024
 -0.19674999999999998         -6.1945145049242632E-023
 -0.19649999999999998         -1.3060166102021993E-022
 -0.19624999999999998         -2.0905289042122365E-022
 -0.19600000000000001         -2.9789918793920810E-022
 -0.19574999999999998         -3.9770788127790256E-022
 -0.19550000000000001         -5.0900184678968308E-022
 -0.19524999999999998         -6.3224608503240542E-022
 -0.19500000000000001         -7.6783358813881115E-022
 -0.19474999999999998         -9.1606963928584569E-022
 -0.19450000000000001         -1.0771545653554765E-021
 -0.19424999999999998         -1.2511656226695876E-021
 -0.19400000000000001         -1.4380368037411607E-021
 -0.19374999999999998         -1.6375378354612164E-021
 -0.19350000000000001         -1.8492518703318213E-021
 -0.19324999999999998         -2.0725508647772664E-021
 -0.19300000000000000         -2.3065717666353275E-021
 -0.19274999999999998         -2.5501897478716694E-021
 -0.19250000000000000         -2.8019914093189833E-021
 -0.19224999999999998         -3.0602469388266417E-021
 -0.19200000000000000         -3.3228817605545021E-021
 -0.19174999999999998         -3.5874487011390274E-021
 -0.19150000000000000         -3.8510988048126826E-021
 -0.19124999999999998         -4.1105535761787625E-021
 -0.19100000000000000         -4.3620777476493007E-021
 -0.19074999999999998         -4.6014526819936679E-021
 -0.19050000000000000         -4.8239533825362025E-021
 -0.19024999999999997         -5.0243260828988331E-021
 -0.19000000000000000         -5.1967702448265420E-021
 -0.18974999999999997         -5.3349217835109297E-021
 -0.18950000000000000         -5.4318457679132007E-021
 -0.18924999999999997         -5.4800292527995801E-021
 -0.18900000000000000         -5.4713845033696867E-021
 -0.18874999999999997         -5.3972576582553927E-021
 -0.18850000000000000         -5.2484443715104832E-021
 -0.18824999999999997         -5.0152218915768447E-021
 -0.18800000000000000         -4.6873803738781816E-021
 -0.18775000000000000         -4.2542784185330895E-021
 -0.18750000000000000         -3.7049012947296578E-021
 -0.18725000000000000         -3.0279421547281971E-021
 -0.18700000000000000         -2.2118934460125433E-021
 -0.18675000000000000         -1.2451551347518089E-021
 -0.18650000000000000         -1.1616545975586198E-022
 -0.18625000000000000          1.1864536219140139E-021
 -0.18600000000000000          2.6737288323536880E-021
 -0.18575000000000000          4.3561496189565974E-021
 -0.18550000000000000          6.2434548369830408E-021
 -0.18525000000000000          8.3444025766575402E-021
 -0.18500000000000000          1.0666513315702633E-020
 -0.18475000000000000          1.3215795510139658E-020
 -0.18450000000000000          1.5996442805499559E-020
 -0.18425000000000000          1.9010509465059078E-020
 -0.18400000000000000          2.2257576320100513E-020
 -0.18375000000000000          2.5734376557822774E-020
 -0.18350000000000000          2.9434419591227981E-020
 -0.18325000000000000          3.3347603924671599E-020
 -0.18300000000000000          3.7459787051381387E-020
 -0.18275000000000000          4.1752391442608000E-020
 -0.18250000000000000          4.6201972153346923E-020
 -0.18225000000000000          5.0779800766212030E-020
 -0.18200000000000000          5.5451434509527935E-020
 -0.18174999999999999          6.0176327152250534E-020
 -0.18149999999999999          6.4907442904653850E-020
 -0.18124999999999999          6.9590889545962280E-020
 -0.18099999999999999          7.4165595853044927E-020
 -0.18074999999999999          7.8563038842888481E-020
 -0.18049999999999999          8.2707030917288246E-020
 -0.18024999999999999          8.6513519700278167E-020
 -0.17999999999999999          8.9890554598210445E-020
 -0.17974999999999999          9.2738219501704271E-020
 -0.17949999999999999          9.4948841048528385E-020
 -0.17924999999999999          9.6407058107293319E-020
 -0.17899999999999999          9.6990310778678246E-020
 -0.17874999999999999          9.6569216244056305E-020
 -0.17849999999999999          9.5008205507602809E-020
 -0.17824999999999999          9.2166341398844986E-020
 -0.17799999999999999          8.7898269712433257E-020
 -0.17774999999999999          8.2055263056235358E-020
 -0.17749999999999999          7.4486748139737175E-020
 -0.17724999999999999          6.5041674150490444E-020
 -0.17699999999999999          5.3570329928950873E-020
 -0.17674999999999999          3.9926286053897118E-020
 -0.17649999999999999          2.3968604500863635E-020
 -0.17624999999999999          5.5642409699473723E-021
 -0.17599999999999999         -1.5409409212201170E-020
 -0.17574999999999999         -3.9061597735183189E-020
 -0.17549999999999999         -6.5485205028626252E-020
 -0.17524999999999999         -9.4753509693676653E-020
 -0.17499999999999999         -1.2691677933283996E-019
 -0.17474999999999999         -1.6199875489975148E-019
 -0.17449999999999999         -1.9999282009791348E-019
 -0.17424999999999999         -2.4085835349739927E-019
 -0.17399999999999999         -2.8451669940601297E-019
 -0.17374999999999999         -3.3084739409646952E-019
 -0.17349999999999999         -3.7968408497089882E-019
 -0.17324999999999999         -4.3081089825118343E-019
 -0.17299999999999999         -4.8395852013825374E-019
 -0.17274999999999999         -5.3880067101329427E-019
 -0.17249999999999999         -5.9495099403069401E-019
 -0.17224999999999999         -6.5195971969587316E-019
 -0.17199999999999999         -7.0931116193336057E-019
 -0.17174999999999999         -7.6642155780266610E-019
 -0.17149999999999999         -8.2263739505711083E-019
 -0.17124999999999999         -8.7723456362748544E-019
 -0.17099999999999999         -9.2941740270675523E-019
 -0.17074999999999999         -9.7831992369377997E-019
 -0.17049999999999998         -1.0230064955113720E-018
 -0.17024999999999998         -1.0624746822594538E-018
 -0.16999999999999998         -1.0956578861414131E-018
 -0.16974999999999998         -1.1214306950268135E-018
 -0.16949999999999998         -1.1386135468270784E-018
 -0.16924999999999998         -1.1459802331589384E-018
 -0.16899999999999998         -1.1422658727431007E-018
 -0.16874999999999998         -1.1261769781264056E-018
 -0.16849999999999998         -1.0964019331648008E-018
 -0.16824999999999998         -1.0516233776258826E-018
 -0.16799999999999998         -9.9053298010108123E-019
 -0.16775000000000001         -9.1184608154787950E-019
 -0.16749999999999998         -8.1431887534549325E-019
 -0.16725000000000001         -6.9676703283093993E-019
 -0.16699999999999998         -5.5808434620965263E-019
 -0.16675000000000001         -3.9726503533715520E-019
 -0.16649999999999998         -2.1342507277234136E-019
 -0.16625000000000001         -5.8253190346119423E-021
 -0.16599999999999998          2.2610395972186026E-019
 -0.16575000000000001          4.8273837147371056E-019
 -0.16549999999999998          7.6423438745083079E-019
 -0.16525000000000001          1.0705031018458799E-018
 -0.16499999999999998          1.4011850998490949E-018
 -0.16475000000000001          1.7556242785618487E-018
 -0.16449999999999998          2.1328439367848348E-018
 -0.16425000000000001          2.5315218637214371E-018
 -0.16399999999999998          2.9499676559798022E-018
 -0.16375000000000001          3.3861022484538335E-018
 -0.16349999999999998          3.8374382216808259E-018
 -0.16325000000000001          4.3010629965450771E-018
 -0.16299999999999998          4.7736253709427723E-018
 -0.16275000000000001          5.2513248124026329E-018
 -0.16249999999999998          5.7299048867439737E-018
 -0.16225000000000001          6.2046514198893697E-018
 -0.16199999999999998          6.6703936584252065E-018
 -0.16175000000000000          7.1215107226224366E-018
 -0.16149999999999998          7.5519446636367761E-018
 -0.16125000000000000          7.9552224096899937E-018
 -0.16099999999999998          8.3244756289398322E-018
 -0.16075000000000000          8.6524748335916416E-018
 -0.16049999999999998          8.9316674584530208E-018
 -0.16025000000000000          9.1542225378697400E-018
 -0.15999999999999998          9.3120848011220532E-018
 -0.15975000000000000          9.3970343277499421E-018
 -0.15949999999999998          9.4007518367313524E-018
 -0.15925000000000000          9.3148988064810925E-018
 -0.15899999999999997          9.1311965696358650E-018
 -0.15875000000000000          8.8415155256289226E-018
 -0.15849999999999997          8.4379759034402284E-018
 -0.15825000000000000          7.9130454744518070E-018
 -0.15799999999999997          7.2596549230140863E-018
 -0.15775000000000000          6.4713075327196722E-018
 -0.15749999999999997          5.5421976529913752E-018
 -0.15725000000000000          4.4673405864415310E-018
 -0.15699999999999997          3.2426927769235713E-018
 -0.15675000000000000          1.8652837153949091E-018
 -0.15649999999999997          3.3334118604972016E-019
 -0.15625000000000000         -1.3535779799972897E-018
 -0.15599999999999997         -3.1944602284869426E-018
 -0.15575000000000000         -5.1867168369147195E-018
 -0.15549999999999997         -7.3260600997927420E-018
 -0.15525000000000000         -9.6063931123848011E-018
 -0.15499999999999997         -1.2019712213710537E-017
 -0.15475000000000000         -1.4556005018170373E-017
 -0.15449999999999997         -1.7203172958755141E-017
 -0.15425000000000000         -1.9946965546206604E-017
 -0.15399999999999997         -2.2770920258824815E-017
 -0.15375000000000000         -2.5656339923621079E-017
 -0.15349999999999997         -2.8582260737671419E-017
 -0.15325000000000000         -3.1525465166088015E-017
 -0.15299999999999997         -3.4460520170334497E-017
 -0.15275000000000000         -3.7359808497401520E-017
 -0.15249999999999997         -4.0193617572762479E-017
 -0.15225000000000000         -4.2930233829629348E-017
 -0.15200000000000000         -4.5536092575273043E-017
 -0.15175000000000000         -4.7975906386970815E-017
 -0.15150000000000000         -5.0212897143155167E-017
 -0.15125000000000000         -5.2208972590057010E-017
 -0.15100000000000000         -5.3925002251314252E-017
 -0.15075000000000000         -5.5321105459873438E-017
 -0.15049999999999999         -5.6356941570262849E-017
 -0.15024999999999999         -5.6992038444791015E-017
 -0.14999999999999999         -5.7186194729230698E-017
 -0.14974999999999999         -5.6899855551562793E-017
 -0.14949999999999999         -5.6094515924136071E-017
 -0.14924999999999999         -5.4733189733290802E-017
 -0.14899999999999999         -5.2780842820061429E-017
 -0.14874999999999999         -5.0204897041280718E-017
 -0.14849999999999999         -4.6975690416024688E-017
 -0.14824999999999999         -4.3067010239031071E-017
 -0.14799999999999999         -3.8456577888777519E-017
 -0.14774999999999999         -3.3126561920318159E-017
 -0.14749999999999999         -2.7064097416529960E-017
 -0.14724999999999999         -2.0261756644701041E-017
 -0.14699999999999999         -1.2718059959147500E-017
 -0.14674999999999999         -4.4379199652624264E-018
 -0.14649999999999999          4.5669166614369796E-018
 -0.14624999999999999          1.4277450767942629E-017
 -0.14599999999999999          2.4667067389384719E-017
 -0.14574999999999999          3.5701208320270164E-017
 -0.14549999999999999          4.7337083081113367E-017
 -0.14524999999999999          5.9523459028284548E-017
 -0.14499999999999999          7.2200484892289653E-017
 -0.14474999999999999          8.5299604792810094E-017
 -0.14449999999999999          9.8743497313219347E-017
 -0.14424999999999999          1.1244620247269454E-016
 -0.14399999999999999          1.2631315794152478E-016
 -0.14374999999999999          1.4024149770233655E-016
 -0.14349999999999999          1.5412031742479744E-016
 -0.14324999999999999          1.6783106513794886E-016
 -0.14299999999999999          1.8124807284434692E-016
 -0.14274999999999999          1.9423912494901270E-016
 -0.14249999999999999          2.0666618108042773E-016
 -0.14224999999999999          2.1838606651305225E-016
 -0.14199999999999999          2.2925142179500094E-016
 -0.14174999999999999          2.3911170396847990E-016
 -0.14149999999999999          2.4781420120418785E-016
 -0.14124999999999999          2.5520517247933396E-016
 -0.14099999999999999          2.6113116228352489E-016
 -0.14074999999999999          2.6544018629686050E-016
 -0.14049999999999999          2.6798319796539365E-016
 -0.14024999999999999          2.6861550336534860E-016
 -0.13999999999999999          2.6719828589047057E-016
 -0.13974999999999999          2.6360008432596876E-016
 -0.13949999999999999          2.5769833811670935E-016
 -0.13924999999999998          2.4938103239043130E-016
 -0.13899999999999998          2.3854825169887169E-016
 -0.13874999999999998          2.2511375656575069E-016
 -0.13849999999999998          2.0900648293461450E-016
 -0.13824999999999998          1.9017214850302518E-016
 -0.13799999999999998          1.6857466214250238E-016
 -0.13774999999999998          1.4419753453376928E-016
 -0.13749999999999998          1.1704513754571692E-016
 -0.13724999999999998          8.7143981021837608E-017
 -0.13699999999999998          5.4543751447078788E-017
 -0.13674999999999998          1.9318292733038323E-017
 -0.13649999999999998         -1.8433586785076081E-017
 -0.13624999999999998         -5.8587455928377756E-017
 -0.13599999999999998         -1.0099281427061518E-016
 -0.13574999999999998         -1.4547277460533801E-016
 -0.13550000000000001         -1.9182399640629694E-016
 -0.13524999999999998         -2.3981677175775472E-016
 -0.13500000000000001         -2.8919548614875002E-016
 -0.13474999999999998         -3.3967906459210073E-016
 -0.13450000000000001         -3.9096182774541104E-016
 -0.13424999999999998         -4.4271461888101708E-016
 -0.13400000000000001         -4.9458594894129981E-016
 -0.13374999999999998         -5.4620365402117568E-016
 -0.13350000000000001         -5.9717670278518157E-016
 -0.13324999999999998         -6.4709692722712381E-016
 -0.13300000000000001         -6.9554177818147044E-016
 -0.13274999999999998         -7.4207615006616110E-016
 -0.13250000000000001         -7.8625573911156528E-016
 -0.13224999999999998         -8.2762930422401461E-016
 -0.13200000000000001         -8.6574213846956463E-016
 -0.13174999999999998         -9.0013924293007080E-016
 -0.13150000000000001         -9.3036825859352716E-016
 -0.13124999999999998         -9.5598373768963735E-016
 -0.13100000000000001         -9.7655031579901710E-016
 -0.13074999999999998         -9.9164597443495075E-016
 -0.13050000000000000         -1.0008667196991807E-015
 -0.13024999999999998         -1.0038293932875146E-015
 -0.13000000000000000         -1.0001762003278649E-015
 -0.12974999999999998         -9.8957784723596411E-016
 -0.12950000000000000         -9.7173721349603293E-016
 -0.12924999999999998         -9.4639336944771016E-016
 -0.12900000000000000         -9.1332434363989555E-016
 -0.12874999999999998         -8.7235099061227014E-016
 -0.12850000000000000         -8.2333937405939430E-016
 -0.12824999999999998         -7.6620402235964998E-016
 -0.12800000000000000         -7.0091049360781570E-016
 -0.12774999999999997         -6.2747726431080693E-016
 -0.12750000000000000         -5.4597805661381398E-016
 -0.12724999999999997         -4.5654345292766594E-016
 -0.12700000000000000         -3.5936188843395357E-016
 -0.12674999999999997         -2.5468098976554531E-016
 -0.12650000000000000         -1.4280751181499143E-016
 -0.12624999999999997         -2.4107864608547668E-017
 -0.12600000000000000          1.0099230478083725E-016
 -0.12574999999999997          2.3200890046306870E-016
 -0.12550000000000000          3.6840061021276231E-016
 -0.12524999999999997          5.0957048153997376E-016
 -0.12499999999999999          6.5486804489006394E-016
 -0.12474999999999999          8.0359135382721209E-016
 -0.12449999999999999          9.5499054743132420E-016
 -0.12424999999999999          1.1082705071558451E-015
 -0.12399999999999999          1.2625948143509712E-015
 -0.12374999999999999          1.4170895085416806E-015
 -0.12349999999999998          1.5708478291447804E-015
 -0.12324999999999998          1.7229340176279803E-015
 -0.12299999999999998          1.8723893645312456E-015
 -0.12274999999999998          2.0182368252662208E-015
 -0.12249999999999998          2.1594853863800762E-015
 -0.12224999999999998          2.2951368865636420E-015
 -0.12199999999999998          2.4241913045087087E-015
 -0.12174999999999998          2.5456517223547474E-015
 -0.12149999999999998          2.6585311399061512E-015
 -0.12124999999999998          2.7618573584371695E-015
 -0.12099999999999998          2.8546787938293772E-015
 -0.12074999999999998          2.9360704074569171E-015
 -0.12049999999999998          3.0051386230697623E-015
 -0.12024999999999998          3.0610267045444247E-015
 -0.12000000000000000          3.1029204686845818E-015
 -0.11975000000000000          3.1300521935735514E-015
 -0.11950000000000000          3.1417058432447761E-015
 -0.11924999999999999          3.1372205409452092E-015
 -0.11899999999999999          3.1159954478851150E-015
 -0.11874999999999999          3.0774920825404392E-015
 -0.11849999999999999          3.0212397523099794E-015
 -0.11824999999999999          2.9468358104349065E-015
 -0.11799999999999999          2.8539494597890813E-015
 -0.11774999999999999          2.7423237402012428E-015
 -0.11749999999999999          2.6117776153534878E-015
 -0.11724999999999999          2.4622054825066160E-015
 -0.11699999999999999          2.2935808211300491E-015
 -0.11674999999999999          2.1059545841639776E-015
 -0.11649999999999999          1.8994569172184781E-015
 -0.11624999999999999          1.6742964393635522E-015
 -0.11599999999999999          1.4307597786412439E-015
 -0.11574999999999999          1.1692125404642885E-015
 -0.11549999999999999          8.9009713746254008E-016
 -0.11524999999999999          5.9393301422373387E-016
 -0.11499999999999999          2.8131514514989111E-016
 -0.11474999999999999         -4.7087824289883254E-017
 -0.11449999999999999         -3.9053119005075284E-016
 -0.11424999999999999         -7.4819958265651226E-016
 -0.11399999999999999         -1.1192037572023790E-015
 -0.11374999999999999         -1.5025841804167543E-015
 -0.11349999999999999         -1.8973106350861562E-015
 -0.11324999999999999         -2.3022812144600754E-015
 -0.11299999999999999         -2.7163250808150324E-015
 -0.11274999999999999         -3.1382021841875214E-015
 -0.11249999999999999         -3.5666017634086550E-015
 -0.11224999999999999         -4.0001407128324574E-015
 -0.11199999999999999         -4.4373656109415273E-015
 -0.11174999999999999         -4.8767510596768479E-015
 -0.11149999999999999         -5.3166962030299071E-015
 -0.11124999999999999         -5.7555266287563478E-015
 -0.11099999999999999         -6.1914893879017997E-015
 -0.11074999999999999         -6.6227549872685136E-015
 -0.11049999999999999         -7.0474108678192395E-015
 -0.11024999999999999         -7.4634642107128431E-015
 -0.10999999999999999         -7.8688381391385905E-015
 -0.10974999999999999         -8.2613694520837245E-015
 -0.10949999999999999         -8.6388084667347895E-015
 -0.10924999999999999         -8.9988166551219030E-015
 -0.10899999999999999         -9.3389697315814015E-015
 -0.10874999999999999         -9.6567525499861438E-015
 -0.10849999999999999         -9.9495629579075064E-015
 -0.10824999999999999         -1.0214715315968957E-014
 -0.10799999999999998         -1.0449439462331725E-014
 -0.10774999999999998         -1.0650885212372085E-014
 -0.10749999999999998         -1.0816130202766107E-014
 -0.10724999999999998         -1.0942183600395514E-014
 -0.10699999999999998         -1.1025994720531274E-014
 -0.10674999999999998         -1.1064463843488658E-014
 -0.10649999999999998         -1.1054451998699554E-014
 -0.10624999999999998         -1.0992796574161420E-014
 -0.10599999999999998         -1.0876323291047351E-014
 -0.10574999999999998         -1.0701865149360027E-014
 -0.10549999999999998         -1.0466282341896880E-014
 -0.10524999999999998         -1.0166486996366757E-014
 -0.10499999999999998         -9.7994617143524854E-015
 -0.10474999999999998         -9.3622865750554979E-015
 -0.10449999999999998         -8.8521711177904245E-015
 -0.10424999999999998         -8.2664799566599631E-015
 -0.10399999999999998         -7.6027688926709967E-015