  -1.99999995E-04     0.00000000    
  -1.99500006E-04     0.00000000    
  -1.99000002E-04     0.00000000    
  -1.98499998E-04     0.00000000    
  -1.97999994E-04     0.00000000    
  -1.97500005E-04     0.00000000    
  -1.97000001E-04     0.00000000    
  -1.96499997E-04     0.00000000    
  -1.95999994E-04     0.00000000    
  -1.95500004E-04     0.00000000    
  -1.95000001E-04     0.00000000    
  -1.94499997E-04     0.00000000    
  -1.93999993E-04     0.00000000    
  -1.93500004E-04     0.00000000    
  -1.93000000E-04     0.00000000    
  -1.92499996E-04     0.00000000    
  -1.92000007E-04     0.00000000    
  -1.91500003E-04     0.00000000    
  -1.90999999E-04     0.00000000    
  -1.90499995E-04     0.00000000    
  -1.90000006E-04     0.00000000    
  -1.89500002E-04     0.00000000    
  -1.88999998E-04     0.00000000    
  -1.88499995E-04     0.00000000    
  -1.88000005E-04     0.00000000    
  -1.87500002E-04     0.00000000    
  -1.86999998E-04     0.00000000    
  -1.86499994E-04     0.00000000    
  -1.86000005E-04     0.00000000    
  -1.85500001E-04     0.00000000    
  -1.84999997E-04     0.00000000    
  -1.84499993E-04     0.00000000    
  -1.84000004E-04     0.00000000    
  -1.83500000E-04     0.00000000    
  -1.82999996E-04     0.00000000    
  -1.82500007E-04     0.00000000    
  -1.82000003E-04     0.00000000    
  -1.81500000E-04     0.00000000    
  -1.80999996E-04     0.00000000    
  -1.80500007E-04     0.00000000    
  -1.80000003E-04     0.00000000    
  -1.79499999E-04     0.00000000    
  -1.78999995E-04     0.00000000    
  -1.78500006E-04     0.00000000    
  -1.78000002E-04     0.00000000    
  -1.77499998E-04     0.00000000    
  -1.76999994E-04    -3.48344605E-27
  -1.76500005E-04     7.14981308E-27
  -1.76000001E-04     1.23127544E-26
  -1.75499998E-04     7.90079017E-27
  -1.74999994E-04    -6.70977044E-27
  -1.74500005E-04     0.00000000    
  -1.74000001E-04     4.79160932E-27
  -1.73499997E-04     0.00000000    
  -1.72999993E-04     1.29457390E-26
  -1.72500004E-04     2.20951604E-26
  -1.72000000E-04    -8.65660027E-26
  -1.71499996E-04    -2.53025508E-25
  -1.71000007E-04    -2.73321371E-25
  -1.70500003E-04    -1.15079978E-25
  -1.69999999E-04     1.26960285E-25
  -1.69499996E-04     2.46240984E-25
  -1.69000006E-04     5.12127853E-26
  -1.68500002E-04     2.25268722E-25
  -1.67999999E-04     5.37441136E-26
  -1.67499995E-04    -4.33306288E-26
  -1.67000006E-04    -2.22700610E-25
  -1.66500002E-04    -6.35115366E-25
  -1.65999998E-04    -1.18562008E-24
  -1.65499994E-04    -1.79397284E-24
  -1.65000005E-04    -2.35015469E-24
  -1.64500001E-04    -2.50411273E-24
  -1.63999997E-04    -1.50257255E-24
  -1.63499994E-04     1.81392215E-24
  -1.63000004E-04     6.67374196E-24
  -1.62500000E-04     1.30164361E-23
  -1.61999997E-04     2.11872609E-23
  -1.61499993E-04     3.04526720E-23
  -1.61000004E-04     3.85833857E-23
  -1.60500000E-04     4.19594043E-23
  -1.59999996E-04     3.72377751E-23
  -1.59500007E-04     1.86270223E-23
  -1.59000003E-04    -1.89672359E-23
  -1.58499999E-04    -7.92586916E-23
  -1.57999995E-04    -1.62111850E-22
  -1.57500006E-04    -2.61546770E-22
  -1.57000002E-04    -3.64201530E-22
  -1.56499998E-04    -4.45837375E-22
  -1.55999995E-04    -4.72750886E-22
  -1.55500005E-04    -4.03185168E-22
  -1.55000002E-04    -1.93236464E-22
  -1.54499998E-04     1.93747419E-22
  -1.53999994E-04     7.72890019E-22
  -1.53500005E-04     1.52282063E-21
  -1.53000001E-04     2.36826838E-21
  -1.52499997E-04     3.16908968E-21
  -1.51999993E-04     3.71576155E-21
  -1.51500004E-04     3.74171959E-21
  -1.51000000E-04     2.95484202E-21
  -1.50499996E-04     1.09281858E-21
  -1.50000007E-04    -1.99946397E-21
  -1.49500003E-04    -6.27698778E-21
  -1.49000000E-04    -1.13998825E-20
  -1.48499996E-04    -1.66596195E-20
  -1.48000006E-04    -2.09533880E-20
  -1.47500003E-04    -2.28384842E-20
  -1.46999999E-04    -2.06941331E-20
  -1.46499995E-04    -1.30077584E-20
  -1.46000006E-04     1.21882822E-21
  -1.45500002E-04     2.19782842E-20
  -1.44999998E-04     4.77528330E-20
  -1.44499994E-04     7.51070755E-20
  -1.44000005E-04     9.85213727E-20
  -1.43500001E-04     1.10624550E-19
  -1.42999997E-04     1.02971650E-19
  -1.42499994E-04     6.74595322E-20
  -1.42000004E-04    -1.62382552E-21
  -1.41500001E-04    -1.05069729E-19
  -1.40999997E-04    -2.36060028E-19
  -1.40499993E-04    -3.77855070E-19
  -1.40000004E-04    -5.02539416E-19
  -1.39500000E-04    -5.71623731E-19
  -1.38999996E-04    -5.39282313E-19
  -1.38500007E-04    -3.58792382E-19
  -1.38000003E-04     7.64470871E-21
  -1.37499999E-04     5.76126127E-19
  -1.36999995E-04     1.32663620E-18
  -1.36500006E-04     2.18910330E-18
  -1.36000002E-04     3.03311642E-18
  -1.35499999E-04     3.66494158E-18
  -1.34999995E-04     3.83596076E-18
  -1.34500006E-04     3.26598823E-18
  -1.34000002E-04     1.68391194E-18
  -1.33499998E-04    -1.11460427E-18
  -1.32999994E-04    -5.19522240E-18
  -1.32500005E-04    -1.04064656E-17
  -1.32000001E-04    -1.63058359E-17
  -1.31499997E-04    -2.21061239E-17
  -1.30999993E-04    -2.66605705E-17
  -1.30500004E-04    -2.85052792E-17
  -1.30000000E-04    -2.59764044E-17
  -1.29499997E-04    -1.74126647E-17
  -1.28999993E-04    -1.44406048E-18
  -1.28500003E-04     2.26461223E-17
  -1.28000000E-04     5.45163375E-17
  -1.27499996E-04     9.23671760E-17
  -1.27000007E-04     1.32613424E-16
  -1.26500003E-04     1.69705301E-16
  -1.25999999E-04     1.96187799E-16
  -1.25499995E-04     2.03074190E-16
  -1.25000006E-04     1.80600739E-16
  -1.24500002E-04     1.19388937E-16
  -1.23999998E-04     1.20025197E-17
  -1.23499995E-04    -1.45188038E-16
  -1.23000005E-04    -3.49963177E-16
  -1.22500001E-04    -5.92284241E-16
  -1.21999998E-04    -8.52632100E-16
  -1.21500001E-04    -1.10104511E-15
  -1.20999997E-04    -1.29717145E-15
  -1.20500001E-04    -1.39171314E-15
  -1.19999997E-04    -1.32955225E-15
  -1.19500000E-04    -1.05475846E-15
  -1.18999997E-04    -5.17558942E-16
  -1.18500000E-04     3.16923386E-16
  -1.18000004E-04     1.45849216E-15
  -1.17500000E-04     2.88102185E-15
  -1.17000003E-04     4.51171125E-15
  -1.16499999E-04     6.22215876E-15
  -1.16000003E-04     7.82229336E-15
  -1.15499999E-04     9.05966112E-15
  -1.15000003E-04     9.62568326E-15
  -1.14499999E-04     9.17128058E-15
  -1.14000002E-04     7.33360618E-15
  -1.13499998E-04     3.77552654E-15
  -1.13000002E-04    -1.76179274E-15
  -1.12499998E-04    -9.39384357E-15
  -1.12000002E-04    -1.90180208E-14
  -1.11499998E-04    -3.02349359E-14
  -1.11000001E-04    -4.22727174E-14
  -1.10499997E-04    -5.39278129E-14
  -1.10000001E-04    -6.35354399E-14
  -1.09499997E-04    -6.89882450E-14
  -1.09000001E-04    -6.78219145E-14
  -1.08499997E-04    -5.73857978E-14
  -1.08000000E-04    -3.51144352E-14
  -1.07499996E-04     1.09467679E-15
  -1.07000000E-04     5.24013308E-14
  -1.06500003E-04     1.18460566E-13
  -1.06000000E-04     1.96829288E-13
  -1.05500003E-04     2.82397613E-13
  -1.04999999E-04     3.66949120E-13
  -1.04500003E-04     4.38959199E-13
  -1.03999999E-04     4.83762498E-13
  -1.03500002E-04     4.84225182E-13
  -1.02999998E-04     4.22033122E-13
  -1.02500002E-04     2.79674369E-13
  -1.01999998E-04     4.31321137E-14
  -1.01500002E-04    -2.94819941E-13
  -1.00999998E-04    -7.30898794E-13
  -1.00500001E-04    -1.24755913E-12
  -9.99999975E-05    -1.80964922E-12
  -9.95000009E-05    -2.36216970E-12
  -9.89999971E-05    -2.82979846E-12
  -9.85000006E-05    -3.11897318E-12
  -9.79999968E-05    -3.12321132E-12
  -9.75000003E-05    -2.73217386E-12
  -9.69999965E-05    -1.84463013E-12
  -9.64999999E-05    -3.85130431E-13
  -9.60000034E-05     1.67658162E-12
  -9.54999996E-05     4.30492838E-12
  -9.50000031E-05     7.37888136E-12
  -9.44999992E-05     1.06763634E-11
  -9.40000027E-05     1.38660403E-11
  -9.34999989E-05     1.65104180E-11
  -9.30000024E-05     1.80833595E-11
  -9.24999986E-05     1.80052084E-11
  -9.20000020E-05     1.56968188E-11
  -9.14999982E-05     1.06521389E-11
  -9.10000017E-05     2.52639142E-12
  -9.04999979E-05    -8.76610937E-12
  -9.00000014E-05    -2.29531550E-11
  -8.94999976E-05    -3.93177435E-11
  -8.90000010E-05    -5.66363761E-11
  -8.84999972E-05    -7.31599989E-11
  -8.80000007E-05    -8.66522062E-11
  -8.74999969E-05    -9.44991099E-11
  -8.70000003E-05    -9.38997768E-11
  -8.64999965E-05    -8.21399476E-11
  -8.60000000E-05    -5.69419581E-11
  -8.55000035E-05    -1.68716742E-11
  -8.49999997E-05     3.82276363E-11
  -8.45000031E-05     1.06816299E-10
  -8.39999993E-05     1.85312349E-10
  -8.35000028E-05     2.67876166E-10
  -8.29999990E-05     3.46392803E-10
  -8.25000025E-05     4.10710688E-10
  -8.19999987E-05     4.49185938E-10
  -8.15000021E-05     4.49556337E-10
  -8.09999983E-05     4.00142780E-10
  -8.05000018E-05     2.91331348E-10
  -7.99999980E-05     1.17256690E-10
  -7.95000014E-05    -1.22461638E-10
  -7.89999976E-05    -4.21086888E-10
  -7.85000011E-05    -7.63472952E-10
  -7.79999973E-05    -1.12532195E-09
  -7.75000008E-05    -1.47325563E-09
  -7.69999970E-05    -1.76587400E-09
  -7.65000004E-05    -1.95600025E-09
  -7.59999966E-05    -1.99413641E-09
  -7.55000001E-05    -1.83311599E-09
  -7.50000036E-05    -1.43375534E-09
  -7.44999998E-05    -7.71161968E-10
  -7.40000032E-05     1.58800320E-10
  -7.34999994E-05     1.33352396E-09
  -7.30000029E-05     2.69888911E-09
  -7.24999991E-05     4.16659196E-09
  -7.20000025E-05     5.61423263E-09
  -7.14999987E-05     6.88902890E-09
  -7.10000022E-05     7.81552512E-09
  -7.04999984E-05     8.20757240E-09
  -7.00000019E-05     7.88441046E-09
  -6.94999981E-05     6.69019329E-09
  -6.90000015E-05     4.51583659E-09
  -6.84999977E-05     1.32163025E-09
  -6.80000012E-05    -2.84162383E-09
  -6.74999974E-05    -7.81516007E-09
  -6.70000009E-05    -1.33212730E-08
  -6.64999970E-05    -1.89612877E-08
  -6.60000005E-05    -2.42247911E-08
  -6.54999967E-05    -2.85119395E-08
  -6.50000002E-05    -3.11693782E-08
  -6.44999964E-05    -3.15399831E-08
  -6.39999998E-05    -2.90242159E-08
  -6.35000033E-05    -2.31504096E-08
  -6.29999995E-05    -1.36490614E-08
  -6.25000030E-05    -5.25239463E-10
  -6.19999992E-05     1.58783102E-08
  -6.15000026E-05     3.48346703E-08
  -6.09999988E-05     5.52114834E-08
  -6.04999987E-05     7.54821343E-08
  -5.99999985E-05     9.37747942E-08
  -5.94999983E-05     1.07964276E-07
  -5.90000018E-05     1.15806372E-07
  -5.85000016E-05     1.15112542E-07
  -5.80000014E-05     1.03957539E-07
  -5.75000013E-05     8.09091674E-08
  -5.70000011E-05     4.52637572E-08
  -5.65000009E-05    -2.73122103E-09
  -5.60000008E-05    -6.16895690E-08
  -5.55000006E-05    -1.28958391E-07
  -5.50000004E-05    -2.00570312E-07
  -5.45000003E-05    -2.71300962E-07
  -5.40000001E-05    -3.34844543E-07
  -5.34999999E-05    -3.84118209E-07
  -5.29999998E-05    -4.11697272E-07
  -5.24999996E-05    -4.10370149E-07
  -5.19999994E-05    -3.73791920E-07
  -5.14999992E-05    -2.97202774E-07
  -5.09999991E-05    -1.78164683E-07
  -5.04999989E-05    -1.72593566E-08
  -4.99999987E-05     1.81314718E-07
  -4.94999986E-05     4.09319853E-07
  -4.89999984E-05     6.54298674E-07
  -4.84999982E-05     8.99696090E-07
  -4.80000017E-05     1.12534303E-06
  -4.75000015E-05     1.30833030E-06
  -4.70000014E-05     1.42428269E-06
  -4.65000012E-05     1.44902913E-06
  -4.60000010E-05     1.36058327E-06
  -4.55000009E-05     1.14138231E-06
  -4.50000007E-05     7.80637265E-07
  -4.45000005E-05     2.76628725E-07
  -4.40000003E-05    -3.61219634E-07
  -4.35000002E-05    -1.11072666E-06
  -4.30000000E-05    -1.93600158E-06
  -4.24999998E-05    -2.78735843E-06
  -4.19999997E-05    -3.60232457E-06
  -4.14999995E-05    -4.30783530E-06
  -4.09999993E-05    -4.82374162E-06
  -4.04999992E-05    -5.06762854E-06
  -3.99999990E-05    -4.96078610E-06
  -3.94999988E-05    -4.43523504E-06
  -3.89999987E-05    -3.44134310E-06
  -3.84999985E-05    -1.95567418E-06
  -3.79999983E-05     1.15452519E-08
  -3.75000018E-05     2.40997565E-06
  -3.70000016E-05     5.14446583E-06
  -3.65000014E-05     8.07285414E-06
  -3.60000013E-05     1.10069423E-05
  -3.55000011E-05     1.37172765E-05
  -3.50000009E-05     1.59421816E-05
  -3.45000008E-05     1.74012639E-05
  -3.40000006E-05     1.78132141E-05
  -3.35000004E-05     1.69176492E-05
  -3.30000003E-05     1.44999040E-05
  -3.25000001E-05     1.04176434E-05
  -3.19999999E-05     4.62763182E-06
  -3.14999997E-05    -2.78949005E-06
  -3.09999996E-05    -1.16089386E-05
  -3.04999994E-05    -2.14479187E-05
  -2.99999992E-05    -3.17616505E-05
  -2.95000009E-05    -4.18508607E-05
  -2.90000007E-05    -5.08826670E-05
  -2.85000006E-05    -5.79270709E-05
  -2.80000004E-05    -6.20079809E-05
  -2.75000002E-05    -6.21693616E-05
  -2.70000000E-05    -5.75535269E-05
  -2.64999999E-05    -4.74886619E-05
  -2.59999997E-05    -3.15805628E-05
  -2.54999995E-05    -9.80201003E-06
  -2.49999994E-05     1.74269517E-05
  -2.44999992E-05     4.91769824E-05
  -2.40000008E-05     8.39727873E-05
  -2.35000007E-05     1.19792065E-04
  -2.30000005E-05     1.54106339E-04
  -2.25000003E-05     1.83967684E-04
  -2.20000002E-05     2.06148223E-04
  -2.15000000E-05     2.17328576E-04
  -2.09999998E-05     2.14333122E-04
  -2.04999997E-05     1.94402426E-04
  -1.99999995E-05     1.55490416E-04
  -1.94999993E-05     9.65679574E-05
  -1.89999992E-05     1.79107792E-05
  -1.85000008E-05    -7.86526143E-05
  -1.80000006E-05    -1.89559985E-04
  -1.75000005E-05    -3.09432333E-04
  -1.70000003E-05    -4.31107241E-04
  -1.65000001E-05    -5.45816787E-04
  -1.60000000E-05    -6.43523119E-04
  -1.54999998E-05    -7.13413465E-04
  -1.49999996E-05    -7.44556135E-04
  -1.45000004E-05    -7.26694649E-04
  -1.40000002E-05    -6.51150418E-04
  -1.35000000E-05    -5.11783233E-04
  -1.29999999E-05    -3.05957103E-04
  -1.24999997E-05    -3.54310796E-05
  -1.20000004E-05     2.92895886E-04
  -1.15000003E-05     6.66482549E-04
  -1.10000001E-05     1.06695411E-03
  -1.04999999E-05     1.47030572E-03
  -9.99999975E-06     1.84756750E-03
  -9.49999958E-06     2.16594362E-03
  -9.00000032E-06     2.39048130E-03
  -8.50000015E-06     2.48618145E-03
  -7.99999998E-06     2.42055580E-03
  -7.49999981E-06     2.16645794E-03
  -7.00000010E-06     1.70509249E-03
  -6.49999993E-06     1.02898036E-03
  -6.00000021E-06     1.44670776E-04
  -5.50000004E-06    -9.25025844E-04
  -4.99999987E-06    -2.13957671E-03
  -4.50000016E-06    -3.44022806E-03
  -3.99999999E-06    -4.75074677E-03
  -3.50000005E-06    -5.97950397E-03
  -3.00000011E-06    -7.02309143E-03
  -2.49999994E-06    -7.77139561E-03
  -1.99999999E-06    -8.11414886E-03
  -1.50000005E-06    -7.94865377E-03
  -9.99999997E-07    -7.18846871E-03
  -4.99999999E-07    -5.77252638E-03
   0.00000000        -3.67418444E-03
   4.99999999E-07    -9.09560884E-04
   9.99999997E-07     2.45555420E-03
   1.50000005E-06     6.30100258E-03
   1.99999999E-06     1.04503427E-02
   2.49999994E-06     1.46725690E-02
   3.00000011E-06     1.86878573E-02
   3.50000005E-06     2.21776534E-02
   3.99999999E-06     2.47993469E-02
   4.50000016E-06     2.62051616E-02
   4.99999987E-06     2.60649305E-02
   5.50000004E-06     2.40919106E-02
   6.00000021E-06     2.00702753E-02
   6.49999993E-06     1.38828121E-02
   7.00000010E-06     5.53737860E-03
   7.49999981E-06    -4.81053162E-03
   7.99999998E-06    -1.68405809E-02
   8.50000015E-06    -3.00584752E-02
   9.00000032E-06    -4.37964052E-02
   9.49999958E-06    -5.72251342E-02
   9.99999975E-06    -6.93788528E-02
   1.04999999E-05    -7.91933537E-02
   1.10000001E-05    -8.55579749E-02
   1.15000003E-05    -8.73793662E-02
   1.20000004E-05    -8.36564526E-02
   1.24999997E-05    -7.35620931E-02
   1.29999999E-05    -5.65301329E-02
   1.35000000E-05    -3.23396288E-02
   1.40000002E-05    -1.19392388E-03
   1.45000004E-05     3.62134203E-02
   1.49999996E-05     7.86515325E-02
   1.54999998E-05    0.124330275    
   1.60000000E-05    0.170909390    
   1.65000001E-05    0.215543181    
   1.70000003E-05    0.254965872    
   1.75000005E-05    0.285616755    
   1.80000006E-05    0.303807408    
   1.85000008E-05    0.305926979    
   1.89999992E-05    0.288679004    
   1.94999993E-05    0.249344602    
   1.99999995E-05    0.186055362    
   2.04999997E-05     9.80657563E-02
   2.09999998E-05    -1.39901880E-02
   2.15000000E-05   -0.147881046    
   2.20000002E-05   -0.299614161    
   2.25000003E-05   -0.463345438    
   2.30000005E-05   -0.631383419    
   2.35000007E-05   -0.794300318    
   2.40000008E-05   -0.941165030    
   2.44999992E-05    -1.05990767    
   2.49999994E-05    -1.13780892    
   2.54999995E-05    -1.16212261    
   2.59999997E-05    -1.12080932    
   2.64999999E-05    -1.00336039    
   2.70000000E-05   -0.801681101    
   2.75000002E-05   -0.511006474    
   2.80000004E-05   -0.130782500    
   2.85000006E-05    0.334517121    
   2.90000007E-05    0.874719441    
   2.95000009E-05     1.47346389    
   2.99999992E-05     2.10797358    
   3.04999994E-05     2.74912763    
   3.09999996E-05     3.36190677    
   3.14999997E-05     3.90621781    
   3.19999999E-05     4.33815384    
   3.25000001E-05     4.61167383    
   3.30000003E-05     4.68068838    
   3.35000004E-05     4.50153112    
   3.40000006E-05     4.03572559    
   3.45000008E-05     3.25297785    
   3.50000009E-05     2.13425756    
   3.55000011E-05    0.674850225    
   3.60000013E-05    -1.11281765    
   3.65000014E-05    -3.19671106    
   3.70000016E-05    -5.52330828    
   3.75000018E-05    -8.01648808    
   3.79999983E-05    -10.5773544    
   3.84999985E-05    -13.0851870    
   3.89999987E-05    -15.3996506    
   3.94999988E-05    -17.3643513    
   3.99999990E-05    -18.8118191    
   4.04999992E-05    -19.5698605    
   4.09999993E-05    -19.4692974    
   4.14999995E-05    -18.3527832    
   4.19999997E-05    -16.0846958    
   4.24999998E-05    -12.5615425    
   4.30000000E-05    -7.72262383    
   4.35000002E-05    -1.56054103    
   4.40000003E-05     5.86916637    
   4.45000005E-05     14.4396009    
   4.50000007E-05     23.9462204    
   4.55000009E-05     34.1027756    
   4.60000010E-05     44.5408707    
   4.65000012E-05     54.8126450    
   4.70000014E-05     64.3982697    
   4.75000015E-05     72.7172928    
   4.80000017E-05     79.1451492    
   4.84999982E-05     83.0341034    
   4.89999984E-05     83.7390213    
   4.94999986E-05     80.6468048    
   4.99999987E-05     73.2098923    
   5.04999989E-05     60.9816551    
   5.09999991E-05     43.6537132    
   5.14999992E-05     21.0928364    
   5.19999994E-05    -6.62327623    
   5.24999996E-05    -39.1743202    
   5.29999998E-05    -75.9702148    
   5.34999999E-05    -116.131989    
   5.40000001E-05    -158.481216    
   5.45000003E-05    -201.541107    
   5.50000004E-05    -243.550095    
   5.55000006E-05    -282.489960    
   5.60000008E-05    -316.128723    
   5.65000009E-05    -342.079895    
   5.70000011E-05    -357.877319    
   5.75000013E-05    -361.065247    
   5.80000014E-05    -349.302155    
   5.85000016E-05    -320.476776    
   5.90000018E-05    -272.832245    
   5.94999983E-05    -205.095917    
   5.99999985E-05    -116.610550    
   6.04999987E-05    -7.45953035    
   6.09999988E-05     121.414581    
   6.15000026E-05     268.112671    
   6.19999992E-05     429.697968    
   6.25000030E-05     602.148254    
   6.29999995E-05     780.341187    
   6.35000033E-05     958.080811    
   6.39999998E-05     1128.16821    
   6.44999964E-05     1282.52563    
   6.50000002E-05     1412.37048    
   6.54999967E-05     1508.44128    
   6.60000005E-05     1561.28296    
   6.64999970E-05     1561.57617    
   6.70000009E-05     1500.51367    
   6.74999974E-05     1370.21814    
   6.80000012E-05     1164.18335    
   6.84999977E-05     877.734436    
   6.90000015E-05     508.486053    
   6.94999981E-05     56.7898636    
   7.00000019E-05    -473.854462    
   7.04999984E-05    -1076.44104    
   7.10000022E-05    -1740.17407    
   7.14999987E-05    -2450.27930    
   7.20000025E-05    -3187.92529    
   7.24999991E-05    -3930.29199    
   7.30000029E-05    -4650.77686    
   7.34999994E-05    -5319.37158    
   7.40000032E-05    -5903.21973    
   7.44999998E-05    -6367.34717    
   7.50000036E-05    -6675.58545    
   7.55000001E-05    -6791.66113    
   7.59999966E-05    -6680.45166    
   7.65000004E-05    -6309.39111    
   7.69999970E-05    -5649.97949    
   7.75000008E-05    -4679.38086    
   7.79999973E-05    -3382.07471    
   7.85000011E-05    -1751.44299    
   7.89999976E-05     208.635681    
   7.95000014E-05     2482.38013    
   7.99999980E-05     5040.85693    
   8.05000018E-05     7841.02295    
   8.09999983E-05     10825.0664    
   8.15000021E-05     13920.1514    
   8.19999987E-05     17038.6445    
   8.25000025E-05     20078.8066    
   8.29999990E-05     22926.0723    
   8.35000028E-05     25454.9414    
   8.39999993E-05     27531.4297    
   8.45000031E-05     29016.2012    
   8.49999997E-05     29768.2441    
   8.55000035E-05     29649.1797    
   8.60000000E-05     28528.0234    
   8.64999965E-05     26286.4180    
   8.70000003E-05     22824.1680    
   8.74999969E-05     18064.9629    
   8.80000007E-05     11962.2070    
   8.84999972E-05     4504.66260    
   8.90000010E-05    -4278.18701    
   8.94999976E-05    -14311.2871    
   9.00000014E-05    -25469.8848    
   9.04999979E-05    -37576.4062    
   9.10000017E-05    -50398.2773    
   9.14999982E-05    -63647.4414    
   9.20000020E-05    -76981.2422    
   9.24999986E-05    -90005.0391    
   9.30000024E-05    -102276.773    
   9.34999989E-05    -113313.445    
   9.40000027E-05    -122599.852    
   9.44999992E-05    -129599.172    
   9.50000031E-05    -133765.750    
   9.54999996E-05    -134559.578    
   9.60000034E-05    -131463.156    
   9.64999999E-05    -123998.781    
   9.69999965E-05    -111748.266    
   9.75000003E-05    -94372.6719    
   9.79999968E-05    -71632.6562    
   9.85000006E-05    -43408.8320    
   9.89999971E-05    -9721.27539    
   9.95000009E-05     29252.3516    
   9.99999975E-05     73160.3750    
   1.00500001E-04     121463.508    
   1.00999998E-04     173424.484    
   1.01500002E-04     228102.406    
   1.01999998E-04     284349.750    
   1.02500002E-04     340817.219    
   1.02999998E-04     395962.375    
   1.03500002E-04     448065.625    
   1.03999999E-04     495252.031    
   1.04500003E-04     535520.562    
   1.04999999E-04     566780.500    
   1.05500003E-04     586892.062    
   1.06000000E-04     593718.312    
   1.06500003E-04     585178.312    
   1.07000000E-04     559309.125    
   1.07499996E-04     514330.188    
   1.08000000E-04     448712.750    
   1.08499997E-04     361252.375    
   1.09000001E-04     251139.625    
   1.09499997E-04     118034.133    
   1.10000001E-04    -37865.4805    
   1.10499997E-04    -215756.453    
   1.11000001E-04    -414168.844    
   1.11499998E-04    -630914.000    
   1.12000002E-04    -863038.750    
   1.12499998E-04    -1106790.62    
   1.13000002E-04    -1357600.62    
   1.13499998E-04    -1610074.88    
   1.14000002E-04    -1858000.62    
   1.14499999E-04    -2094378.75    
   1.15000003E-04    -2311456.75    
   1.15499999E-04    -2500799.00    
   1.16000003E-04    -2653362.75    
   1.16499999E-04    -2759591.00    
   1.17000003E-04    -2809530.00    
   1.17500000E-04    -2792962.00    
   1.18000004E-04    -2699543.75    
   1.18500000E-04    -2518965.50    
   1.18999997E-04    -2241125.75    
   1.19500000E-04    -1856296.12    
   1.19999997E-04    -1355313.88    
   1.20500001E-04    -729742.250    
   1.20999997E-04     27924.1914    
   1.21500001E-04     924105.625    
   1.21999998E-04     1963972.38    
   1.22500001E-04     3151298.00    
   1.23000005E-04     4488329.00    
   1.23499995E-04     5975677.00    
   1.23999998E-04     7612218.00    
   1.24500002E-04     9395096.00    
   1.25000006E-04     11319654.0    
   1.25499995E-04     13379457.0    
   1.25999999E-04     15566357.0    
   1.26500003E-04     17870558.0    
   1.27000007E-04     20280804.0    
   1.27499996E-04     22784432.0    
   1.28000000E-04     25367680.0    
   1.28500003E-04     28015868.0    
   1.28999993E-04     30713672.0    
   1.29499997E-04     33445450.0    
   1.30000000E-04     36195480.0    
   1.30500004E-04     38948444.0    
   1.30999993E-04     41689620.0    
   1.31499997E-04     44405308.0    
   1.32000001E-04     47083260.0    
   1.32500005E-04     49712984.0    
   1.32999994E-04     52285972.0    
   1.33499998E-04     54796308.0    
   1.34000002E-04     57240700.0    
   1.34500006E-04     59618928.0    
   1.34999995E-04     61933856.0    
   1.35499999E-04     64191904.0    
   1.36000002E-04     66403100.0    
   1.36500006E-04     68580936.0    
   1.36999995E-04     70742672.0    
   1.37499999E-04     72909136.0    
   1.38000003E-04     75104792.0    
   1.38500007E-04     77357584.0    
   1.38999996E-04     79698480.0    
   1.39500000E-04     82161488.0    
   1.40000004E-04     84783192.0    
   1.40499993E-04     87602608.0    
   1.40999997E-04     90660512.0    
   1.41500001E-04     93999224.0    
   1.42000004E-04     97661864.0    
   1.42499994E-04     101692504.    
   1.42999997E-04     106135064.    
   1.43500001E-04     111032848.    
   1.44000005E-04     116428712.    
   1.44499994E-04     122364016.    
   1.44999998E-04     128878776.    
   1.45500002E-04     136010112.    
   1.46000006E-04     143794208.    
   1.46499995E-04     152263184.    
   1.46999999E-04     161447264.    
   1.47500003E-04     171373200.    
   1.48000006E-04     182065680.    
   1.48499996E-04     193545232.    
   1.49000000E-04     205830608.    
   1.49500003E-04     218937008.    
   1.50000007E-04     232877712.    
   1.50499996E-04     247664192.    
   1.51000000E-04     263305280.    
   1.51500004E-04     279809440.    
   1.51999993E-04     297183648.    
   1.52499997E-04     315435232.    
   1.53000001E-04     334570304.    
   1.53500005E-04     354598144.    
   1.53999994E-04     375527456.    
   1.54499998E-04     397370080.    
   1.55000002E-04     420139808.    
   1.55500005E-04     443853728.    
   1.55999995E-04     468533856.    
   1.56499998E-04     494203680.    
   1.57000002E-04     520894496.    
   1.57500006E-04     548639488.    
   1.57999995E-04     577478848.    
   1.58499999E-04     607458816.    
   1.59000003E-04     638629056.    
   1.59500007E-04     671045824.    
   1.59999996E-04     704772480.    
   1.60500000E-04     739875776.    
   1.61000004E-04     776429120.    
   1.61499993E-04     814510784.    
   1.61999997E-04     854205248.    
   1.62500000E-04     895600384.    
   1.63000004E-04     938786560.    
   1.63499994E-04     983862400.    
   1.63999997E-04     1.03092736E+09
   1.64500001E-04     1.08008218E+09
   1.65000005E-04     1.13143373E+09
   1.65499994E-04     1.18508813E+09
   1.65999998E-04     1.24115469E+09
   1.66500002E-04     1.29974490E+09
   1.67000006E-04     1.36096768E+09
   1.67499995E-04     1.42493376E+09
   1.67999999E-04     1.49175654E+09
   1.68500002E-04     1.56154675E+09
   1.69000006E-04     1.63441600E+09
   1.69499996E-04     1.71047309E+09
   1.69999999E-04     1.78983206E+09
   1.70500003E-04     1.87259738E+09
   1.71000007E-04     1.95888896E+09
   1.71499996E-04     2.04880896E+09
   1.72000000E-04     2.14246643E+09
   1.72500004E-04     2.23997491E+09
   1.72999993E-04     2.34144563E+09
   1.73499997E-04     2.44698496E+09
   1.74000001E-04     2.55671270E+09
   1.74500005E-04     2.67073408E+09
   1.74999994E-04     2.78916941E+09
   1.75499998E-04     2.91213542E+09
   1.76000001E-04     3.03975040E+09
   1.76500005E-04     3.17213389E+09
   1.76999994E-04     3.30941722E+09
   1.77499998E-04     3.45172045E+09
   1.78000002E-04     3.59917645E+09
   1.78500006E-04     3.75192346E+09
   1.78999995E-04     3.91009485E+09
   1.79499999E-04     4.07383834E+09
   1.80000003E-04     4.24329600E+09
   1.80500007E-04     4.41861734E+09
   1.80999996E-04     4.59995802E+09
   1.81500000E-04     4.78746931E+09
   1.82000003E-04     4.98131456E+09
   1.82500007E-04     5.18164378E+09
   1.82999996E-04     5.38863104E+09
   1.83500000E-04     5.60242688E+09
   1.84000004E-04     5.82320845E+09
   1.84499993E-04     6.05113549E+09
   1.84999997E-04     6.28638976E+09
   1.85500001E-04     6.52912384E+09
   1.86000005E-04     6.77951488E+09
   1.86499994E-04     7.03773184E+09
   1.86999998E-04     7.30393600E+09
   1.87500002E-04     7.57829222E+09
   1.88000005E-04     7.86097254E+09
   1.88499995E-04     8.15213414E+09
   1.88999998E-04     8.45193728E+09
   1.89500002E-04     8.76055552E+09
   1.90000006E-04     9.07811328E+09
   1.90499995E-04     9.40478976E+09
   1.90999999E-04     9.74071706E+09
   1.91500003E-04     1.00860293E+10
   1.92000007E-04     1.04409119E+10
   1.92499996E-04     1.08054252E+10
   1.93000000E-04     1.11797514E+10
   1.93500004E-04     1.15639880E+10
   1.93999993E-04     1.19582577E+10
   1.94499997E-04     1.23626680E+10
   1.95000001E-04     1.27773573E+10
   1.95500004E-04     1.32023716E+10
   1.95999994E-04     1.36378214E+10
   1.96499997E-04     1.40838052E+10
   1.97000001E-04     1.45403894E+10
   1.97500005E-04     1.50076252E+10
   1.97999994E-04     1.54855793E+10
   1.98499998E-04     1.59743099E+10
   1.99000002E-04     1.64738406E+10
   1.99500006E-04     1.69841674E+10
   1.99999995E-04     1.75054008E+10
   2.00499999E-04     1.80374426E+10
   2.01000003E-04     1.85803080E+10
   2.01500006E-04     1.91340155E+10
   2.01999996E-04     1.96984463E+10
   2.02499999E-04     2.02736230E+10
   2.03000003E-04     2.08594432E+10
   2.03500007E-04     2.14558454E+10
   2.03999996E-04     2.20626842E+10
   2.04500000E-04     2.26798285E+10