  -1.99999995E-04     0.00000000    
  -1.99500006E-04     0.00000000    
  -1.99000002E-04     0.00000000    
  -1.98499998E-04     0.00000000    
  -1.97999994E-04     0.00000000    
  -1.97500005E-04     0.00000000    
  -1.97000001E-04     0.00000000    
  -1.96499997E-04     0.00000000    
  -1.95999994E-04     0.00000000    
  -1.95500004E-04     0.00000000    
  -1.95000001E-04     0.00000000    
  -1.94499997E-04     0.00000000    
  -1.93999993E-04     0.00000000    
  -1.93500004E-04     6.45036116E-27
  -1.93000000E-04     1.54155084E-26
  -1.92499996E-04     2.02693157E-26
  -1.92000007E-04     2.23198209E-25
  -1.91500003E-04     1.77738275E-25
  -1.90999999E-04     2.14856991E-25
  -1.90499995E-04     2.11421379E-25
  -1.90000006E-04     2.29030677E-25
  -1.89500002E-04    -7.57175352E-27
  -1.88999998E-04    -1.25402827E-25
  -1.88499995E-04    -2.37042570E-25
  -1.88000005E-04    -1.11310098E-24
  -1.87500002E-04    -8.04113876E-25
  -1.86999998E-04    -1.23599101E-24
  -1.86499994E-04    -6.20819481E-25
  -1.86000005E-04     1.75326444E-25
  -1.85500001E-04     1.89739901E-24
  -1.84999997E-04     4.68552928E-24
  -1.84499993E-04     7.97687233E-24
  -1.84000004E-04     8.83470729E-24
  -1.83500000E-04     4.62517866E-24
  -1.82999996E-04    -8.66996789E-24
  -1.82500007E-04    -3.53369675E-23
  -1.82000003E-04    -7.83935573E-23
  -1.81500000E-04    -1.38003100E-22
  -1.80999996E-04    -2.06178150E-22
  -1.80500007E-04    -2.61211435E-22
  -1.80000003E-04    -2.64878313E-22
  -1.79499999E-04    -1.53842871E-22
  -1.78999995E-04     1.62953899E-22
  -1.78500006E-04     8.02618387E-22
  -1.78000002E-04     1.89359595E-21
  -1.77499998E-04     3.53632031E-21
  -1.76999994E-04     5.73441788E-21
  -1.76500005E-04     8.28079364E-21
  -1.76000001E-04     1.06003923E-20
  -1.75499998E-04     1.15615519E-20
  -1.74999994E-04     9.30056758E-21
  -1.74500005E-04     1.13391720E-21
  -1.74000001E-04    -1.63120550E-20
  -1.73499997E-04    -4.65968287E-20
  -1.72999993E-04    -9.23968111E-20
  -1.72500004E-04    -1.53722444E-19
  -1.72000000E-04    -2.25370916E-19
  -1.71499996E-04    -2.93769601E-19
  -1.71000007E-04    -3.33702340E-19
  -1.70500003E-04    -3.05856235E-19
  -1.69999999E-04    -1.56632581E-19
  -1.69499996E-04     1.77851522E-19
  -1.69000006E-04     7.61331452E-19
  -1.68500002E-04     1.63847501E-18
  -1.67999999E-04     2.80617011E-18
  -1.67499995E-04     4.17555851E-18
  -1.67000006E-04     5.52826930E-18
  -1.66500002E-04     6.47450685E-18
  -1.65999998E-04     6.42559980E-18
  -1.65499994E-04     4.59937691E-18
  -1.65000005E-04     8.06325451E-20
  -1.64500001E-04    -8.03866444E-18
  -1.63999997E-04    -2.04185365E-17
  -1.63499994E-04    -3.71192204E-17
  -1.63000004E-04    -5.71487769E-17
  -1.62500000E-04    -7.79538053E-17
  -1.61999997E-04    -9.49385629E-17
  -1.61499993E-04    -1.01152436E-16
  -1.61000004E-04    -8.73329747E-17
  -1.60500000E-04    -4.25398442E-17
  -1.59999996E-04     4.43844305E-17
  -1.59500007E-04     1.82317198E-16
  -1.59000003E-04     3.74230697E-16
  -1.58499999E-04     6.12560463E-16
  -1.57999995E-04     8.73974577E-16
  -1.57500006E-04     1.11437582E-15
  -1.57000002E-04     1.26544022E-15
  -1.56499998E-04     1.23441118E-15
  -1.55999995E-04     9.09269117E-16
  -1.55500005E-04     1.71448296E-16
  -1.55000002E-04    -1.08213213E-15
  -1.54499998E-04    -2.90685444E-15
  -1.53999994E-04    -5.26898200E-15
  -1.53500005E-04    -7.99848638E-15
  -1.53000001E-04    -1.07429087E-14
  -1.52499997E-04    -1.29329310E-14
  -1.51999993E-04    -1.37735723E-14
  -1.51500004E-04    -1.22778501E-14
  -1.51000000E-04    -7.36018268E-15
  -1.50499996E-04     1.99634125E-15
  -1.50000007E-04     1.64918738E-14
  -1.49500003E-04     3.61865316E-14
  -1.49000000E-04     6.01278941E-14
  -1.48499996E-04     8.59763378E-14
  -1.48000006E-04     1.09704428E-13
  -1.47500003E-04     1.25468307E-13
  -1.46999999E-04     1.25771355E-13
  -1.46499995E-04     1.02036421E-13
  -1.46000006E-04     4.56955844E-14
  -1.45500002E-04    -5.01564766E-14
  -1.44999998E-04    -1.88567654E-13
  -1.44499994E-04    -3.66145048E-13
  -1.44000005E-04    -5.70378868E-13
  -1.43500001E-04    -7.77328126E-13
  -1.42999997E-04    -9.50293338E-13
  -1.42499994E-04    -1.04019582E-12
  -1.42000004E-04    -9.88420175E-13
  -1.41500001E-04    -7.32791594E-13
  -1.40999997E-04    -2.17076262E-13
  -1.40499993E-04     5.96068605E-13
  -1.40000004E-04     1.70937841E-12
  -1.39500000E-04     3.07406140E-12
  -1.38999996E-04     4.57409848E-12
  -1.38500007E-04     6.01510508E-12
  -1.38000003E-04     7.12172378E-12
  -1.37499999E-04     7.54777924E-12
  -1.36999995E-04     6.90317161E-12
  -1.36500006E-04     4.80011690E-12
  -1.36000002E-04     9.19379915E-13
  -1.35499999E-04    -4.90616055E-12
  -1.34999995E-04    -1.25969738E-11
  -1.34500006E-04    -2.17327909E-11
  -1.34000002E-04    -3.14741150E-11
  -1.33499998E-04    -4.05190603E-11
  -1.32999994E-04    -4.71167827E-11
  -1.32500005E-04    -4.91582608E-11
  -1.32000001E-04    -4.43614000E-11
  -1.31499997E-04    -3.05587985E-11
  -1.30999993E-04    -6.08318734E-12
  -1.30500004E-04     2.97704708E-11
  -1.30000000E-04     7.62482993E-11
  -1.29499997E-04     1.30669683E-10
  -1.28999993E-04     1.88069268E-10
  -1.28500003E-04     2.41046128E-10
  -1.28000000E-04     2.79920170E-10
  -1.27499996E-04     2.93286478E-10
  -1.27000007E-04     2.69033296E-10
  -1.26500003E-04     1.95845770E-10
  -1.25999999E-04     6.51505447E-11
  -1.25499995E-04    -1.26619382E-10
  -1.25000006E-04    -3.75649595E-10
  -1.24500002E-04    -6.68557765E-10
  -1.23999998E-04    -9.80773907E-10
  -1.23499995E-04    -1.27591060E-09
  -1.23000005E-04    -1.50655577E-09
  -1.22500001E-04    -1.61686753E-09
  -1.21999998E-04    -1.54722957E-09
  -1.21500001E-04    -1.24103927E-09
  -1.20999997E-04    -6.53420762E-10
  -1.20500001E-04     2.38678244E-10
  -1.19999997E-04     1.42583034E-09
  -1.19500000E-04     2.85625057E-09
  -1.18999997E-04     4.42812453E-09
  -1.18500000E-04     5.98596239E-09
  -1.18000004E-04     7.32267935E-09
  -1.17500000E-04     8.18900858E-09
  -1.17000003E-04     8.31139424E-09
  -1.16499999E-04     7.41869588E-09
  -1.16000003E-04     5.27722666E-09
  -1.15499999E-04     1.73221015E-09
  -1.15000003E-04    -3.24735039E-09
  -1.14499999E-04    -9.52507406E-09
  -1.14000002E-04    -1.67603353E-08
  -1.13499998E-04    -2.43850273E-08
  -1.13000002E-04    -3.16005320E-08
  -1.12499998E-04    -3.74015023E-08
  -1.12000002E-04    -4.06317078E-08
  -1.11499998E-04    -4.00747702E-08
  -1.11000001E-04    -3.45792976E-08
  -1.10499997E-04    -2.32140955E-08
  -1.10000001E-04    -5.44405276E-09
  -1.09499997E-04     1.86874729E-08
  -1.09000001E-04     4.83892606E-08
  -1.08499997E-04     8.19880484E-08
  -1.08000000E-04     1.16855965E-07
  -1.07499996E-04     1.49424309E-07
  -1.07000000E-04     1.75307420E-07
  -1.06500003E-04     1.89552992E-07
  -1.06000000E-04     1.87027297E-07
  -1.05500003E-04     1.62930363E-07
  -1.04999999E-04     1.13420811E-07
  -1.04500003E-04     3.63119455E-08
  -1.03999999E-04    -6.82152219E-08
  -1.03500002E-04    -1.96956250E-07
  -1.02999998E-04    -3.43167216E-07
  -1.02500002E-04    -4.96286418E-07
  -1.01999998E-04    -6.41982467E-07
  -1.01500002E-04    -7.62616139E-07
  -1.00999998E-04    -8.38172753E-07
  -1.00500001E-04    -8.47701983E-07
  -9.99999975E-05    -7.71241503E-07
  -9.95000009E-05    -5.92161143E-07
  -9.89999971E-05    -2.99793356E-07
  -9.85000006E-05     1.07840137E-07
  -9.79999968E-05     6.21467507E-07
  -9.75000003E-05     1.21845244E-06
  -9.69999965E-05     1.86148793E-06
  -9.64999999E-05     2.49841059E-06
  -9.60000034E-05     3.06345623E-06
  -9.54999996E-05     3.48020490E-06
  -9.50000031E-05     3.66634731E-06
  -9.44999992E-05     3.54028066E-06
  -9.40000027E-05     3.02933472E-06
  -9.34999989E-05     2.07925609E-06
  -9.30000024E-05     6.64334664E-07
  -9.24999986E-05    -1.20266589E-06
  -9.20000020E-05    -3.46172760E-06
  -9.14999982E-05    -5.99918212E-06
  -9.10000017E-05    -8.64476806E-06
  -9.04999979E-05    -1.11734307E-05
  -9.00000014E-05    -1.33127824E-05
  -8.94999976E-05    -1.47568844E-05
  -8.90000010E-05    -1.51867425E-05
  -8.84999972E-05    -1.42970757E-05
  -8.80000007E-05    -1.18284797E-05
  -8.74999969E-05    -7.60329976E-06
  -8.70000003E-05    -1.56268675E-06
  -8.64999965E-05     6.19827415E-06
  -8.60000000E-05     1.54009758E-05
  -8.55000035E-05     2.55635623E-05
  -8.49999997E-05     3.59949299E-05
  -8.45000031E-05     4.58066934E-05
  -8.39999993E-05     5.39458379E-05
  -8.35000028E-05     5.92504221E-05
  -8.29999990E-05     6.05285531E-05
  -8.25000025E-05     5.66591152E-05
  -8.19999987E-05     4.67099708E-05
  -8.15000021E-05     3.00677420E-05
  -8.09999983E-05     6.56937209E-06
  -8.05000018E-05    -2.33749761E-05
  -7.99999980E-05    -5.86812821E-05
  -7.95000014E-05    -9.75273651E-05
  -7.89999976E-05    -1.37338400E-04
  -7.85000011E-05    -1.74836416E-04
  -7.79999973E-05    -2.06162062E-04
  -7.75000008E-05    -2.27077471E-04
  -7.69999970E-05    -2.33247090E-04
  -7.65000004E-05    -2.20594477E-04
  -7.59999966E-05    -1.85717043E-04
  -7.55000001E-05    -1.26338418E-04
  -7.50000036E-05    -4.17670853E-05
  -7.44999998E-05     6.66776396E-05
  -7.40000032E-05     1.95313609E-04
  -7.34999994E-05     3.37869365E-04
  -7.30000029E-05     4.85425000E-04
  -7.24999991E-05     6.26567344E-04
  -7.20000025E-05     7.47791782E-04
  -7.14999987E-05     8.34170438E-04
  -7.10000022E-05     8.70293705E-04
  -7.04999984E-05     8.41457979E-04
  -7.00000019E-05     7.35064328E-04
  -6.94999981E-05     5.42146328E-04
  -6.90000015E-05     2.58937624E-04
  -6.84999977E-05    -1.11649475E-04
  -6.80000012E-05    -5.58773114E-04
  -6.74999974E-05    -1.06279377E-03
  -6.70000009E-05    -1.59493834E-03
  -6.64999970E-05    -2.11764686E-03
  -6.60000005E-05    -2.58571212E-03
  -6.54999967E-05    -2.94829765E-03
  -6.50000002E-05    -3.15184356E-03
  -6.44999964E-05    -3.14383605E-03
  -6.39999998E-05    -2.87729292E-03
  -6.35000033E-05    -2.31578085E-03
  -6.29999995E-05    -1.43864867E-03
  -6.25000030E-05    -2.46129755E-04
  -6.19999992E-05     1.23614015E-03
  -6.15000026E-05     2.95368442E-03
  -6.09999988E-05     4.82126744E-03
  -6.04999987E-05     6.72304584E-03
  -5.99999985E-05     8.51514935E-03
  -5.94999983E-05     1.00310026E-02
  -5.90000018E-05     1.10895755E-02
  -5.85000016E-05     1.15064513E-02
  -5.80000014E-05     1.11075249E-02
  -5.75000013E-05     9.74473171E-03
  -5.70000011E-05     7.31305033E-03
  -5.65000009E-05     3.76772578E-03
  -5.60000008E-05    -8.59549094E-04
  -5.55000006E-05    -6.44696830E-03
  -5.50000004E-05    -1.27729857E-02
  -5.45000003E-05    -1.95122398E-02
  -5.40000001E-05    -2.62385774E-02
  -5.34999999E-05    -3.24361362E-02
  -5.29999998E-05    -3.75195555E-02
  -5.24999996E-05    -4.08633985E-02
  -5.19999994E-05    -4.18405831E-02
  -5.14999992E-05    -3.98686528E-02
  -5.09999991E-05    -3.44620645E-02
  -5.04999989E-05    -2.52880473E-02
  -4.99999987E-05    -1.22221783E-02
  -4.94999986E-05     4.59975377E-03
  -4.89999984E-05     2.47387085E-02
  -4.84999982E-05     4.74226177E-02
  -4.80000017E-05     7.15344995E-02
  -4.75000015E-05     9.56231058E-02
  -4.70000014E-05    0.117939517    
  -4.65000012E-05    0.136501849    
  -4.60000010E-05    0.149189174    
  -4.55000009E-05    0.153863654    
  -4.50000007E-05    0.148517370    
  -4.45000005E-05    0.131438702    
  -4.40000003E-05    0.101390220    
  -4.35000002E-05     5.77882640E-02
  -4.30000000E-05     8.71939759E-04
  -4.24999998E-05    -6.81520402E-02
  -4.19999997E-05   -0.147002503    
  -4.14999995E-05   -0.232269183    
  -4.09999993E-05   -0.319424093    
  -4.04999992E-05   -0.402910650    
  -3.99999990E-05   -0.476316541    
  -3.94999988E-05   -0.532638013    
  -3.89999987E-05   -0.564630389    
  -3.84999985E-05   -0.565241158    
  -3.79999983E-05   -0.528110206    
  -3.75000018E-05   -0.448117167    
  -3.70000016E-05   -0.321951240    
  -3.65000014E-05   -0.148664281    
  -3.60000013E-05     6.98200837E-02
  -3.55000011E-05    0.328293592    
  -3.50000009E-05    0.617980242    
  -3.45000008E-05    0.926428020    
  -3.40000006E-05     1.23761356    
  -3.35000004E-05     1.53228641    
  -3.30000003E-05     1.78857946    
  -3.25000001E-05     1.98288548    
  -3.19999999E-05     2.09099889    
  -3.14999997E-05     2.08949733    
  -3.09999996E-05     1.95731890    
  -3.04999994E-05     1.67747426    
  -2.99999992E-05     1.23881352    
  -2.95000009E-05    0.637749493    
  -2.90000007E-05   -0.120163649    
  -2.85000006E-05    -1.01892602    
  -2.80000004E-05    -2.03117657    
  -2.75000002E-05    -3.11778545    
  -2.70000000E-05    -4.22807264    
  -2.64999999E-05    -5.30072021    
  -2.59999997E-05    -6.26547098    
  -2.54999995E-05    -7.04563046    
  -2.49999994E-05    -7.56134844    
  -2.44999992E-05    -7.73365116    
  -2.40000008E-05    -7.48910761    
  -2.35000007E-05    -6.76495457    
  -2.30000005E-05    -5.51448631    
  -2.25000003E-05    -3.71246433    
  -2.20000002E-05    -1.36023343    
  -2.15000000E-05     1.50981832    
  -2.09999998E-05     4.83069944    
  -2.04999997E-05     8.49863243    
  -1.99999995E-05     12.3724623    
  -1.94999993E-05     16.2750359    
  -1.89999992E-05     19.9967155    
  -1.85000008E-05     23.3012543    
  -1.80000006E-05     25.9340191    
  -1.75000005E-05     27.6325512    
  -1.70000003E-05     28.1392632    
  -1.65000001E-05     27.2159367    
  -1.60000000E-05     24.6595020    
  -1.54999998E-05     20.3186054    
  -1.49999996E-05     14.1100988    
  -1.45000004E-05     6.03464508    
  -1.40000002E-05    -3.80951691    
  -1.35000000E-05    -15.2154894    
  -1.29999999E-05    -27.8606625    
  -1.24999997E-05    -41.3041573    
  -1.20000004E-05    -54.9900551    
  -1.15000003E-05    -68.2568436    
  -1.10000001E-05    -80.3536911    
  -1.04999999E-05    -90.4637527    
  -9.99999975E-06    -97.7343063    
  -9.49999958E-06    -101.313622    
  -9.00000032E-06    -100.393364    
  -8.50000015E-06    -94.2554779    
  -7.99999998E-06    -82.3220749    
  -7.49999981E-06    -64.2060776    
  -7.00000010E-06    -39.7606468    
  -6.49999993E-06    -9.12442303    
  -6.00000021E-06     27.2397976    
  -5.50000004E-06     68.5161209    
  -4.99999987E-06     113.518959    
  -4.50000016E-06     160.691132    
  -3.99999999E-06     208.120255    
  -3.50000005E-06     253.572784    
  -3.00000011E-06     294.549805    
  -2.49999994E-06     328.362579    
  -1.99999999E-06     352.229370    
  -1.50000005E-06     363.389954    
  -9.99999997E-07     359.237152    
  -4.99999999E-07     337.461517    
   0.00000000         296.202545    
   4.99999999E-07     234.203690    
   9.99999997E-07     150.961792    
   1.50000005E-06     46.8661537    
   1.99999999E-06    -76.6841125    
   2.49999994E-06    -217.187790    
   3.00000011E-06    -370.986969    
   3.50000005E-06    -533.255371    
   3.99999999E-06    -698.034851    
   4.50000016E-06    -858.330383    
   4.99999987E-06    -1006.25946    
   5.50000004E-06    -1133.26697    
   6.00000021E-06    -1230.39832    
   6.49999993E-06    -1288.62720    
   7.00000010E-06    -1299.23767    
   7.49999981E-06    -1254.24451    
   7.99999998E-06    -1146.84631    
   8.50000015E-06    -971.888916    
   9.00000032E-06    -726.328918    
   9.49999958E-06    -409.673462    
   9.99999975E-06    -24.3751087    
   1.04999999E-05     423.840485    
   1.10000001E-05     925.734680    
   1.15000003E-05     1468.42847    
   1.20000004E-05     2035.40674    
   1.24999997E-05     2606.67236    
   1.29999999E-05     3159.06079    
   1.35000000E-05     3666.73218    
   1.40000002E-05     4101.83203    
   1.45000004E-05     4435.33447    
   1.49999996E-05     4638.03467    
   1.54999998E-05     4681.70557    
   1.60000000E-05     4540.34912    
   1.65000001E-05     4191.55518    
   1.70000003E-05     3617.88721    
   1.75000005E-05     2808.28003    
   1.80000006E-05     1759.36182    
   1.85000008E-05     476.669159    
   1.89999992E-05    -1024.31140    
   1.94999993E-05    -2717.35303    
   1.99999995E-05    -4564.99707    
   2.04999997E-05    -6518.41260    
   2.09999998E-05    -8517.68164    
   2.15000000E-05    -10492.5146    
   2.20000002E-05    -12363.4678    
   2.25000003E-05    -14043.6465    
   2.30000005E-05    -15440.9229    
   2.35000007E-05    -16460.6250    
   2.40000008E-05    -17008.6562    
   2.44999992E-05    -16995.0605    
   2.49999994E-05    -16337.8262    
   2.54999995E-05    -14966.9287    
   2.59999997E-05    -12828.5303    
   2.64999999E-05    -9889.02637    
   2.70000000E-05    -6139.01172    
   2.75000002E-05    -1596.84021    
   2.80000004E-05     3688.31177    
   2.85000006E-05     9634.04980    
   2.90000007E-05     16123.2178    
   2.95000009E-05     23003.3613    
   2.99999992E-05     30087.3066    
   3.04999994E-05     37155.0273    
   3.09999996E-05     43956.7617    
   3.14999997E-05     50217.6602    
   3.19999999E-05     55643.7109    
   3.25000001E-05     59929.1680    
   3.30000003E-05     62765.0508    
   3.35000004E-05     63849.1250    
   3.40000006E-05     62896.6250    
   3.45000008E-05     59651.7617    
   3.50000009E-05     53899.8125    
   3.55000011E-05     45479.2930    
   3.60000013E-05     34293.7969    
   3.65000014E-05     20323.4023    
   3.70000016E-05     3634.89453    
   3.75000018E-05    -15609.4512    
   3.79999983E-05    -37145.0469    
   3.84999985E-05    -60600.4102    
   3.89999987E-05    -85495.4062    
   3.94999988E-05    -111242.758    
   3.99999990E-05    -137152.453    
   4.04999992E-05    -162440.375    
   4.09999993E-05    -186240.266    
   4.14999995E-05    -207619.984    
   4.19999997E-05    -225600.766    
   4.24999998E-05    -239181.109    
   4.30000000E-05    -247363.109    
   4.35000002E-05    -249182.234    
   4.40000003E-05    -243738.984    
   4.45000005E-05    -230232.906    
   4.50000007E-05    -207997.156    
   4.55000009E-05    -176533.000    
   4.60000010E-05    -135543.734    
   4.65000012E-05    -84966.7031    
   4.70000014E-05    -25002.1797    
   4.75000015E-05     43861.5312    
   4.80000017E-05     120828.859    
   4.84999982E-05     204782.062    
   4.89999984E-05     294276.375    
   4.94999986E-05     387540.031    
   4.99999987E-05     482485.969    
   5.04999989E-05     576730.062    
   5.09999991E-05     667621.562    
   5.14999992E-05     752282.750    
   5.19999994E-05     827657.000    
   5.24999996E-05     890569.062    
   5.29999998E-05     937792.812    
   5.34999999E-05     966128.125    
   5.40000001E-05     972483.812    
   5.45000003E-05     953968.062    
   5.50000004E-05     907981.625    
   5.55000006E-05     832316.188    
   5.60000008E-05     725248.312    
   5.65000009E-05     585639.188    
   5.70000011E-05     413021.969    
   5.75000013E-05     207690.641    
   5.80000014E-05    -29224.2891    
   5.85000016E-05    -295690.500    
   5.90000018E-05    -588719.625    
   5.94999983E-05    -904328.562    
   5.99999985E-05    -1237524.50    
   6.04999987E-05    -1582292.25    
   6.09999988E-05    -1931622.25    
   6.15000026E-05    -2277544.50    
   6.19999992E-05    -2611193.50    
   6.25000030E-05    -2922882.50    
   6.29999995E-05    -3202214.00    
   6.35000033E-05    -3438199.00    
   6.39999998E-05    -3619400.00    
   6.44999964E-05    -3734099.50    
   6.50000002E-05    -3770458.00    
   6.54999967E-05    -3716715.00    
   6.60000005E-05    -3561374.25    
   6.64999970E-05    -3293420.50    
   6.70000009E-05    -2902495.25    
   6.74999974E-05    -2379129.00    
   6.80000012E-05    -1714909.75    
   6.84999977E-05    -902684.188    
   6.90000015E-05     63293.3828    
   6.94999981E-05     1187198.12    
   7.00000019E-05     2471515.25    
   7.04999984E-05     3916929.75    
   7.10000022E-05     5522291.50    
   7.14999987E-05     7284535.00    
   7.20000025E-05     9198709.00    
   7.24999991E-05     11258000.0    
   7.30000029E-05     13453842.0    
   7.34999994E-05     15775933.0    
   7.40000032E-05     18212494.0    
   7.44999998E-05     20750408.0    
   7.50000036E-05     23375392.0    
   7.55000001E-05     26072328.0    
   7.59999966E-05     28825516.0    
   7.65000004E-05     31618952.0    
   7.69999970E-05     34436664.0    
   7.75000008E-05     37263032.0    
   7.79999973E-05     40083144.0    
   7.85000011E-05     42883184.0    
   7.89999976E-05     45650636.0    
   7.95000014E-05     48374824.0    
   7.99999980E-05     51047108.0    
   8.05000018E-05     53661084.0    
   8.09999983E-05     56213136.0    
   8.15000021E-05     58702304.0    
   8.19999987E-05     61130804.0    
   8.25000025E-05     63503960.0    
   8.29999990E-05     65830444.0    
   8.35000028E-05     68122336.0    
   8.39999993E-05     70394992.0    
   8.45000031E-05     72667176.0    
   8.49999997E-05     74961096.0    
   8.55000035E-05     77301824.0    
   8.60000000E-05     79717464.0    
   8.64999965E-05     82238936.0    
   8.70000003E-05     84899568.0    
   8.74999969E-05     87734768.0    
   8.80000007E-05     90782128.0    
   8.84999972E-05     94080120.0    
   8.90000010E-05     97668888.0    
   8.94999976E-05     101589224.    
   9.00000014E-05     105881880.    
   9.04999979E-05     110587944.    
   9.10000017E-05     115747992.    
   9.14999982E-05     121402024.    
   9.20000020E-05     127588616.    
   9.24999986E-05     134345216.    
   9.30000024E-05     141707968.    
   9.34999989E-05     149710592.    
   9.40000027E-05     158385328.    
   9.44999992E-05     167761840.    
   9.50000031E-05     177868352.    
   9.54999996E-05     188730272.    
   9.60000034E-05     200370528.    
   9.64999999E-05     212811408.    
   9.69999965E-05     226072272.    
   9.75000003E-05     240170480.    
   9.79999968E-05     255123408.    
   9.85000006E-05     270946624.    
   9.89999971E-05     287654624.    
   9.95000009E-05     305261920.    
   9.99999975E-05     323783200.    
   1.00500001E-04     343231904.    
   1.00999998E-04     363625440.    
   1.01500002E-04     384980192.    
   1.01999998E-04     407315040.    
   1.02500002E-04     430651488.    
   1.02999998E-04     455012864.    
   1.03500002E-04     480425728.    
   1.03999999E-04     506920224.    
   1.04500003E-04     534530176.    
   1.04999999E-04     563293952.    
   1.05500003E-04     593253696.    
   1.06000000E-04     624454912.    
   1.06500003E-04     656950208.    
   1.07000000E-04     690795456.    
   1.07499996E-04     726051136.    
   1.08000000E-04     762782720.    
   1.08499997E-04     801059904.    
   1.09000001E-04     840960128.    
   1.09499997E-04     882561152.    
   1.10000001E-04     925948480.    
   1.10499997E-04     971211712.    
   1.11000001E-04     1.01844122E+09
   1.11499998E-04     1.06773459E+09
   1.12000002E-04     1.11919283E+09
   1.12499998E-04     1.17291776E+09
   1.13000002E-04     1.22901466E+09
   1.13499998E-04     1.28759565E+09
   1.14000002E-04     1.34876800E+09
   1.14499999E-04     1.41264717E+09
   1.15000003E-04     1.47934694E+09
   1.15499999E-04     1.54898496E+09
   1.16000003E-04     1.62167744E+09
   1.16499999E-04     1.69754496E+09
   1.17000003E-04     1.77670413E+09
   1.17500000E-04     1.85927949E+09
   1.18000004E-04     1.94539123E+09
   1.18500000E-04     2.03516237E+09
   1.18999997E-04     2.12871552E+09
   1.19500000E-04     2.22617549E+09
   1.19999997E-04     2.32767002E+09
   1.20500001E-04     2.43332070E+09
   1.20999997E-04     2.54325478E+09
   1.21500001E-04     2.65759462E+09
   1.21999998E-04     2.77647360E+09
   1.22500001E-04     2.90002150E+09
   1.23000005E-04     3.02837018E+09
   1.23499995E-04     3.16164659E+09
   1.23999998E-04     3.29999027E+09
   1.24500002E-04     3.44353587E+09
   1.25000006E-04     3.59242342E+09
   1.25499995E-04     3.74679526E+09
   1.25999999E-04     3.90679168E+09
   1.26500003E-04     4.07255706E+09
   1.27000007E-04     4.24424704E+09
   1.27499996E-04     4.42201446E+09
   1.28000000E-04     4.60601242E+09
   1.28500003E-04     4.79640474E+09
   1.28999993E-04     4.99334349E+09
   1.29499997E-04     5.19700531E+09
   1.30000000E-04     5.40754432E+09
   1.30500004E-04     5.62513818E+09
   1.30999993E-04     5.84996403E+09
   1.31499997E-04     6.08218470E+09
   1.32000001E-04     6.32197786E+09
   1.32500005E-04     6.56951654E+09
   1.32999994E-04     6.82499482E+09
   1.33499998E-04     7.08858880E+09
   1.34000002E-04     7.36046592E+09
   1.34500006E-04     7.64082688E+09
   1.34999995E-04     7.92985549E+09
   1.35499999E-04     8.22772122E+09
   1.36000002E-04     8.53461043E+09
   1.36500006E-04     8.85069619E+09
   1.36999995E-04     9.17612032E+09
   1.37499999E-04     9.51111885E+09
   1.38000003E-04     9.85582080E+09
   1.38500007E-04     1.02104218E+10
   1.38999996E-04     1.05750774E+10
   1.39500000E-04     1.09499341E+10
   1.40000004E-04     1.13351834E+10
   1.40499993E-04     1.17309317E+10
   1.40999997E-04     1.21373440E+10
   1.41500001E-04     1.25545656E+10
   1.42000004E-04     1.29827348E+10
   1.42499994E-04     1.34219571E+10
   1.42999997E-04     1.38723400E+10
   1.43500001E-04     1.43340001E+10
   1.44000005E-04     1.48070083E+10
   1.44499994E-04     1.52914719E+10
   1.44999998E-04     1.57874319E+10
   1.45500002E-04     1.62949908E+10
   1.46000006E-04     1.68143063E+10
   1.46499995E-04     1.73452800E+10
   1.46999999E-04     1.78880778E+10
   1.47500003E-04     1.84426107E+10
   1.48000006E-04     1.90089380E+10
   1.48499996E-04     1.95870208E+10
   1.49000000E-04     2.01768038E+10
   1.49500003E-04     2.07783588E+10
   1.50000007E-04     2.13916262E+10
   1.50499996E-04     2.20164833E+10
   1.51000000E-04     2.26528768E+10
   1.51500004E-04     2.33006428E+10
   1.51999993E-04     2.39598572E+10
   1.52499997E-04     2.46301204E+10
   1.53000001E-04     2.53115924E+10
   1.53500005E-04     2.60038758E+10
   1.53999994E-04     2.67069952E+10
   1.54499998E-04     2.74204877E+10
   1.55000002E-04     2.81441935E+10
   1.55500005E-04     2.88779080E+10
   1.55999995E-04     2.96214344E+10
   1.56499998E-04     3.03742321E+10
   1.57000002E-04     3.11361147E+10
   1.57500006E-04     3.19068488E+10
   1.57999995E-04     3.26860083E+10
   1.58499999E-04     3.34730220E+10
   1.59000003E-04     3.42676787E+10
   1.59500007E-04     3.50694195E+10
   1.59999996E-04     3.58777242E+10
   1.60500000E-04     3.66921851E+10
   1.61000004E-04     3.75121674E+10
   1.61499993E-04     3.83370363E+10
   1.61999997E-04     3.91665213E+10
   1.62500000E-04     3.99994962E+10
   1.63000004E-04     4.08356045E+10
   1.63499994E-04     4.16739123E+10
   1.63999997E-04     4.25139036E+10
   1.64500001E-04     4.33548370E+10
   1.65000005E-04     4.41957540E+10
   1.65499994E-04     4.50359050E+10
   1.65999998E-04     4.58745856E+10
   1.66500002E-04     4.67106324E+10
   1.67000006E-04     4.75431567E+10
   1.67499995E-04     4.83711468E+10
   1.67999999E-04     4.91937464E+10
   1.68500002E-04     5.00097024E+10
   1.69000006E-04     5.08178924E+10
   1.69499996E-04     5.16172759E+10
   1.69999999E-04     5.24068577E+10
   1.70500003E-04     5.31852042E+10
   1.71000007E-04     5.39513897E+10
   1.71499996E-04     5.47038781E+10
   1.72000000E-04     5.54415882E+10
   1.72500004E-04     5.61628037E+10
   1.72999993E-04     5.68668447E+10
   1.73499997E-04     5.75515034E+10
   1.74000001E-04     5.82158787E+10
   1.74500005E-04     5.88585206E+10
   1.74999994E-04     5.94780160E+10
   1.75499998E-04     6.00722596E+10
   1.76000001E-04     6.06398956E+10
   1.76500005E-04     6.11799122E+10
   1.76999994E-04     6.16901059E+10
   1.77499998E-04     6.21692887E+10
   1.78000002E-04     6.26153144E+10
   1.78500006E-04     6.30270239E+10
   1.78999995E-04     6.34021519E+10
   1.79499999E-04     6.37393183E+10
   1.80000003E-04     6.40371712E+10
   1.80500007E-04     6.42936504E+10
   1.80999996E-04     6.45069292E+10
   1.81500000E-04     6.46750208E+10
   1.82000003E-04     6.47963525E+10
   1.82500007E-04     6.48687944E+10
   1.82999996E-04     6.48917115E+10
   1.83500000E-04     6.48613806E+10
   1.84000004E-04     6.47782031E+10
   1.84499993E-04     6.46385787E+10
   1.84999997E-04     6.44416225E+10
   1.85500001E-04     6.41853686E+10
   1.86000005E-04     6.38678098E+10
   1.86499994E-04     6.34874921E+10
   1.86999998E-04     6.30414868E+10
   1.87500002E-04     6.25294909E+10
   1.88000005E-04     6.19497349E+10
   1.88499995E-04     6.13000028E+10
   1.88999998E-04     6.05786317E+10
   1.89500002E-04     5.97836841E+10
   1.90000006E-04     5.89140500E+10
   1.90499995E-04     5.79679724E+10
   1.90999999E-04     5.69430835E+10
   1.91500003E-04     5.58391501E+10
   1.92000007E-04     5.46541691E+10
   1.92499996E-04     5.33862892E+10
   1.93000000E-04     5.20344576E+10
   1.93500004E-04     5.05976832E+10
   1.93999993E-04     4.90746962E+10
   1.94499997E-04     4.74636902E+10
   1.95000001E-04     4.57639076E+10
   1.95500004E-04     4.39737467E+10
   1.95999994E-04     4.20929249E+10
   1.96499997E-04     4.01205903E+10
   1.97000001E-04     3.80544942E+10
   1.97500005E-04     3.58945587E+10
   1.97999994E-04     3.36403128E+10
   1.98499998E-04     3.12909681E+10
   1.99000002E-04     2.88464404E+10
   1.99500006E-04     2.63067566E+10
   1.99999995E-04     2.36701573E+10
   2.00499999E-04     2.09390060E+10
   2.01000003E-04     1.81100298E+10
   2.01500006E-04     1.51861647E+10
   2.01999996E-04     1.21660692E+10
   2.02499999E-04     9.05006899E+09
   2.03000003E-04     5.83786291E+09
   2.03500007E-04     2.53156787E+09
   2.03999996E-04    -868401344.    
   2.04500000E-04    -4.36240742E+09