  -1.99999995E-04     0.00000000    
  -1.99500006E-04     0.00000000    
  -1.99000002E-04     0.00000000    
  -1.98499998E-04     0.00000000    
  -1.97999994E-04     0.00000000    
  -1.97500005E-04     0.00000000    
  -1.97000001E-04    -1.36430970E-19
  -1.96499997E-04    -1.37403282E-18
  -1.95999994E-04    -7.09522690E-18
  -1.95500004E-04    -2.47810970E-17
  -1.95000001E-04    -6.51770876E-17
  -1.94499997E-04    -1.36600315E-16
  -1.93999993E-04    -2.38091909E-16
  -1.93500004E-04    -3.66464808E-16
  -1.93000000E-04    -5.57613171E-16
  -1.92499996E-04    -9.58774063E-16
  -1.92000007E-04    -1.85454836E-15
  -1.91500003E-04    -3.45072837E-15
  -1.90999999E-04    -5.13501358E-15
  -1.90499995E-04    -4.01625754E-15
  -1.90000006E-04     7.02467590E-15
  -1.89500002E-04     4.06864653E-14
  -1.88999998E-04     1.13814855E-13
  -1.88499995E-04     2.40228546E-13
  -1.88000005E-04     4.15367691E-13
  -1.87500002E-04     5.92996409E-13
  -1.86999998E-04     6.59790527E-13
  -1.86499994E-04     4.20989036E-13
  -1.86000005E-04    -3.82815578E-13
  -1.85500001E-04    -2.00579419E-12
  -1.84999997E-04    -4.56043406E-12
  -1.84499993E-04    -7.82236775E-12
  -1.84000004E-04    -1.10199723E-11
  -1.83500000E-04    -1.26925250E-11
  -1.82999996E-04    -1.07327012E-11
  -1.82500007E-04    -2.73161680E-12
  -1.82000003E-04     1.33005065E-11
  -1.81500000E-04     3.78697525E-11
  -1.80999996E-04     6.87744584E-11
  -1.80500007E-04     1.00075781E-10
  -1.80000003E-04     1.21743171E-10
  -1.79499999E-04     1.20475463E-10
  -1.78999995E-04     8.20380777E-11
  -1.78500006E-04    -4.88697667E-12
  -1.78000002E-04    -1.43839288E-10
  -1.77499998E-04    -3.25762722E-10
  -1.76999994E-04    -5.25687716E-10
  -1.76500005E-04    -7.02454261E-10
  -1.76000001E-04    -8.02627409E-10
  -1.75499998E-04    -7.68853203E-10
  -1.74999994E-04    -5.51639234E-10
  -1.74500005E-04    -1.22247823E-10
  -1.74000001E-04     5.16488352E-10
  -1.73499997E-04     1.32452849E-09
  -1.72999993E-04     2.22613106E-09
  -1.72500004E-04     3.11800319E-09
  -1.72000000E-04     3.88078503E-09
  -1.71499996E-04     4.38812009E-09
  -1.71000007E-04     4.50689441E-09
  -1.70500003E-04     4.08473833E-09
  -1.69999999E-04     2.92671909E-09
  -1.69499996E-04     7.72009567E-10
  -1.69000006E-04    -2.70901568E-09
  -1.68500002E-04    -7.87023424E-09
  -1.67999999E-04    -1.49709880E-08
  -1.67499995E-04    -2.39684592E-08
  -1.67000006E-04    -3.42321229E-08
  -1.66500002E-04    -4.42282193E-08
  -1.65999998E-04    -5.12670830E-08
  -1.65499994E-04    -5.14425054E-08
  -1.65000005E-04    -3.99115976E-08
  -1.64500001E-04    -1.16428733E-08
  -1.63999997E-04     3.73065348E-08
  -1.63499994E-04     1.08047317E-07
  -1.63000004E-04     1.96872236E-07
  -1.62500000E-04     2.93440451E-07
  -1.61999997E-04     3.79692580E-07
  -1.61499993E-04     4.30148361E-07
  -1.61000004E-04     4.14171382E-07
  -1.60500000E-04     3.00578790E-07
  -1.59999996E-04     6.45397051E-08
  -1.59500007E-04    -3.03838419E-07
  -1.59000003E-04    -7.90507329E-07
  -1.58499999E-04    -1.34992422E-06
  -1.57999995E-04    -1.90121489E-06
  -1.57500006E-04    -2.33034598E-06
  -1.57000002E-04    -2.50013181E-06
  -1.56499998E-04    -2.26886687E-06
  -1.55999995E-04    -1.51672873E-06
  -1.55500005E-04    -1.77303562E-07
  -1.55000002E-04     1.73052172E-06
  -1.54499998E-04     4.07653351E-06
  -1.53999994E-04     6.60612432E-06
  -1.53500005E-04     8.94670848E-06
  -1.53000001E-04     1.06381722E-05
  -1.52499997E-04     1.11885120E-05
  -1.51999993E-04     1.01509486E-05
  -1.51500004E-04     7.21351989E-06
  -1.51000000E-04     2.28745603E-06
  -1.50499996E-04    -4.42301416E-06
  -1.50000007E-04    -1.23872278E-05
  -1.49500003E-04    -2.07661869E-05
  -1.49000000E-04    -2.84906382E-05
  -1.48499996E-04    -3.43968895E-05
  -1.48000006E-04    -3.74063929E-05
  -1.47500003E-04    -3.67210196E-05
  -1.46999999E-04    -3.19960636E-05
  -1.46499995E-04    -2.34480940E-05
  -1.46000006E-04    -1.18558064E-05
  -1.45500002E-04     1.57207023E-06
  -1.44999998E-04     1.54692098E-05
  -1.44499994E-04     2.86962368E-05
  -1.44000005E-04     4.07769912E-05
  -1.43500001E-04     5.22885930E-05
  -1.42999997E-04     6.50849979E-05
  -1.42499994E-04     8.22261063E-05
  -1.42000004E-04     1.07501226E-04
  -1.41500001E-04     1.44485588E-04
  -1.40999997E-04     1.95148881E-04
  -1.40499993E-04     2.58132874E-04
  -1.40000004E-04     3.26948153E-04
  -1.39500000E-04     3.88446759E-04
  -1.38999996E-04     4.22014069E-04
  -1.38500007E-04     3.99980403E-04
  -1.38000003E-04     2.89691903E-04
  -1.37499999E-04     5.75690538E-05
  -1.36999995E-04    -3.24780238E-04
  -1.36500006E-04    -8.72645178E-04
  -1.36000002E-04    -1.57916313E-03
  -1.35499999E-04    -2.40625301E-03
  -1.34999995E-04    -3.27707548E-03
  -1.34500006E-04    -4.07182379E-03
  -1.34000002E-04    -4.62880312E-03
  -1.33499998E-04    -4.75261919E-03
  -1.32999994E-04    -4.23076749E-03
  -1.32500005E-04    -2.85914377E-03
  -1.32000001E-04    -4.75797337E-04
  -1.31499997E-04     2.99914600E-03
  -1.30999993E-04     7.52108544E-03
  -1.30500004E-04     1.28811635E-02
  -1.30000000E-04     1.86756719E-02
  -1.29499997E-04     2.42916644E-02
  -1.28999993E-04     2.89159734E-02
  -1.28500003E-04     3.15739624E-02
  -1.28000000E-04     3.12018264E-02
  -1.27499996E-04     2.67536100E-02
  -1.27000007E-04     1.73399132E-02
  -1.26500003E-04     2.38988432E-03
  -1.25999999E-04    -1.81765817E-02
  -1.25499995E-04    -4.37841304E-02
  -1.25000006E-04    -7.30672926E-02
  -1.24500002E-04   -0.103789739    
  -1.23999998E-04   -0.132842615    
  -1.23499995E-04   -0.156342179    
  -1.23000005E-04   -0.169845134    
  -1.22500001E-04   -0.168685541    
  -1.21999998E-04   -0.148430318    
  -1.21500001E-04   -0.105433442    
  -1.20999997E-04    -3.74530405E-02
  -1.20500001E-04     5.57162687E-02
  -1.19999997E-04    0.171661377    
  -1.19500000E-04    0.304890364    
  -1.18999997E-04    0.446573228    
  -1.18500000E-04    0.584556639    
  -1.18000004E-04    0.703718960    
  -1.17500000E-04    0.786712825    
  -1.17000003E-04    0.815108299    
  -1.16499999E-04    0.770927489    
  -1.16000003E-04    0.638505220    
  -1.15499999E-04    0.406582236    
  -1.15000003E-04     7.04762638E-02
  -1.14499999E-04   -0.365842581    
  -1.14000002E-04   -0.887991488    
  -1.13499998E-04    -1.46996689    
  -1.13000002E-04    -2.07370400    
  -1.12499998E-04    -2.64962864    
  -1.12000002E-04    -3.13836741    
  -1.11499998E-04    -3.47369719    
  -1.11000001E-04    -3.58678985    
  -1.10499997E-04    -3.41159749    
  -1.10000001E-04    -2.89122748    
  -1.09499997E-04    -1.98493242    
  -1.09000001E-04   -0.675251365    
  -1.08499997E-04     1.02520466    
  -1.08000000E-04     3.06805062    
  -1.07499996E-04     5.36512613    
  -1.07000000E-04     7.78688383    
  -1.06500003E-04     10.1638155    
  -1.06000000E-04     12.2913857    
  -1.05500003E-04     13.9387970    
  -1.04999999E-04     14.8616304    
  -1.04500003E-04     14.8182001    
  -1.03999999E-04     13.5890217    
  -1.03500002E-04     10.9984837    
  -1.02999998E-04     6.93759489    
  -1.02500002E-04     1.38616753    
  -1.01999998E-04    -5.56724262    
  -1.01500002E-04    -13.7096729    
  -1.00999998E-04    -22.6940994    
  -1.00500001E-04    -32.0378761    
  -9.99999975E-05    -41.1307259    
  -9.95000009E-05    -49.2533760    
  -9.89999971E-05    -55.6076202    
  -9.85000006E-05    -59.3575630    
  -9.79999968E-05    -59.6810455    
  -9.75000003E-05    -55.8300323    
  -9.69999965E-05    -47.1963539    
  -9.64999999E-05    -33.3802452    
  -9.60000034E-05    -14.2569504    
  -9.54999996E-05     9.96324158    
  -9.50000031E-05     38.6864967    
  -9.44999992E-05     70.9039841    
  -9.40000027E-05     105.181305    
  -9.34999989E-05     139.674484    
  -9.30000024E-05     172.174271    
  -9.24999986E-05     200.180923    
  -9.20000020E-05     221.010712    
  -9.14999982E-05     231.930603    
  -9.10000017E-05     230.318970    
  -9.04999979E-05     213.845612    
  -9.00000014E-05     180.664337    
  -8.94999976E-05     129.606674    
  -8.90000010E-05     60.3682785    
  -8.84999972E-05    -26.3262348    
  -8.80000007E-05    -128.592468    
  -8.74999969E-05    -243.298737    
  -8.70000003E-05    -366.038666    
  -8.64999965E-05    -491.168304    
  -8.60000000E-05    -611.919373    
  -8.55000035E-05    -720.591431    
  -8.49999997E-05    -808.822998    
  -8.45000031E-05    -867.940857    
  -8.39999993E-05    -889.379211    
  -8.35000028E-05    -865.153748    
  -8.29999990E-05    -788.380066    
  -8.25000025E-05    -653.809753    
  -8.19999987E-05    -458.363770    
  -8.15000021E-05    -201.635773    
  -8.09999983E-05     113.665794    
  -8.05000018E-05     481.365845    
  -7.99999980E-05     891.587646    
  -7.95000014E-05     1330.66333    
  -7.89999976E-05     1781.21838    
  -7.85000011E-05     2222.44409    
  -7.79999973E-05     2630.56812    
  -7.75000008E-05     2979.54370    
  -7.69999970E-05     3241.93091    
  -7.65000004E-05     3389.98755    
  -7.59999966E-05     3396.92017    
  -7.55000001E-05     3238.28174    
  -7.50000036E-05     2893.45825    
  -7.44999998E-05     2347.21338    
  -7.40000032E-05     1591.20068    
  -7.34999994E-05     625.412231    
  -7.30000029E-05    -540.550598    
  -7.24999991E-05    -1886.42041    
  -7.20000025E-05    -3380.55566    
  -7.14999987E-05    -4979.56982    
  -7.10000022E-05    -6628.45850    
  -7.04999984E-05    -8261.23340    
  -7.00000019E-05    -9802.11133    
  -6.94999981E-05    -11167.3174    
  -6.90000015E-05    -12267.4473    
  -6.84999977E-05    -13010.4990    
  -6.80000012E-05    -13305.3613    
  -6.74999974E-05    -13065.8516    
  -6.70000009E-05    -12215.0449    
  -6.64999970E-05    -10689.9844    
  -6.60000005E-05    -8446.32715    
  -6.54999967E-05    -5463.00830    
  -6.50000002E-05    -1746.52771    
  -6.44999964E-05     2665.22925    
  -6.39999998E-05     7699.96240    
  -6.35000033E-05     13248.9121    
  -6.29999995E-05     19165.9844    
  -6.25000030E-05     25268.3027    
  -6.19999992E-05     31338.3145    
  -6.15000026E-05     37127.5781    
  -6.09999988E-05     42362.2578    
  -6.04999987E-05     46750.5039    
  -5.99999985E-05     49991.2617    
  -5.94999983E-05     51784.9180    
  -5.90000018E-05     51844.8750    
  -5.85000016E-05     49910.5312    
  -5.80000014E-05     45760.3633    
  -5.75000013E-05     39225.6797    
  -5.70000011E-05     30203.4766    
  -5.65000009E-05     18668.8301    
  -5.60000008E-05     4685.50488    
  -5.55000006E-05    -11585.4199    
  -5.50000004E-05    -29879.4648    
  -5.45000003E-05    -49825.8086    
  -5.40000001E-05    -70947.8594    
  -5.34999999E-05    -92667.8125    
  -5.29999998E-05    -114314.883    
  -5.24999996E-05    -135137.844    
  -5.19999994E-05    -154322.000    
  -5.14999992E-05    -171009.156    
  -5.09999991E-05    -184321.531    
  -5.04999989E-05    -193388.766    
  -4.99999987E-05    -197376.188    
  -4.94999986E-05    -195515.781    
  -4.89999984E-05    -187136.312    
  -4.84999982E-05    -171694.359    
  -4.80000017E-05    -148802.938    
  -4.75000015E-05    -118258.094    
  -4.70000014E-05    -80062.0859    
  -4.65000012E-05    -34442.7305    
  -4.60000010E-05     18132.5156    
  -4.55000009E-05     76948.3047    
  -4.50000007E-05     141038.859    
  -4.45000005E-05     209191.875    
  -4.40000003E-05     279959.125    
  -4.35000002E-05     351673.062    
  -4.30000000E-05     422471.031    
  -4.24999998E-05     490323.094    
  -4.19999997E-05     553068.125    
  -4.14999995E-05     608451.625    
  -4.09999993E-05     654171.812    
  -4.04999992E-05     687924.250    
  -3.99999990E-05     707452.062    
  -3.94999988E-05     710597.625    
  -3.89999987E-05     695356.125    
  -3.84999985E-05     659926.125    
  -3.79999983E-05     602763.875    
  -3.75000018E-05     522633.438    
  -3.70000016E-05     418655.281    
  -3.65000014E-05     290355.812    
  -3.60000013E-05     137708.438    
  -3.55000011E-05    -38824.9062    
  -3.50000009E-05    -238256.188    
  -3.45000008E-05    -459041.688    
  -3.40000006E-05    -699056.562    
  -3.35000004E-05    -955575.125    
  -3.30000003E-05    -1225256.38    
  -3.25000001E-05    -1504146.38    
  -3.19999999E-05    -1787670.25    
  -3.14999997E-05    -2070659.62    
  -3.09999996E-05    -2347370.25    
  -3.04999994E-05    -2611508.75    
  -2.99999992E-05    -2856294.00    
  -2.95000009E-05    -3074497.75    
  -2.90000007E-05    -3258528.75    
  -2.85000006E-05    -3400497.25    
  -2.80000004E-05    -3492311.00    
  -2.75000002E-05    -3525777.50    
  -2.70000000E-05    -3492704.00    
  -2.64999999E-05    -3385015.75    
  -2.59999997E-05    -3194872.25    
  -2.54999995E-05    -2914786.75    
  -2.49999994E-05    -2537739.50    
  -2.44999992E-05    -2057307.00    
  -2.40000008E-05    -1467753.12    
  -2.35000007E-05    -764143.688    
  -2.30000005E-05     57577.2266    
  -2.25000003E-05     1000498.31    
  -2.20000002E-05     2066703.50    
  -2.15000000E-05     3257216.50    
  -2.09999998E-05     4571987.00    
  -2.04999997E-05     6009918.00    
  -1.99999995E-05     7568827.50    
  -1.94999993E-05     9245573.00    
  -1.89999992E-05     11036062.0    
  -1.85000008E-05     12935339.0    
  -1.80000006E-05     14937736.0    
  -1.75000005E-05     17036920.0    
  -1.70000003E-05     19226104.0    
  -1.65000001E-05     21498108.0    
  -1.60000000E-05     23845620.0    
  -1.54999998E-05     26261238.0    
  -1.49999996E-05     28737676.0    
  -1.45000004E-05     31268002.0    
  -1.40000002E-05     33845624.0    
  -1.35000000E-05     36464592.0    
  -1.29999999E-05     39119816.0    
  -1.24999997E-05     41806880.0    
  -1.20000004E-05     44522604.0    
  -1.15000003E-05     47264880.0    
  -1.10000001E-05     50032792.0    
  -1.04999999E-05     52826940.0    
  -9.99999975E-06     55649180.0    
  -9.49999958E-06     58503180.0    
  -9.00000032E-06     61393980.0    
  -8.50000015E-06     64328256.0    
  -7.99999998E-06     67314696.0    
  -7.49999981E-06     70363656.0    
  -7.00000010E-06     73487000.0    
  -6.49999993E-06     76698776.0    
  -6.00000021E-06     80014384.0    
  -5.50000004E-06     83451328.0    
  -4.99999987E-06     87028632.0    
  -4.50000016E-06     90766856.0    
  -3.99999999E-06     94688560.0    
  -3.50000005E-06     98817744.0    
  -3.00000011E-06     103179712.    
  -2.49999994E-06     107801032.    
  -1.99999999E-06     112709928.    
  -1.50000005E-06     117935672.    
  -9.99999997E-07     123507968.    
  -4.99999999E-07     129458040.    
   0.00000000         135817552.    
   4.99999999E-07     142618560.    
   9.99999997E-07     149894416.    
   1.50000005E-06     157677760.    
   1.99999999E-06     166002352.    
   2.49999994E-06     174901536.    
   3.00000011E-06     184409328.    
   3.50000005E-06     194559104.    
   3.99999999E-06     205385504.    
   4.50000016E-06     216919968.    
   4.99999987E-06     229198912.    
   5.50000004E-06     242252704.    
   6.00000021E-06     256116672.    
   6.49999993E-06     270825216.    
   7.00000010E-06     286410080.    
   7.49999981E-06     302906432.    
   7.99999998E-06     320348768.    
   8.50000015E-06     338773120.    
   9.00000032E-06     358216992.    
   9.49999958E-06     378714496.    
   9.99999975E-06     400305472.    
   1.04999999E-05     423029568.    
   1.10000001E-05     446930048.    
   1.15000003E-05     472045792.    
   1.20000004E-05     498425664.    
   1.24999997E-05     526110688.    
   1.29999999E-05     555151616.    
   1.35000000E-05     585601024.    
   1.40000002E-05     617507904.    
   1.45000004E-05     650928704.    
   1.49999996E-05     685921856.    
   1.54999998E-05     722547136.    
   1.60000000E-05     760872768.    
   1.65000001E-05     800960384.    
   1.70000003E-05     842878080.    
   1.75000005E-05     886698368.    
   1.80000006E-05     932491648.    
   1.85000008E-05     980340224.    
   1.89999992E-05     1.03032390E+09
   1.94999993E-05     1.08252851E+09
   1.99999995E-05     1.13704410E+09
   2.04999997E-05     1.19394918E+09
   2.09999998E-05     1.25334515E+09
   2.15000000E-05     1.31533146E+09
   2.20000002E-05     1.38001446E+09
   2.25000003E-05     1.44749120E+09
   2.30000005E-05     1.51787469E+09
   2.35000007E-05     1.59127718E+09
   2.40000008E-05     1.66781568E+09
   2.44999992E-05     1.74760781E+09
   2.49999994E-05     1.83078886E+09
   2.54999995E-05     1.91748211E+09
   2.59999997E-05     2.00781645E+09
   2.64999999E-05     2.10193088E+09
   2.70000000E-05     2.19997210E+09
   2.75000002E-05     2.30208128E+09
   2.80000004E-05     2.40840346E+09
   2.85000006E-05     2.51909018E+09
   2.90000007E-05     2.63429939E+09
   2.95000009E-05     2.75418445E+09
   2.99999992E-05     2.87890048E+09
   3.04999994E-05     3.00863437E+09
   3.09999996E-05     3.14353587E+09
   3.14999997E-05     3.28378317E+09
   3.19999999E-05     3.42954650E+09
   3.25000001E-05     3.58097536E+09
   3.30000003E-05     3.73827123E+09
   3.35000004E-05     3.90160614E+09
   3.40000006E-05     4.07114701E+09
   3.45000008E-05     4.24706739E+09
   3.50000009E-05     4.42959155E+09
   3.55000011E-05     4.61886259E+09
   3.60000013E-05     4.81507840E+09
   3.65000014E-05     5.01842381E+09
   3.70000016E-05     5.22906880E+09
   3.75000018E-05     5.44719821E+09
   3.79999983E-05     5.67304909E+09
   3.84999985E-05     5.90678989E+09
   3.89999987E-05     6.14864998E+09
   3.94999988E-05     6.39879066E+09
   3.99999990E-05     6.65745152E+09
   4.04999992E-05     6.92478925E+09
   4.09999993E-05     7.20105114E+09
   4.14999995E-05     7.48639898E+09
   4.19999997E-05     7.78109594E+09
   4.24999998E-05     8.08526746E+09
   4.30000000E-05     8.39919360E+09
   4.35000002E-05     8.72305152E+09
   4.40000003E-05     9.05695539E+09
   4.45000005E-05     9.40127846E+09
   4.50000007E-05     9.75612211E+09
   4.55000009E-05     1.01218079E+10
   4.60000010E-05     1.04984873E+10
   4.65000012E-05     1.08863908E+10
   4.70000014E-05     1.12856986E+10
   4.75000015E-05     1.16965714E+10
   4.80000017E-05     1.21193359E+10
   4.84999982E-05     1.25541693E+10
   4.89999984E-05     1.30012436E+10
   4.94999986E-05     1.34607555E+10
   4.99999987E-05     1.39327652E+10
   5.04999989E-05     1.44175739E+10
   5.09999991E-05     1.49152174E+10
   5.14999992E-05     1.54260183E+10
   5.19999994E-05     1.59500677E+10
   5.24999996E-05     1.64875827E+10
   5.29999998E-05     1.70385449E+10
   5.34999999E-05     1.76032379E+10
   5.40000001E-05     1.81816443E+10
   5.45000003E-05     1.87740754E+10
   5.50000004E-05     1.93805189E+10
   5.55000006E-05     2.00011080E+10
   5.60000008E-05     2.06358794E+10
   5.65000009E-05     2.12849254E+10
   5.70000011E-05     2.19481027E+10
   5.75000013E-05     2.26255094E+10
   5.80000014E-05     2.33171640E+10
   5.85000016E-05     2.40230851E+10
   5.90000018E-05     2.47431496E+10
   5.94999983E-05     2.54770033E+10
   5.99999985E-05     2.62250865E+10
   6.04999987E-05     2.69868155E+10
   6.09999988E-05     2.77626511E+10
   6.15000026E-05     2.85524521E+10
   6.19999992E-05     2.93557309E+10
   6.25000030E-05     3.01723853E+10
   6.29999995E-05     3.10023107E+10
   6.35000033E-05     3.18450401E+10
   6.39999998E-05     3.27004467E+10
   6.44999964E-05     3.35683133E+10
   6.50000002E-05     3.44482447E+10
   6.54999967E-05     3.53396818E+10
   6.60000005E-05     3.62423460E+10
   6.64999970E-05     3.71563192E+10
   6.70000009E-05     3.80807578E+10
   6.74999974E-05     3.90153585E+10
   6.80000012E-05     3.99598715E+10
   6.84999977E-05     4.09137644E+10
   6.90000015E-05     4.18763735E+10
   6.94999981E-05     4.28474696E+10
   7.00000019E-05     4.38259466E+10
   7.04999984E-05     4.48116818E+10
   7.10000022E-05     4.58035814E+10
   7.14999987E-05     4.68003103E+10
   7.20000025E-05     4.78028554E+10
   7.24999991E-05     4.88095048E+10
   7.30000029E-05     4.98188902E+10
   7.34999994E-05     5.08314870E+10
   7.40000032E-05     5.18450340E+10
   7.44999998E-05     5.28598917E+10
   7.50000036E-05     5.38740654E+10
   7.55000001E-05     5.48872561E+10
   7.59999966E-05     5.58974812E+10
   7.65000004E-05     5.69037292E+10
   7.69999970E-05     5.79055411E+10
   7.75000008E-05     5.89012419E+10
   7.79999973E-05     5.98891930E+10
   7.85000011E-05     6.08696443E+10
   7.89999976E-05     6.18398024E+10
   7.95000014E-05     6.27997737E+10
   7.99999980E-05     6.37461668E+10
   8.05000018E-05     6.46777446E+10
   8.09999983E-05     6.55935652E+10
   8.15000021E-05     6.64914412E+10
   8.19999987E-05     6.73698734E+10
   8.25000025E-05     6.82280305E+10
   8.29999990E-05     6.90641142E+10
   8.35000028E-05     6.98769408E+10
   8.39999993E-05     7.06638479E+10
   8.45000031E-05     7.14228695E+10
   8.49999997E-05     7.21519903E+10
   8.55000035E-05     7.28509891E+10
   8.60000000E-05     7.35170724E+10
   8.64999965E-05     7.41478400E+10
   8.70000003E-05     7.47406131E+10
   8.74999969E-05     7.52946381E+10
   8.80000007E-05     7.58093660E+10
   8.84999972E-05     7.62812498E+10
   8.90000010E-05     7.67080284E+10
   8.94999976E-05     7.70871624E+10
   9.00000014E-05     7.74156616E+10
   9.04999979E-05     7.76932803E+10
   9.10000017E-05     7.79168727E+10
   9.14999982E-05     7.80864061E+10
   9.20000020E-05     7.81985055E+10
   9.24999986E-05     7.82503117E+10
   9.30000024E-05     7.82420460E+10
   9.34999989E-05     7.81664010E+10
   9.40000027E-05     7.80263506E+10
   9.44999992E-05     7.78182328E+10
   9.50000031E-05     7.75414006E+10
   9.54999996E-05     7.71913318E+10
   9.60000034E-05     7.67652741E+10
   9.64999999E-05     7.62634404E+10
   9.69999965E-05     7.56801946E+10
   9.75000003E-05     7.50168883E+10
   9.79999968E-05     7.42696223E+10
   9.85000006E-05     7.34376264E+10
   9.89999971E-05     7.25167145E+10
   9.95000009E-05     7.15057644E+10
   9.99999975E-05     7.04031949E+10
   1.00500001E-04     6.92080148E+10
   1.00999998E-04     6.79178281E+10
   1.01500002E-04     6.65290015E+10
   1.01999998E-04     6.50431775E+10
   1.02500002E-04     6.34547569E+10
   1.02999998E-04     6.17658941E+10
   1.03500002E-04     5.99748731E+10
   1.03999999E-04     5.80747100E+10
   1.04500003E-04     5.60731750E+10
   1.04999999E-04     5.39591967E+10
   1.05500003E-04     5.17397996E+10
   1.06000000E-04     4.94068736E+10
   1.06500003E-04     4.69622538E+10
   1.07000000E-04     4.44024791E+10
   1.07499996E-04     4.17339638E+10
   1.08000000E-04     3.89484585E+10
   1.08499997E-04     3.60450089E+10
   1.09000001E-04     3.30258493E+10
   1.09499997E-04     2.98931036E+10
   1.10000001E-04     2.66445804E+10
   1.10499997E-04     2.32779694E+10
   1.11000001E-04     1.98056858E+10
   1.11499998E-04     1.62116076E+10
   1.12000002E-04     1.25040732E+10
   1.12499998E-04     8.68634522E+09
   1.13000002E-04     4.74473933E+09
   1.13499998E-04     688380672.    
   1.14000002E-04    -3.48229837E+09
   1.14499999E-04    -7.76280986E+09
   1.15000003E-04    -1.21605468E+10
   1.15499999E-04    -1.66637363E+10
   1.16000003E-04    -2.12816794E+10
   1.16499999E-04    -2.60063478E+10
   1.17000003E-04    -3.08269527E+10
   1.17500000E-04    -3.57518541E+10
   1.18000004E-04    -4.07791370E+10
   1.18500000E-04    -4.58997514E+10
   1.18999997E-04    -5.11172813E+10
   1.19500000E-04    -5.64268892E+10
   1.19999997E-04    -6.18269819E+10
   1.20500001E-04    -6.73163592E+10
   1.20999997E-04    -7.28930386E+10
   1.21500001E-04    -7.85516954E+10
   1.21999998E-04    -8.42845635E+10
   1.22500001E-04    -9.00884890E+10
   1.23000005E-04    -9.59657165E+10
   1.23499995E-04    -1.01912674E+11
   1.23999998E-04    -1.07924546E+11
   1.24500002E-04    -1.13989411E+11
   1.25000006E-04    -1.20104313E+11
   1.25499995E-04    -1.26270063E+11
   1.25999999E-04    -1.32469203E+11
   1.26500003E-04    -1.38703733E+11
   1.27000007E-04    -1.44970580E+11
   1.27499996E-04    -1.51261102E+11
   1.28000000E-04    -1.57575791E+11
   1.28500003E-04    -1.63896721E+11
   1.28999993E-04    -1.70234708E+11
   1.29499997E-04    -1.76574005E+11
   1.30000000E-04    -1.82921314E+11
   1.30500004E-04    -1.89259809E+11
   1.30999993E-04    -1.95574514E+11
   1.31499997E-04    -2.01877422E+11
   1.32000001E-04    -2.08148611E+11
   1.32500005E-04    -2.14380085E+11
   1.32999994E-04    -2.20562653E+11
   1.33499998E-04    -2.26701033E+11
   1.34000002E-04    -2.32773714E+11
   1.34500006E-04    -2.38779089E+11
   1.34999995E-04    -2.44708229E+11
   1.35499999E-04    -2.50557628E+11
   1.36000002E-04    -2.56320078E+11
   1.36500006E-04    -2.61992333E+11
   1.36999995E-04    -2.67577328E+11
   1.37499999E-04    -2.73047192E+11
   1.38000003E-04    -2.78411903E+11
   1.38500007E-04    -2.83648229E+11
   1.38999996E-04    -2.88753713E+11
   1.39500000E-04    -2.93718458E+11
   1.40000004E-04    -2.98536960E+11
   1.40499993E-04    -3.03200240E+11
   1.40999997E-04    -3.07696075E+11
   1.41500001E-04    -3.12024924E+11
   1.42000004E-04    -3.16182004E+11
   1.42499994E-04    -3.20152338E+11
   1.42999997E-04    -3.23934355E+11
   1.43500001E-04    -3.27510000E+11
   1.44000005E-04    -3.30885169E+11
   1.44499994E-04    -3.34051967E+11
   1.44999998E-04    -3.37007116E+11
   1.45500002E-04    -3.39739247E+11
   1.46000006E-04    -3.42255469E+11
   1.46499995E-04    -3.44533205E+11
   1.46999999E-04    -3.46572653E+11
   1.47500003E-04    -3.48362244E+11
   1.48000006E-04    -3.49895229E+11
   1.48499996E-04    -3.51156044E+11
   1.49000000E-04    -3.52158024E+11
   1.49500003E-04    -3.52883540E+11
   1.50000007E-04    -3.53332003E+11
   1.50499996E-04    -3.53500266E+11
   1.51000000E-04    -3.53384137E+11
   1.51500004E-04    -3.52983286E+11
   1.51999993E-04    -3.52294601E+11
   1.52499997E-04    -3.51313854E+11
   1.53000001E-04    -3.50045733E+11
   1.53500005E-04    -3.48481520E+11
   1.53999994E-04    -3.46619675E+11
   1.54499998E-04    -3.44458985E+11
   1.55000002E-04    -3.41992145E+11
   1.55500005E-04    -3.39215745E+11
   1.55999995E-04    -3.36132440E+11
   1.56499998E-04    -3.32732596E+11
   1.57000002E-04    -3.29021784E+11
   1.57500006E-04    -3.24992762E+11
   1.57999995E-04    -3.20652640E+11
   1.58499999E-04    -3.15997782E+11
   1.59000003E-04    -3.11037428E+11
   1.59500007E-04    -3.05766400E+11
   1.59999996E-04    -3.00199215E+11
   1.60500000E-04    -2.94332203E+11
   1.61000004E-04    -2.88171229E+11
   1.61499993E-04    -2.81718915E+11
   1.61999997E-04    -2.74971460E+11
   1.62500000E-04    -2.67937317E+11
   1.63000004E-04    -2.60614144E+11
   1.63499994E-04    -2.53007184E+11
   1.63999997E-04    -2.45117403E+11
   1.64500001E-04    -2.36949914E+11
   1.65000005E-04    -2.28513317E+11
   1.65499994E-04    -2.19810021E+11
   1.65999998E-04    -2.10850857E+11
   1.66500002E-04    -2.01643753E+11
   1.67000006E-04    -1.92195330E+11
   1.67499995E-04    -1.82514008E+11
   1.67999999E-04    -1.72608274E+11
   1.68500002E-04    -1.62485912E+11
   1.69000006E-04    -1.52155554E+11
   1.69499996E-04    -1.41625541E+11
   1.69999999E-04    -1.30903433E+11
   1.70500003E-04    -1.19998521E+11
   1.71000007E-04    -1.08917326E+11
   1.71499996E-04    -9.76683418E+10
   1.72000000E-04    -8.62612439E+10
   1.72500004E-04    -7.47033969E+10
   1.72999993E-04    -6.30081126E+10
   1.73499997E-04    -5.11845212E+10
   1.74000001E-04    -3.92421376E+10
   1.74500005E-04    -2.71964754E+10
   1.74999994E-04    -1.50587556E+10
   1.75499998E-04    -2.83973530E+09
   1.76000001E-04     9.44290202E+09
   1.76500005E-04     2.17822822E+10
   1.76999994E-04     3.41684675E+10
   1.77499998E-04     4.65817108E+10
   1.78000002E-04     5.90100808E+10
   1.78500006E-04     7.14517135E+10
   1.78999995E-04     8.38908477E+10
   1.79499999E-04     9.63127624E+10
   1.80000003E-04     1.08710306E+11
   1.80500007E-04     1.21068863E+11
   1.80999996E-04     1.33380309E+11
   1.81500000E-04     1.45628119E+11
   1.82000003E-04     1.57805576E+11
   1.82500007E-04     1.69887613E+11
   1.82999996E-04     1.81877178E+11
   1.83500000E-04     1.93745273E+11
   1.84000004E-04     2.05492896E+11
   1.84499993E-04     2.17101730E+11
   1.84999997E-04     2.28558438E+11
   1.85500001E-04     2.39857959E+11
   1.86000005E-04     2.50984841E+11
   1.86499994E-04     2.61931516E+11
   1.86999998E-04     2.72689578E+11
   1.87500002E-04     2.83245773E+11
   1.88000005E-04     2.93597086E+11
   1.88499995E-04     3.03712207E+11
   1.88999998E-04     3.13608864E+11
   1.89500002E-04     3.23251864E+11
   1.90000006E-04     3.32652020E+11
   1.90499995E-04     3.41783052E+11
   1.90999999E-04     3.50633591E+11
   1.91500003E-04     3.59204880E+11
   1.92000007E-04     3.67477129E+11
   1.92499996E-04     3.75455285E+11
   1.93000000E-04     3.83126634E+11
   1.93500004E-04     3.90486884E+11
   1.93999993E-04     3.97533479E+11
   1.94499997E-04     4.04241416E+11
   1.95000001E-04     4.10638221E+11
   1.95500004E-04     4.16695353E+11
   1.95999994E-04     4.22414516E+11
   1.96499997E-04     4.27788304E+11
   1.97000001E-04     4.32798335E+11
   1.97500005E-04     4.37467120E+11
   1.97999994E-04     4.41755861E+11
   1.98499998E-04     4.45681992E+11
   1.99000002E-04     4.49238303E+11
   1.99500006E-04     4.52414865E+11
   1.99999995E-04     4.55223869E+11
   2.00499999E-04     4.57671541E+11
   2.01000003E-04     4.59729830E+11
   2.01500006E-04     4.61429146E+11
   2.01999996E-04     4.62755332E+11
   2.02499999E-04     4.63712911E+11
   2.03000003E-04     4.64310600E+11
   2.03500007E-04     4.64543613E+11
   2.03999996E-04     4.64398844E+11
   2.04500000E-04     4.63881961E+11