  -1.9999999999999998E-004     0.0000000000000000     
  -1.9949999999999997E-004     0.0000000000000000     
  -1.9899999999999999E-004     0.0000000000000000     
  -1.9849999999999997E-004     0.0000000000000000     
  -1.9799999999999999E-004     0.0000000000000000     
  -1.9749999999999998E-004     0.0000000000000000     
  -1.9699999999999999E-004     0.0000000000000000     
  -1.9649999999999998E-004     0.0000000000000000     
  -1.9599999999999999E-004     0.0000000000000000     
  -1.9549999999999998E-004     0.0000000000000000     
  -1.9499999999999997E-004     0.0000000000000000     
  -1.9449999999999998E-004     0.0000000000000000     
  -1.9399999999999997E-004     0.0000000000000000     
  -1.9349999999999999E-004     0.0000000000000000     
  -1.9299999999999997E-004     0.0000000000000000     
  -1.9249999999999999E-004     0.0000000000000000     
  -1.9199999999999998E-004     0.0000000000000000     
  -1.9149999999999999E-004     0.0000000000000000     
  -1.9099999999999998E-004     0.0000000000000000     
  -1.9050000000000000E-004     0.0000000000000000     
  -1.8999999999999998E-004     0.0000000000000000     
  -1.8949999999999997E-004     0.0000000000000000     
  -1.8899999999999999E-004     0.0000000000000000     
  -1.8849999999999997E-004     0.0000000000000000     
  -1.8799999999999999E-004     0.0000000000000000     
  -1.8749999999999998E-004     0.0000000000000000     
  -1.8699999999999999E-004     0.0000000000000000     
  -1.8649999999999998E-004     0.0000000000000000     
  -1.8599999999999999E-004     0.0000000000000000     
  -1.8549999999999998E-004     0.0000000000000000     
  -1.8500000000000000E-004     0.0000000000000000     
  -1.8449999999999999E-004     0.0000000000000000     
  -1.8399999999999997E-004     0.0000000000000000     
  -1.8349999999999999E-004     0.0000000000000000     
  -1.8299999999999998E-004     0.0000000000000000     
  -1.8249999999999999E-004     0.0000000000000000     
  -1.8199999999999998E-004     0.0000000000000000     
  -1.8149999999999999E-004     0.0000000000000000     
  -1.8099999999999998E-004     0.0000000000000000     
  -1.8050000000000000E-004     0.0000000000000000     
  -1.7999999999999998E-004     0.0000000000000000     
  -1.7949999999999997E-004     0.0000000000000000     
  -1.7899999999999999E-004     0.0000000000000000     
  -1.7849999999999997E-004    -8.5304370807210515E-026
  -1.7799999999999999E-004     0.0000000000000000     
  -1.7749999999999998E-004     0.0000000000000000     
  -1.7699999999999999E-004    -9.6594563214832741E-026
  -1.7649999999999998E-004     0.0000000000000000     
  -1.7600000000000000E-004     0.0000000000000000     
  -1.7549999999999998E-004     1.3134644024886089E-025
  -1.7499999999999997E-004     2.4133628001866290E-025
  -1.7449999999999999E-004     2.4842761508578350E-025
  -1.7399999999999997E-004     3.0034463773743075E-025
  -1.7349999999999999E-004     2.5874544428444793E-025
  -1.7299999999999998E-004     1.0359548938242712E-025
  -1.7249999999999999E-004    -3.0809029420460188E-025
  -1.7199999999999998E-004    -8.8259172599598474E-025
  -1.7149999999999999E-004    -1.5236500198744769E-024
  -1.7099999999999998E-004    -1.8524289876035712E-024
  -1.7049999999999997E-004    -2.1640877619502426E-024
  -1.6999999999999999E-004    -1.9468724304435696E-024
  -1.6949999999999997E-004    -1.1838680102645446E-024
  -1.6899999999999999E-004     6.1764581044730427E-026
  -1.6849999999999998E-004     1.9459018246572257E-024
  -1.6799999999999999E-004     4.5904493187408899E-024
  -1.6749999999999998E-004     7.7170190235406626E-024
  -1.6699999999999999E-004     1.0466912713848056E-023
  -1.6649999999999998E-004     1.3287395854615881E-023
  -1.6599999999999997E-004     1.7435374017852363E-023
  -1.6549999999999998E-004     2.2558879631958296E-023
  -1.6500000000000000E-004     2.9594287181719474E-023
  -1.6449999999999999E-004     4.0368326703547098E-023
  -1.6399999999999997E-004     5.0038780181730412E-023
  -1.6349999999999999E-004     5.3386928921415445E-023
  -1.6299999999999998E-004     3.7884279335853724E-023
  -1.6249999999999999E-004    -1.6237290974615882E-023
  -1.6199999999999998E-004    -1.3764236728452368E-022
  -1.6149999999999997E-004    -3.5632138403159135E-022
  -1.6099999999999998E-004    -6.9508996778281317E-022
  -1.6050000000000000E-004    -1.1495469090534876E-021
  -1.5999999999999999E-004    -1.6659249481359968E-021
  -1.5949999999999997E-004    -2.1108437071745380E-021
  -1.5899999999999999E-004    -2.2446153172755602E-021
  -1.5849999999999998E-004    -1.7128805194668672E-021
  -1.5799999999999999E-004    -6.4255301025721132E-023
  -1.5749999999999998E-004     3.1744975424739734E-021
  -1.5699999999999999E-004     8.3611570155193512E-021
  -1.5649999999999998E-004     1.5522313681850519E-020
  -1.5600000000000000E-004     2.4072621326392986E-020
  -1.5549999999999999E-004     3.2504833462237930E-020
  -1.5499999999999997E-004     3.8126194016303427E-020
  -1.5449999999999999E-004     3.6950292122261816E-020
  -1.5399999999999998E-004     2.3894757867310269E-020
  -1.5349999999999999E-004    -6.5618407026311111E-021
  -1.5299999999999998E-004    -5.9123181304495288E-020
  -1.5249999999999999E-004    -1.3576287508742478E-019
  -1.5199999999999998E-004    -2.3323116711363593E-019
  -1.5150000000000000E-004    -3.4027102002206162E-019
  -1.5099999999999998E-004    -4.3509716288886328E-019
  -1.5049999999999997E-004    -4.8395932649854275E-019
  -1.4999999999999999E-004    -4.4187207839018670E-019
  -1.4949999999999997E-004    -2.5667636971029414E-019
  -1.4899999999999999E-004     1.2248851177007723E-019
  -1.4849999999999998E-004     7.3169608318874547E-019
  -1.4799999999999999E-004     1.5739747917992879E-018
  -1.4749999999999998E-004     2.5977977123524242E-018
  -1.4700000000000000E-004     3.6755042899585320E-018
  -1.4649999999999998E-004     4.5867116059947842E-018
  -1.4599999999999997E-004     5.0133789028599625E-018
  -1.4549999999999999E-004     4.5543916984808948E-018
  -1.4500000000000000E-004     2.7673955788709615E-018
  -1.4449999999999999E-004    -7.5620785374437564E-019
  -1.4399999999999998E-004    -6.2812568732800682E-018
  -1.4349999999999999E-004    -1.3788522725242409E-017
  -1.4299999999999998E-004    -2.2817902033286582E-017
  -1.4249999999999999E-004    -3.2319805930417950E-017
  -1.4199999999999998E-004    -4.0549776874272896E-017
  -1.4149999999999997E-004    -4.5051523735138116E-017
  -1.4099999999999998E-004    -4.2777755255008926E-017
  -1.4050000000000000E-004    -3.0394692768713615E-017
  -1.3999999999999999E-004    -4.8036868894909305E-018
  -1.3949999999999998E-004     3.6114385231495259E-017
  -1.3899999999999999E-004     9.2567504727045300E-017
  -1.3850000000000001E-004     1.6182055969372099E-016
  -1.3799999999999999E-004     2.3721406715191150E-016
  -1.3749999999999998E-004     3.0744418626817610E-016
  -1.3699999999999997E-004     3.5636701186555631E-016
  -1.3649999999999998E-004     3.6361495950300521E-016
  -1.3600000000000000E-004     3.0629566279795933E-016
  -1.3549999999999999E-004     1.6197981480314679E-016
  -1.3499999999999997E-004    -8.6977263715475611E-017
  -1.3449999999999999E-004    -4.4791443046598645E-016
  -1.3400000000000000E-004    -9.1159873801903546E-016
  -1.3349999999999999E-004    -1.4459564681288825E-015
  -1.3299999999999998E-004    -1.9909295887952042E-015
  -1.3249999999999997E-004    -2.4558109637206031E-015
  -1.3199999999999998E-004    -2.7206567593933140E-015
  -1.3150000000000000E-004    -2.6433575624920215E-015
  -1.3099999999999999E-004    -2.0736478245036957E-015
  -1.3049999999999997E-004    -8.7474731078849661E-016
  -1.2999999999999999E-004     1.0475947438269931E-015
  -1.2950000000000000E-004     3.7102549263495144E-015
  -1.2899999999999999E-004     7.0153305022059149E-015
  -1.2849999999999998E-004     1.0715007972111222E-014
  -1.2799999999999997E-004     1.4385542805352929E-014
  -1.2749999999999998E-004     1.7418147610225984E-014
  -1.2700000000000000E-004     1.9035454169204617E-014
  -1.2649999999999998E-004     1.8341720488877449E-014
  -1.2599999999999997E-004     1.4412785152770641E-014
  -1.2549999999999999E-004     6.4285105149960596E-015
  -1.2500000000000000E-004    -6.1553205499551934E-015
  -1.2449999999999999E-004    -2.3405946209887279E-014
  -1.2399999999999998E-004    -4.4701640633341947E-014
  -1.2349999999999997E-004    -6.8537168297531231E-014
  -1.2299999999999998E-004    -9.2381863752373228E-014
  -1.2250000000000000E-004    -1.1263363515913566E-013
  -1.2199999999999998E-004    -1.2471389746877677E-013
  -1.2149999999999999E-004    -1.2334499553864425E-013
  -1.2099999999999999E-004    -1.0304244178735263E-013
  -1.2049999999999999E-004    -5.8834856656876142E-014
  -1.1999999999999999E-004     1.2803198319327037E-014
  -1.1949999999999999E-004     1.1285764129834765E-013
  -1.1899999999999999E-004     2.3861165508088848E-013
  -1.1849999999999998E-004     3.8255558941490698E-013
  -1.1799999999999998E-004     5.3154983159736617E-013
  -1.1749999999999998E-004     6.6645796509108289E-013
  -1.1699999999999998E-004     7.6247922274007699E-013
  -1.1649999999999999E-004     7.9040045986200259E-013
  -1.1599999999999999E-004     7.1894943843515137E-013
  -1.1549999999999999E-004     5.1832575543737264E-013
  -1.1499999999999999E-004     1.6488312442186248E-013
  -1.1449999999999999E-004    -3.5325874269318724E-013
  -1.1399999999999999E-004    -1.0300850748252529E-012
  -1.1349999999999998E-004    -1.8356776719757283E-012
  -1.1299999999999998E-004    -2.7111865009925480E-012
  -1.1249999999999998E-004    -3.5658143779930814E-012
  -1.1199999999999998E-004    -4.2769467213674343E-012
  -1.1149999999999999E-004    -4.6945680561444656E-012
  -1.1099999999999999E-004    -4.6509262094149953E-012
  -1.1049999999999999E-004    -3.9760722534222778E-012
  -1.0999999999999999E-004    -2.5193311583749175E-012
  -1.0949999999999999E-004    -1.7604071068836655E-013
  -1.0899999999999999E-004     3.0820233663677190E-012
  -1.0849999999999998E-004     7.1752316324886511E-012
  -1.0799999999999998E-004     1.1887292000732492E-011
  -1.0749999999999998E-004     1.6843755582735529E-011
  -1.0699999999999999E-004     2.1502991926735148E-011
  -1.0649999999999999E-004     2.5165275696925695E-011
  -1.0599999999999999E-004     2.7004930018329863E-011
  -1.0549999999999999E-004     2.6129581798275398E-011
  -1.0499999999999999E-004     2.1668126999827332E-011
  -1.0449999999999999E-004     1.2886599680343987E-011
  -1.0399999999999998E-004    -6.7339223742226269E-013
  -1.0349999999999998E-004    -1.9042693705794914E-011
  -1.0299999999999998E-004    -4.1673812232722470E-011
  -1.0249999999999998E-004    -6.7309190620098307E-011
  -1.0199999999999999E-004    -9.3891827856032439E-011
  -1.0149999999999999E-004    -1.1854279977411127E-010
  -1.0099999999999999E-004    -1.3762942648483357E-010
  -1.0049999999999999E-004    -1.4694702772159371E-010
  -9.9999999999999991E-005    -1.4202797669376428E-010
  -9.9499999999999993E-005    -1.1858377889902853E-010
  -9.8999999999999980E-005    -7.3069517168976234E-011
  -9.8499999999999982E-005    -3.3446366583995775E-012
  -9.7999999999999983E-005     9.0617553520704660E-011
  -9.7499999999999985E-005     2.0603794569236870E-010
  -9.6999999999999986E-005     3.3674449139231916E-010
  -9.6499999999999987E-005     4.7278623204458092E-010
  -9.5999999999999989E-005     6.0036085944928805E-010
  -9.5499999999999990E-005     7.0215723743884047E-010
  -9.4999999999999992E-005     7.5820120289999410E-010
  -9.4499999999999993E-005     7.4726760796031700E-010
  -9.3999999999999981E-005     6.4886759919023455E-010
  -9.3499999999999982E-005     4.4576570795362043E-010
  -9.2999999999999984E-005     1.2690692914314594E-010
  -9.2499999999999985E-005    -3.0944768202199638E-010
  -9.1999999999999987E-005    -8.5265800816040166E-010
  -9.1499999999999988E-005    -1.4770730777981873E-009
  -9.0999999999999989E-005    -2.1402483331130208E-009
  -9.0499999999999991E-005    -2.7824346866584086E-009
  -8.9999999999999992E-005    -3.3278036540136540E-009
  -8.9499999999999994E-005    -3.6877334811451950E-009
  -8.8999999999999981E-005    -3.7664413433585500E-009
  -8.8499999999999983E-005    -3.4690235996334568E-009
  -8.7999999999999984E-005    -2.7117432702198496E-009
  -8.7499999999999986E-005    -1.4341228555993033E-009
  -8.6999999999999987E-005     3.8790600751164464E-010
  -8.6499999999999988E-005     2.7288597724637149E-009
  -8.5999999999999990E-005     5.5019176382555950E-009
  -8.5499999999999991E-005     8.5501299125261256E-009
  -8.4999999999999993E-005     1.1642316972410551E-008
  -8.4499999999999994E-005     1.4475313622877794E-008
  -8.3999999999999982E-005     1.6684251613203473E-008
  -8.3499999999999983E-005     1.7861855142060817E-008
  -8.2999999999999985E-005     1.7587339392750923E-008
  -8.2499999999999986E-005     1.5464782412572904E-008
  -8.1999999999999987E-005     1.1169427061902888E-008
  -8.1499999999999989E-005     4.4997813534994880E-009
  -8.0999999999999990E-005    -4.5682843047033138E-009
  -8.0499999999999992E-005    -1.5829993729074928E-008
  -7.9999999999999993E-005    -2.8808608494550451E-008
  -7.9499999999999994E-005    -4.2726973336095464E-008
  -7.8999999999999982E-005    -5.6500638614700645E-008
  -7.8499999999999984E-005    -6.8758262266084492E-008
  -7.7999999999999985E-005    -7.7895460677985167E-008
  -7.7499999999999986E-005    -8.2164526573524562E-008
  -7.7000000000000001E-005    -7.9801920379128920E-008
  -7.6499999999999989E-005    -6.9190325102405132E-008
  -7.5999999999999977E-005    -4.9050148686791691E-008
  -7.5499999999999992E-005    -1.8648557917688315E-008
  -7.4999999999999980E-005     2.1986871092011302E-008
  -7.4499999999999995E-005     7.1870110185300669E-008
  -7.3999999999999983E-005     1.2889546997152392E-007
  -7.3499999999999998E-005     1.8973801285992700E-007
  -7.2999999999999985E-005     2.4983901697294222E-007
  -7.2500000000000000E-005     3.0350069842651521E-007
  -7.1999999999999988E-005     3.4410703516782287E-007
  -7.1499999999999976E-005     3.6448485227633504E-007
  -7.0999999999999991E-005     3.5740449108664676E-007
  -7.0499999999999979E-005     3.1621341759955915E-007
  -6.9999999999999994E-005     2.3557611972157482E-007
  -6.9499999999999982E-005     1.1228302580821699E-007
  -6.8999999999999997E-005    -5.3926269350258658E-008
  -6.8499999999999985E-005    -2.5959345846572810E-007
  -6.7999999999999999E-005    -4.9690837773772584E-007
  -6.7499999999999987E-005    -7.5329849384457654E-007
  -6.6999999999999975E-005    -1.0113277551294488E-006
  -6.6499999999999990E-005    -1.2489953237679043E-006
  -6.5999999999999978E-005    -1.4404952516067473E-006
  -6.5499999999999993E-005    -1.5574928421924984E-006
  -6.4999999999999981E-005    -1.5709215498759032E-006
  -6.4499999999999996E-005    -1.4532769395184049E-006
  -6.3999999999999984E-005    -1.1813377592146126E-006
  -6.3499999999999999E-005    -7.3916870544160373E-007
  -6.2999999999999986E-005    -1.2123595556425988E-007
  -6.2500000000000001E-005     6.6460159066203778E-007
  -6.1999999999999989E-005     1.5945186228295067E-006
  -6.1499999999999977E-005     2.6268543122699393E-006
  -6.0999999999999992E-005     3.7012763064587664E-006
  -6.0499999999999980E-005     4.7393074320598187E-006
  -5.9999999999999995E-005     5.6464334624744302E-006
  -5.9499999999999983E-005     6.3160314344621349E-006
  -5.8999999999999998E-005     6.6352092721467885E-006
  -5.8499999999999985E-005     6.4924730309143728E-006
  -5.8000000000000000E-005     5.7870908402283608E-006
  -5.7499999999999988E-005     4.4397047874898295E-006
  -5.6999999999999976E-005     2.4036878292373125E-006
  -5.6499999999999991E-005    -3.2350474124027413E-007
  -5.5999999999999979E-005    -3.6899795200172410E-006
  -5.5499999999999994E-005    -7.5809089400879215E-006
  -5.4999999999999982E-005    -1.1813192405620957E-005
  -5.4499999999999997E-005    -1.6134170747586018E-005
  -5.3999999999999984E-005    -2.0225605069488711E-005
  -5.3499999999999999E-005    -2.3713579087423326E-005
  -5.2999999999999987E-005    -2.6184907952075014E-005
  -5.2500000000000002E-005    -2.7210316335446619E-005
  -5.1999999999999990E-005    -2.6373873095391354E-005
  -5.1499999999999978E-005    -2.3307830257141123E-005
  -5.0999999999999993E-005    -1.7731575830392683E-005
  -5.0499999999999981E-005    -9.4921955090583784E-006
  -4.9999999999999996E-005     1.3956091231795617E-006
  -4.9499999999999983E-005     1.4713751172857819E-005
  -4.8999999999999998E-005     3.0012495143989066E-005
  -4.8499999999999986E-005     4.6593571727410158E-005
  -4.8000000000000001E-005     6.3508011942096742E-005
  -4.7499999999999989E-005     7.9572256083047904E-005
  -4.6999999999999977E-005     9.3404939907136634E-005
  -4.6499999999999992E-005     1.0348598890340234E-004
  -4.5999999999999980E-005     1.0823828584048464E-004
  -4.5499999999999995E-005     1.0613044618502982E-004
  -4.4999999999999983E-005     9.5797946631631024E-005
  -4.4499999999999997E-005     7.6176906765794799E-005
  -4.3999999999999985E-005     4.6644499005485183E-005
  -4.3500000000000000E-005     7.1560705163538685E-006
  -4.2999999999999988E-005    -4.1630582777195093E-005
  -4.2500000000000003E-005    -9.8255526404624846E-005
  -4.1999999999999991E-005    -1.6039307469414694E-004
  -4.1499999999999979E-005    -2.2483694906101837E-004
  -4.0999999999999994E-005    -2.8754345917828526E-004
  -4.0499999999999982E-005    -3.4374204311252046E-004
  -3.9999999999999996E-005    -3.8811848997639015E-004
  -3.9499999999999984E-005    -4.1507152425978065E-004
  -3.8999999999999999E-005    -4.1904158286426834E-004
  -3.8499999999999987E-005    -3.9490079073448018E-004
  -3.8000000000000002E-005    -3.3838881492617820E-004
  -3.7499999999999990E-005    -2.4657956295858700E-004
  -3.6999999999999978E-005    -1.1834392777886255E-004
  -3.6499999999999993E-005     4.5214188386064443E-005
  -3.5999999999999981E-005     2.4038985546942683E-004
  -3.5499999999999996E-005     4.6060903391243363E-004
  -3.4999999999999983E-005     6.9630040008580028E-004
  -3.4499999999999998E-005     9.3494163517551646E-004
  -3.3999999999999986E-005     1.1613069622473365E-003
  -3.3500000000000001E-005     1.3579386088732204E-003
  -3.2999999999999989E-005     1.5058556206183568E-003
  -3.2499999999999977E-005     1.5854955959230766E-003
  -3.1999999999999992E-005     1.5778649068834744E-003
  -3.1499999999999980E-005     1.4658797248257574E-003
  -3.0999999999999995E-005     1.2358270701121243E-003
  -3.0499999999999982E-005     8.7888190951449213E-004
  -2.9999999999999997E-005     3.9260937960062614E-004
  -2.9499999999999985E-005    -2.1767719630803146E-004
  -2.9000000000000000E-005    -9.3778192105462791E-004
  -2.8499999999999988E-005    -1.7438403610772933E-003
  -2.8000000000000003E-005    -2.6019994513724041E-003
  -2.7499999999999991E-005    -3.4686509140682133E-003
  -2.6999999999999979E-005    -4.2913118866267563E-003
  -2.6499999999999994E-005    -5.0102172381881593E-003
  -2.5999999999999981E-005    -5.5606404008152555E-003
  -2.5499999999999996E-005    -5.8759322802130589E-003
  -2.4999999999999984E-005    -5.8912368113671803E-003
  -2.4499999999999999E-005    -5.5477511597623571E-003
  -2.3999999999999987E-005    -4.7973828378954824E-003
  -2.3500000000000002E-005    -3.6076183320667794E-003
  -2.2999999999999990E-005    -1.9663059399202334E-003
  -2.2499999999999978E-005     1.1394006877975477E-004
  -2.1999999999999993E-005     2.5919665230724033E-003
  -2.1499999999999980E-005     5.3953705209647384E-003
  -2.0999999999999995E-005     8.4191433619498594E-003
  -2.0499999999999983E-005     1.1525941872912303E-002
  -1.9999999999999998E-005     1.4548352764170986E-002
  -1.9499999999999986E-005     1.7293218710838179E-002
  -1.9000000000000001E-005     1.9548260064813049E-002
  -1.8499999999999989E-005     2.1090913925161762E-002
  -1.8000000000000004E-005     2.1699310248884846E-002
  -1.7499999999999992E-005     2.1165035320312740E-002
  -1.6999999999999980E-005     1.9307461709371584E-002
  -1.6499999999999994E-005     1.5988803321792242E-002
  -1.5999999999999982E-005     1.1129477790163676E-002
  -1.5499999999999997E-005     4.7227159160979811E-003
  -1.4999999999999985E-005    -3.1523637112962580E-003
  -1.4500000000000000E-005    -1.2320164385289399E-002
  -1.3999999999999988E-005    -2.2501721470038288E-002
  -1.3500000000000003E-005    -3.3312202526779855E-002
  -1.2999999999999991E-005    -4.4263870740346309E-002
  -1.2499999999999979E-005    -5.4775198247494543E-002
  -1.1999999999999994E-005    -6.4186501306772864E-002
  -1.1499999999999981E-005    -7.1782583008751261E-002
  -1.0999999999999996E-005    -7.6822062614361128E-002
  -1.0499999999999984E-005    -7.8572928429036570E-002
  -9.9999999999999991E-006    -7.6353541008295805E-002
  -9.4999999999999870E-006    -6.9577814695311796E-002
  -9.0000000000000019E-006    -5.7802495334569867E-002
  -8.4999999999999898E-006    -4.0774999054016756E-002
  -7.9999999999999776E-006    -1.8478793414080777E-002
  -7.4999999999999926E-006     8.8264422728599259E-003
  -6.9999999999999804E-006     4.0571661287690464E-002
  -6.4999999999999954E-006     7.5857420970737180E-002
  -5.9999999999999832E-006    0.11344519420153250     
  -5.4999999999999982E-006    0.15176584536452037     
  -4.9999999999999860E-006    0.18894580184932017     
  -4.5000000000000010E-006    0.22285364189083151     
  -3.9999999999999888E-006    0.25116700242599982     
  -3.5000000000000038E-006    0.27145937154263650     
  -2.9999999999999916E-006    0.28130758239124859     
  -2.4999999999999795E-006    0.27841413601499376     
  -1.9999999999999944E-006    0.26074437591662408     
  -1.4999999999999823E-006    0.22667110761867390     
  -9.9999999999999720E-007    0.17512217369735658     
  -4.9999999999998505E-007    0.10572369829739263     
   0.0000000000000000          1.8930509846703428E-002
   5.0000000000001215E-007    -8.3862440184171994E-002
   9.9999999999999720E-007   -0.20023866664071088     
   1.5000000000000094E-006   -0.32671524525220696     
   2.0000000000000215E-006   -0.45874399705391000     
   2.5000000000000066E-006   -0.59076195765285311     
   3.0000000000000187E-006   -0.71630135687176222     
   3.5000000000000038E-006   -0.82815819399787127     
   4.0000000000000159E-006   -0.91862261848702942     
   4.5000000000000010E-006   -0.97976785416401113     
   5.0000000000000131E-006    -1.0037951475143156     
   5.4999999999999982E-006   -0.98342247929999005     
   6.0000000000000103E-006   -0.91230951539151384     
   6.4999999999999954E-006   -0.78550452822520189     
   7.0000000000000075E-006   -0.59988833115956730     
   7.5000000000000197E-006   -0.35460888931854678     
   8.0000000000000047E-006    -5.1464957233232578E-002
   8.5000000000000169E-006    0.30476426298517145     
   9.0000000000000019E-006    0.70608154114069110     
   9.5000000000000141E-006     1.1411481039334130     
   9.9999999999999991E-006     1.5952874246965978     
   1.0500000000000011E-005     2.0506455518537479     
   1.0999999999999996E-005     2.4865149040829246     
   1.1500000000000008E-005     2.8798354723754525     
   1.2000000000000021E-005     3.2058773571547108     
   1.2500000000000006E-005     3.4390887150848153     
   1.3000000000000018E-005     3.5541143616567545     
   1.3500000000000003E-005     3.5269527369713187     
   1.4000000000000015E-005     3.3362100399184169     
   1.4500000000000000E-005     2.9644437796727332     
   1.5000000000000012E-005     2.3995081458687930     
   1.5499999999999997E-005     1.6358815848428407     
   1.6000000000000009E-005    0.67588920762376004     
   1.6499999999999994E-005   -0.46922630372208474     
   1.7000000000000007E-005    -1.7784793074334215     
   1.7500000000000019E-005    -3.2205776372710591     
   1.8000000000000004E-005    -4.7537529997526784     
   1.8500000000000016E-005    -6.3259890639852454     
   1.9000000000000001E-005    -7.8757132239401582     
   1.9500000000000013E-005    -9.3329866803152033     
   1.9999999999999998E-005    -10.621230452147035     
   2.0500000000000010E-005    -11.659445522580212     
   2.0999999999999995E-005    -12.364944449040316     
   2.1500000000000008E-005    -12.656528445872977     
   2.2000000000000020E-005    -12.458083930452627     
   2.2500000000000005E-005    -11.702446225262747     
   2.3000000000000017E-005    -10.335428192330621     
   2.3500000000000002E-005    -8.3199604122679052     
   2.4000000000000014E-005    -5.6400517428206456     
   2.4499999999999999E-005    -2.3044410245334865     
   2.5000000000000011E-005     1.6500855251309163     
   2.5499999999999996E-005     6.1562263392296073     
   2.6000000000000009E-005     11.114446030289262     
   2.6500000000000021E-005     16.392284719677217     
   2.7000000000000006E-005     21.824932228922151     
   2.7500000000000018E-005     27.217116200580563     
   2.8000000000000003E-005     32.346391697074907     
   2.8500000000000015E-005     36.968116389810760     
   2.9000000000000000E-005     40.821702928857370     
   2.9500000000000012E-005     43.638617079140175     
   2.9999999999999997E-005     45.151644892561478     
   3.0500000000000010E-005     45.105331984082468     
   3.0999999999999995E-005     43.267643665016600     
   3.1500000000000007E-005     39.442044644383280     
   3.2000000000000019E-005     33.480086055511435     
   3.2500000000000004E-005     25.293857506493552     
   3.3000000000000016E-005     14.867818899844654     
   3.3500000000000001E-005     2.2696762557833203     
   3.4000000000000013E-005    -12.340683661375641     
   3.4499999999999998E-005    -28.704003961581900     
   3.5000000000000010E-005    -46.457665422939272     
   3.5499999999999996E-005    -65.134478117254162     
   3.6000000000000008E-005    -84.165579095204976     
   3.6500000000000020E-005    -102.88714410219774     
   3.7000000000000005E-005    -120.55175561914865     
   3.7500000000000017E-005    -136.34406357256429     
   3.8000000000000002E-005    -149.40112978363570     
   3.8500000000000014E-005    -158.83746062702136     
   3.8999999999999999E-005    -163.77358436843488     
   3.9500000000000011E-005    -163.36930477917289     
   3.9999999999999996E-005    -156.85861637820594     
   4.0500000000000009E-005    -143.58806126770094     
   4.0999999999999994E-005    -123.05523393494187     
   4.1500000000000006E-005    -94.947638419000384     
   4.2000000000000018E-005    -59.179584419676459     
   4.2500000000000003E-005    -15.926520633908218     
   4.3000000000000015E-005     34.345409292726416     
   4.3500000000000000E-005     90.856093934394181     
   4.4000000000000012E-005     152.49579062249117     
   4.4499999999999997E-005     217.81910150172618     
   4.5000000000000010E-005     285.04897918437729     
   4.5500000000000022E-005     352.09374466936123     
   4.5999999999999980E-005     416.57589454669994     
   4.6499999999999992E-005     475.87521308401051     
   4.7000000000000004E-005     527.18539474559770     
   4.7500000000000016E-005     567.58470543785779     
   4.8000000000000028E-005     594.11927404765106     
   4.8499999999999986E-005     603.89870349755370     
   4.8999999999999998E-005     594.20110743482212     
   4.9500000000000011E-005     562.58867639685468     
   5.0000000000000023E-005     507.02452414785193     
   5.0499999999999981E-005     425.99681727749180     
   5.0999999999999993E-005     318.63628045233207     
   5.1500000000000005E-005     184.83239399587379     
   5.2000000000000017E-005     25.336868535506632     
   5.2500000000000029E-005    -158.14760333981766     
   5.2999999999999987E-005    -362.89410501570035     
   5.3499999999999999E-005    -585.10781203162605     
   5.4000000000000012E-005    -819.90589035155153     
   5.4500000000000024E-005    -1061.3327550959355     
   5.4999999999999982E-005    -1302.4099198777285     
   5.5499999999999994E-005    -1535.2239605625714     
   5.6000000000000006E-005    -1751.0578414428269     
   5.6500000000000018E-005    -1940.5607057958066     
   5.7000000000000030E-005    -2093.9612759406191     
   5.7499999999999988E-005    -2201.3227075753525     
   5.8000000000000000E-005    -2252.8289741782542     
   5.8500000000000012E-005    -2239.1093644871007     
   5.9000000000000025E-005    -2151.5878809959609     
   5.9499999999999983E-005    -1982.8480049951395     
   5.9999999999999995E-005    -1727.0171912957771     
   6.0500000000000007E-005    -1380.1416177257229     
   6.1000000000000019E-005    -940.56054362285727     
   6.1500000000000031E-005    -409.24042071512685     
   6.1999999999999989E-005     209.90607883795087     
   6.2500000000000001E-005     909.76891058555043     
   6.3000000000000013E-005     1679.8439756080038     
   6.3500000000000026E-005     2506.1082224274851     
   6.3999999999999984E-005     3370.9985996345590     
   6.4499999999999996E-005     4253.4908565252954     
   6.5000000000000008E-005     5129.2603595952360     
   6.5500000000000020E-005     5971.0020931377940     
   6.6000000000000032E-005     6748.8412746049407     
   6.6499999999999990E-005     7430.8953888890483     
   6.7000000000000002E-005     7983.9418919371728     
   6.7500000000000014E-005     8374.2104174475753     
   6.8000000000000027E-005     8568.2892456145728     
   6.8499999999999985E-005     8534.1371093279413     
   6.8999999999999997E-005     8242.1716181194024     
   6.9500000000000009E-005     7666.3871142906028     
   7.0000000000000021E-005     6785.5978691710452     
   7.0499999999999979E-005     5584.5736653353324     
   7.0999999999999991E-005     4055.2399549291990     
   7.1500000000000003E-005     2197.7765062955382     
   7.2000000000000015E-005     21.640186399089544     