  -1.99999995E-04     0.00000000    
  -1.99500006E-04     0.00000000    
  -1.99000002E-04     0.00000000    
  -1.98499998E-04     0.00000000    
  -1.97999994E-04     0.00000000    
  -1.97500005E-04     0.00000000    
  -1.97000001E-04     0.00000000    
  -1.96499997E-04     0.00000000    
  -1.95999994E-04     0.00000000    
  -1.95500004E-04     0.00000000    
  -1.95000001E-04     0.00000000    
  -1.94499997E-04     0.00000000    
  -1.93999993E-04     0.00000000    
  -1.93500004E-04     0.00000000    
  -1.93000000E-04     0.00000000    
  -1.92499996E-04     0.00000000    
  -1.92000007E-04     0.00000000    
  -1.91500003E-04     0.00000000    
  -1.90999999E-04     0.00000000    
  -1.90499995E-04     0.00000000    
  -1.90000006E-04     0.00000000    
  -1.89500002E-04     0.00000000    
  -1.88999998E-04     0.00000000    
  -1.88499995E-04     0.00000000    
  -1.88000005E-04     0.00000000    
  -1.87500002E-04     0.00000000    
  -1.86999998E-04     0.00000000    
  -1.86499994E-04     0.00000000    
  -1.86000005E-04     0.00000000    
  -1.85500001E-04     0.00000000    
  -1.84999997E-04     0.00000000    
  -1.84499993E-04     0.00000000    
  -1.84000004E-04     0.00000000    
  -1.83500000E-04     0.00000000    
  -1.82999996E-04     0.00000000    
  -1.82500007E-04     0.00000000    
  -1.82000003E-04     0.00000000    
  -1.81500000E-04     0.00000000    
  -1.80999996E-04     0.00000000    
  -1.80500007E-04     0.00000000    
  -1.80000003E-04     0.00000000    
  -1.79499999E-04     0.00000000    
  -1.78999995E-04     0.00000000    
  -1.78500006E-04     8.86151614E-26
  -1.78000002E-04     2.08013278E-25
  -1.77499998E-04     1.29873819E-25
  -1.76999994E-04     0.00000000    
  -1.76500005E-04    -2.38939066E-26
  -1.76000001E-04    -1.70870760E-25
  -1.75499998E-04    -1.31866605E-25
  -1.74999994E-04    -3.67296472E-25
  -1.74500005E-04    -3.35659674E-25
  -1.74000001E-04    -3.47199205E-25
  -1.73499997E-04    -3.05979226E-25
  -1.72999993E-04    -1.70142913E-25
  -1.72500004E-04     1.58224741E-25
  -1.72000000E-04     9.26263120E-25
  -1.71499996E-04     1.43746530E-24
  -1.71000007E-04     1.89114848E-24
  -1.70500003E-04     2.25563239E-24
  -1.69999999E-04     2.38603465E-24
  -1.69499996E-04     1.63590533E-24
  -1.69000006E-04     4.69239414E-25
  -1.68500002E-04    -2.04201319E-24
  -1.67999999E-04    -4.49556447E-24
  -1.67499995E-04    -6.88023892E-24
  -1.67000006E-04    -9.93919539E-24
  -1.66500002E-04    -1.33596497E-23
  -1.65999998E-04    -1.64625457E-23
  -1.65499994E-04    -2.23081770E-23
  -1.65000005E-04    -3.00272867E-23
  -1.64500001E-04    -4.03316119E-23
  -1.63999997E-04    -5.16660190E-23
  -1.63499994E-04    -5.44005107E-23
  -1.63000004E-04    -3.87935950E-23
  -1.62500000E-04     1.57717671E-23
  -1.61999997E-04     1.36729272E-22
  -1.61499993E-04     3.55746708E-22
  -1.61000004E-04     6.94796676E-22
  -1.60500000E-04     1.14865024E-21
  -1.59999996E-04     1.66512316E-21
  -1.59500007E-04     2.11029001E-21
  -1.59000003E-04     2.24456812E-21
  -1.58499999E-04     1.71299472E-21
  -1.57999995E-04     6.47305054E-23
  -1.57500006E-04    -3.17338956E-21
  -1.57000002E-04    -8.35978696E-21
  -1.56499998E-04    -1.55206693E-20
  -1.55999995E-04    -2.40713630E-20
  -1.55500005E-04    -3.25039652E-20
  -1.55000002E-04    -3.81260114E-20
  -1.54499998E-04    -3.69507008E-20
  -1.53999994E-04    -2.38956226E-20
  -1.53500005E-04     6.56073739E-21
  -1.53000001E-04     5.91221139E-20
  -1.52499997E-04     1.35762117E-19
  -1.51999993E-04     2.33230915E-19
  -1.51500004E-04     3.40272067E-19
  -1.51000000E-04     4.35099174E-19
  -1.50499996E-04     4.83961973E-19
  -1.50000007E-04     4.41873628E-19
  -1.49500003E-04     2.56677763E-19
  -1.49000000E-04    -1.22487096E-19
  -1.48499996E-04    -7.31697655E-19
  -1.48000006E-04    -1.57397726E-18
  -1.47500003E-04    -2.59780352E-18
  -1.46999999E-04    -3.67551377E-18
  -1.46499995E-04    -4.58672146E-18
  -1.46000006E-04    -5.01338908E-18
  -1.45500002E-04    -4.55440103E-18
  -1.44999998E-04    -2.76739643E-18
  -1.44499994E-04     7.56213582E-19
  -1.44000005E-04     6.28128863E-18
  -1.43500001E-04     1.37885449E-17
  -1.42999997E-04     2.28179344E-17
  -1.42499994E-04     3.23198524E-17
  -1.42000004E-04     4.05498197E-17
  -1.41500001E-04     4.50515914E-17
  -1.40999997E-04     4.27777976E-17
  -1.40499993E-04     3.03946854E-17
  -1.40000004E-04     4.80374842E-18
  -1.39500000E-04    -3.61143747E-17
  -1.38999996E-04    -9.25674795E-17
  -1.38500007E-04    -1.61820681E-16
  -1.38000003E-04    -2.37214277E-16
  -1.37499999E-04    -3.07444505E-16
  -1.36999995E-04    -3.56367699E-16
  -1.36500006E-04    -3.63615415E-16
  -1.36000002E-04    -3.06296749E-16
  -1.35499999E-04    -1.61980400E-16
  -1.34999995E-04     8.69772010E-17
  -1.34500006E-04     4.47914834E-16
  -1.34000002E-04     9.11598457E-16
  -1.33499998E-04     1.44595883E-15
  -1.32999994E-04     1.99093358E-15
  -1.32500005E-04     2.45581342E-15
  -1.32000001E-04     2.72066093E-15
  -1.31499997E-04     2.64336304E-15
  -1.30999993E-04     2.07365058E-15
  -1.30500004E-04     8.74749506E-16
  -1.30000000E-04    -1.04759489E-15
  -1.29499997E-04    -3.71026181E-15
  -1.28999993E-04    -7.01534286E-15
  -1.28500003E-04    -1.07150252E-14
  -1.28000000E-04    -1.43855654E-14
  -1.27499996E-04    -1.74181704E-14
  -1.27000007E-04    -1.90354748E-14
  -1.26500003E-04    -1.83417378E-14
  -1.25999999E-04    -1.44127874E-14
  -1.25499995E-04    -6.42853792E-15
  -1.25000006E-04     6.15533295E-15
  -1.24500002E-04     2.34059479E-14
  -1.23999998E-04     4.47017233E-14
  -1.23499995E-04     6.85373118E-14
  -1.23000005E-04     9.23819737E-14
  -1.22500001E-04     1.12633711E-13
  -1.21999998E-04     1.24714041E-13
  -1.21500001E-04     1.23345073E-13
  -1.20999997E-04     1.03042547E-13
  -1.20500001E-04     5.88348611E-14
  -1.19999997E-04    -1.28032901E-14
  -1.19500000E-04    -1.12857891E-13
  -1.18999997E-04    -2.38612081E-13
  -1.18500000E-04    -3.82555803E-13
  -1.18000004E-04    -5.31550769E-13
  -1.17500000E-04    -6.66459021E-13
  -1.17000003E-04    -7.62479652E-13
  -1.16499999E-04    -7.90401273E-13
  -1.16000003E-04    -7.18949965E-13
  -1.15499999E-04    -5.18326105E-13
  -1.15000003E-04    -1.64882593E-13
  -1.14499999E-04     3.53260308E-13
  -1.14000002E-04     1.03008639E-12
  -1.13499998E-04     1.83567939E-12
  -1.13000002E-04     2.71118935E-12
  -1.12499998E-04     3.56581713E-12
  -1.12000002E-04     4.27694859E-12
  -1.11499998E-04     4.69456939E-12
  -1.11000001E-04     4.65093068E-12
  -1.10499997E-04     3.97607685E-12
  -1.10000001E-04     2.51933262E-12
  -1.09499997E-04     1.76046000E-13
  -1.09000001E-04    -3.08202313E-12
  -1.08499997E-04    -7.17523914E-12
  -1.08000000E-04    -1.18873132E-11
  -1.07499996E-04    -1.68437798E-11
  -1.07000000E-04    -2.15030146E-11
  -1.06500003E-04    -2.51653039E-11
  -1.06000000E-04    -2.70049590E-11
  -1.05500003E-04    -2.61295898E-11
  -1.04999999E-04    -2.16681256E-11
  -1.04500003E-04    -1.28865833E-11
  -1.03999999E-04     6.73411359E-13
  -1.03500002E-04     1.90427292E-11
  -1.02999998E-04     4.16738345E-11
  -1.02500002E-04     6.73091721E-11
  -1.01999998E-04     9.38918873E-11
  -1.01500002E-04     1.18542884E-10
  -1.00999998E-04     1.37629547E-10
  -1.00500001E-04     1.46947177E-10
  -9.99999975E-05     1.42028084E-10
  -9.95000009E-05     1.18583948E-10
  -9.89999971E-05     7.30696337E-11
  -9.85000006E-05     3.34471600E-12
  -9.79999968E-05    -9.06175412E-11
  -9.75000003E-05    -2.06038381E-10
  -9.69999965E-05    -3.36744882E-10
  -9.64999999E-05    -4.72786865E-10
  -9.60000034E-05    -6.00361594E-10
  -9.54999996E-05    -7.02157776E-10
  -9.50000031E-05    -7.58201668E-10
  -9.44999992E-05    -7.47267914E-10
  -9.40000027E-05    -6.48868237E-10
  -9.34999989E-05    -4.45766257E-10
  -9.30000024E-05    -1.26906916E-10
  -9.24999986E-05     3.09448134E-10
  -9.20000020E-05     8.52658666E-10
  -9.14999982E-05     1.47707613E-09
  -9.10000017E-05     2.14025109E-09
  -9.04999979E-05     2.78243717E-09
  -9.00000014E-05     3.32780670E-09
  -8.94999976E-05     3.68773834E-09
  -8.90000010E-05     3.76644316E-09
  -8.84999972E-05     3.46902640E-09
  -8.80000007E-05     2.71174461E-09
  -8.74999969E-05     1.43412315E-09
  -8.70000003E-05    -3.87910648E-10
  -8.64999965E-05    -2.72886447E-09
  -8.60000000E-05    -5.50192558E-09
  -8.55000035E-05    -8.55014459E-09
  -8.49999997E-05    -1.16423235E-08
  -8.45000031E-05    -1.44753294E-08
  -8.39999993E-05    -1.66842664E-08
  -8.35000028E-05    -1.78618738E-08
  -8.29999990E-05    -1.75873520E-08
  -8.25000025E-05    -1.54647886E-08
  -8.19999987E-05    -1.11694298E-08
  -8.15000021E-05    -4.49977078E-09
  -8.09999983E-05     4.56830751E-09
  -8.05000018E-05     1.58300288E-08
  -7.99999980E-05     2.88086479E-08
  -7.95000014E-05     4.27270344E-08
  -7.89999976E-05     5.65006602E-08
  -7.85000011E-05     6.87583253E-08
  -7.79999973E-05     7.78955140E-08
  -7.75000008E-05     8.21645330E-08
  -7.69999970E-05     7.98019428E-08
  -7.65000004E-05     6.91903423E-08
  -7.59999966E-05     4.90500547E-08
  -7.55000001E-05     1.86484517E-08
  -7.50000036E-05    -2.19870238E-08
  -7.44999998E-05    -7.18701756E-08
  -7.40000032E-05    -1.28895536E-07
  -7.34999994E-05    -1.89738088E-07
  -7.30000029E-05    -2.49839076E-07
  -7.24999991E-05    -3.03500627E-07
  -7.20000025E-05    -3.44106837E-07
  -7.14999987E-05    -3.64484521E-07
  -7.10000022E-05    -3.57404588E-07
  -7.04999984E-05    -3.16213630E-07
  -7.00000019E-05    -2.35576294E-07
  -6.94999981E-05    -1.12283004E-07
  -6.90000015E-05     5.39260263E-08
  -6.84999977E-05     2.59593179E-07
  -6.80000012E-05     4.96908740E-07
  -6.74999974E-05     7.53298764E-07
  -6.70000009E-05     1.01132844E-06
  -6.64999970E-05     1.24899543E-06
  -6.60000005E-05     1.44049568E-06
  -6.54999967E-05     1.55749342E-06
  -6.50000002E-05     1.57092211E-06
  -6.44999964E-05     1.45327760E-06
  -6.39999998E-05     1.18133778E-06
  -6.35000033E-05     7.39168115E-07
  -6.29999995E-05     1.21235985E-07
  -6.25000030E-05    -6.64602112E-07
  -6.19999992E-05    -1.59452065E-06
  -6.15000026E-05    -2.62685512E-06
  -6.09999988E-05    -3.70127964E-06
  -6.04999987E-05    -4.73930777E-06
  -5.99999985E-05    -5.64643551E-06
  -5.94999983E-05    -6.31603007E-06
  -5.90000018E-05    -6.63520859E-06
  -5.85000016E-05    -6.49247295E-06
  -5.80000014E-05    -5.78708477E-06
  -5.75000013E-05    -4.43969884E-06
  -5.70000011E-05    -2.40368945E-06
  -5.65000009E-05     3.23510960E-07
  -5.60000008E-05     3.68998121E-06
  -5.55000006E-05     7.58091164E-06
  -5.50000004E-05     1.18131911E-05
  -5.45000003E-05     1.61341795E-05
  -5.40000001E-05     2.02256160E-05
  -5.34999999E-05     2.37135773E-05
  -5.29999998E-05     2.61848963E-05
  -5.24999996E-05     2.72103152E-05
  -5.19999994E-05     2.63738712E-05
  -5.14999992E-05     2.33078263E-05
  -5.09999991E-05     1.77315760E-05
  -5.04999989E-05     9.49219520E-06
  -4.99999987E-05    -1.39561416E-06
  -4.94999986E-05    -1.47137498E-05
  -4.89999984E-05    -3.00124957E-05
  -4.84999982E-05    -4.65935773E-05
  -4.80000017E-05    -6.35080360E-05
  -4.75000015E-05    -7.95722663E-05
  -4.70000014E-05    -9.34049676E-05
  -4.65000012E-05    -1.03486069E-04
  -4.60000010E-05    -1.08238317E-04
  -4.55000009E-05    -1.06130523E-04
  -4.50000007E-05    -9.57979792E-05
  -4.45000005E-05    -7.61768970E-05
  -4.40000003E-05    -4.66445053E-05
  -4.35000002E-05    -7.15602619E-06
  -4.30000000E-05     4.16307084E-05
  -4.24999998E-05     9.82555721E-05
  -4.19999997E-05     1.60393261E-04
  -4.14999995E-05     2.24837102E-04
  -4.09999993E-05     2.87543633E-04
  -4.04999992E-05     3.43742169E-04
  -3.99999990E-05     3.88118584E-04
  -3.94999988E-05     4.15071787E-04
  -3.89999987E-05     4.19041637E-04
  -3.84999985E-05     3.94900679E-04
  -3.79999983E-05     3.38388665E-04
  -3.75000018E-05     2.46579264E-04
  -3.70000016E-05     1.18343414E-04
  -3.65000014E-05    -4.52144232E-05
  -3.60000013E-05    -2.40390480E-04
  -3.55000011E-05    -4.60609270E-04
  -3.50000009E-05    -6.96300704E-04
  -3.45000008E-05    -9.34941694E-04
  -3.40000006E-05    -1.16130686E-03
  -3.35000004E-05    -1.35793828E-03
  -3.30000003E-05    -1.50585605E-03
  -3.25000001E-05    -1.58549577E-03
  -3.19999999E-05    -1.57786568E-03
  -3.14999997E-05    -1.46588066E-03
  -3.09999996E-05    -1.23582711E-03
  -3.04999994E-05    -8.78882769E-04
  -2.99999992E-05    -3.92610469E-04
  -2.95000009E-05     2.17678171E-04
  -2.90000007E-05     9.37782170E-04
  -2.85000006E-05     1.74384215E-03
  -2.80000004E-05     2.60200072E-03
  -2.75000002E-05     3.46865202E-03
  -2.70000000E-05     4.29131277E-03
  -2.64999999E-05     5.01021789E-03
  -2.59999997E-05     5.56064071E-03
  -2.54999995E-05     5.87593345E-03
  -2.49999994E-05     5.89123927E-03
  -2.44999992E-05     5.54775121E-03
  -2.40000008E-05     4.79738321E-03
  -2.35000007E-05     3.60762281E-03
  -2.30000005E-05     1.96630391E-03
  -2.25000003E-05    -1.13941634E-04
  -2.20000002E-05    -2.59196805E-03
  -2.15000000E-05    -5.39536914E-03
  -2.09999998E-05    -8.41913652E-03
  -2.04999997E-05    -1.15259392E-02
  -1.99999995E-05    -1.45483539E-02
  -1.94999993E-05    -1.72932222E-02
  -1.89999992E-05    -1.95482690E-02
  -1.85000008E-05    -2.10909285E-02
  -1.80000006E-05    -2.16993168E-02
  -1.75000005E-05    -2.11650506E-02
  -1.70000003E-05    -1.93074755E-02
  -1.65000001E-05    -1.59888268E-02
  -1.60000000E-05    -1.11295031E-02
  -1.54999998E-05    -4.72272327E-03
  -1.49999996E-05     3.15234996E-03
  -1.45000004E-05     1.23201590E-02
  -1.40000002E-05     2.25017220E-02
  -1.35000000E-05     3.33122164E-02
  -1.29999999E-05     4.42638993E-02
  -1.24999997E-05     5.47752120E-02
  -1.20000004E-05     6.41865209E-02
  -1.15000003E-05     7.17826337E-02
  -1.10000001E-05     7.68221095E-02
  -1.04999999E-05     7.85729885E-02
  -9.99999975E-06     7.63535649E-02
  -9.49999958E-06     6.95778206E-02
  -9.00000032E-06     5.78025132E-02
  -8.50000015E-06     4.07750383E-02
  -7.99999998E-06     1.84787679E-02
  -7.49999981E-06    -8.82634986E-03
  -7.00000010E-06    -4.05716337E-02
  -6.49999993E-06    -7.58573860E-02
  -6.00000021E-06   -0.113445193    
  -5.50000004E-06   -0.151765794    
  -4.99999987E-06   -0.188945800    
  -4.50000016E-06   -0.222853735    
  -3.99999999E-06   -0.251167059    
  -3.50000005E-06   -0.271459401    
  -3.00000011E-06   -0.281307697    
  -2.49999994E-06   -0.278414220    
  -1.99999999E-06   -0.260744572    
  -1.50000005E-06   -0.226671383    
  -9.99999997E-07   -0.175122455    
  -4.99999999E-07   -0.105723888    
   0.00000000        -1.89307127E-02
   4.99999999E-07     8.38620737E-02
   9.99999997E-07    0.200238362    
   1.50000005E-06    0.326715171    
   1.99999999E-06    0.458743989    
   2.49999994E-06    0.590762079    
   3.00000011E-06    0.716301501    
   3.50000005E-06    0.828158617    
   3.99999999E-06    0.918622792    
   4.50000016E-06    0.979768276    
   4.99999987E-06     1.00379610    
   5.50000004E-06    0.983423173    
   6.00000021E-06    0.912310302    
   6.49999993E-06    0.785505593    
   7.00000010E-06    0.599890172    
   7.49999981E-06    0.354609340    
   7.99999998E-06     5.14657609E-02
   8.50000015E-06   -0.304762781    
   9.00000032E-06   -0.706081033    
   9.49999958E-06    -1.14114821    
   9.99999975E-06    -1.59528744    
   1.04999999E-05    -2.05064535    
   1.10000001E-05    -2.48651528    
   1.15000003E-05    -2.87983632    
   1.20000004E-05    -3.20587802    
   1.24999997E-05    -3.43909073    
   1.29999999E-05    -3.55411863    
   1.35000000E-05    -3.52695584    
   1.40000002E-05    -3.33621407    
   1.45000004E-05    -2.96444941    
   1.49999996E-05    -2.39951301    
   1.54999998E-05    -1.63588500    
   1.60000000E-05   -0.675893247    
   1.65000001E-05    0.469224811    
   1.70000003E-05     1.77847886    
   1.75000005E-05     3.22057629    
   1.80000006E-05     4.75375605    
   1.85000008E-05     6.32599115    
   1.89999992E-05     7.87571335    
   1.94999993E-05     9.33298779    
   1.99999995E-05     10.6212320    
   2.04999997E-05     11.6594477    
   2.09999998E-05     12.3649406    
   2.15000000E-05     12.6565304    
   2.20000002E-05     12.4580936    
   2.25000003E-05     11.7024565    
   2.30000005E-05     10.3354521    
   2.35000007E-05     8.31998539    
   2.40000008E-05     5.64007235    
   2.44999992E-05     2.30446911    
   2.49999994E-05    -1.65005851    
   2.54999995E-05    -6.15620470    
   2.59999997E-05    -11.1144361    
   2.64999999E-05    -16.3922749    
   2.70000000E-05    -21.8249378    
   2.75000002E-05    -27.2171211    
   2.80000004E-05    -32.3464088    
   2.85000006E-05    -36.9681473    
   2.90000007E-05    -40.8217430    
   2.95000009E-05    -43.6386719    
   2.99999992E-05    -45.1516838    
   3.04999994E-05    -45.1053658    
   3.09999996E-05    -43.2676697    
   3.14999997E-05    -39.4420815    
   3.19999999E-05    -33.4801216    
   3.25000001E-05    -25.2939014    
   3.30000003E-05    -14.8679075    
   3.35000004E-05    -2.26974368    
   3.40000006E-05     12.3406210    
   3.45000008E-05     28.7039509    
   3.50000009E-05     46.4576149    
   3.55000011E-05     65.1343994    
   3.60000013E-05     84.1654663    
   3.65000014E-05     102.887070    
   3.70000016E-05     120.551712    
   3.75000018E-05     136.344055    
   3.79999983E-05     149.401215    
   3.84999985E-05     158.837601    
   3.89999987E-05     163.773804    
   3.94999988E-05     163.369568    
   3.99999990E-05     156.858948    
   4.04999992E-05     143.588547    
   4.09999993E-05     123.055801    
   4.14999995E-05     94.9481812    
   4.19999997E-05     59.1800995    
   4.24999998E-05     15.9269543    
   4.30000000E-05    -34.3449898    
   4.35000002E-05    -90.8557510    
   4.40000003E-05    -152.495667    
   4.45000005E-05    -217.819122    
   4.50000007E-05    -285.049286    
   4.55000009E-05    -352.094330    
   4.60000010E-05    -416.576691    
   4.65000012E-05    -475.876404    
   4.70000014E-05    -527.186890    
   4.75000015E-05    -567.586365    
   4.80000017E-05    -594.121155    
   4.84999982E-05    -603.900635    
   4.89999984E-05    -594.202942    
   4.94999986E-05    -562.590332    
   4.99999987E-05    -507.026215    
   5.04999989E-05    -425.998230    
   5.09999991E-05    -318.637543    
   5.14999992E-05    -184.833450    
   5.19999994E-05    -25.3368473    
   5.24999996E-05     158.148224    
   5.29999998E-05     362.895569    
   5.34999999E-05     585.110413    
   5.40000001E-05     819.909912    
   5.45000003E-05     1061.33789    
   5.50000004E-05     1302.41528    
   5.55000006E-05     1535.22998    
   5.60000008E-05     1751.06335    
   5.65000009E-05     1940.56592    
   5.70000011E-05     2093.96704    
   5.75000013E-05     2201.32788    
   5.80000014E-05     2252.83301    
   5.85000016E-05     2239.11230    
   5.90000018E-05     2151.58862    
   5.94999983E-05     1982.84790    
   5.99999985E-05     1727.01660    
   6.04999987E-05     1380.14087    
   6.09999988E-05     940.558594    
   6.15000026E-05     409.237305    
   6.19999992E-05    -209.911972    
   6.25000030E-05    -909.776428    
   6.29999995E-05    -1679.85071    
   6.35000033E-05    -2506.11597    
   6.39999998E-05    -3371.01050    
   6.44999964E-05    -4253.50342    
   6.50000002E-05    -5129.27246    
   6.54999967E-05    -5971.01367    
   6.60000005E-05    -6748.85352    
   6.64999970E-05    -7430.91162    
   6.70000009E-05    -7983.95508    
   6.74999974E-05    -8374.22363    
   6.80000012E-05    -8568.29785    
   6.84999977E-05    -8534.14844    
   6.90000015E-05    -8242.17773    
   6.94999981E-05    -7666.39404    
   7.00000019E-05    -6785.59863    
   7.04999984E-05    -5584.56689    
   7.10000022E-05    -4055.22192    
   7.14999987E-05    -2197.74976    
   7.20000025E-05    -21.5995388    
   7.24999991E-05     2453.61816    
   7.30000029E-05     5197.44385    
   7.34999994E-05     8168.07422    
   7.40000032E-05     11312.0938    
   7.44999998E-05     14564.5498    
   7.50000036E-05     17849.2715    
   7.55000001E-05     21079.5996    
   7.59999966E-05     24159.3945    
   7.65000004E-05     26984.5039    
   7.69999970E-05     29444.5488    
   7.75000008E-05     31425.0918    
   7.79999973E-05     32810.1523    
   7.85000011E-05     33485.1172    
   7.89999976E-05     33339.8516    
   7.95000014E-05     32272.0508    
   7.99999980E-05     30190.9043    
   8.05000018E-05     27020.7402    
   8.09999983E-05     22704.7207    
   8.15000021E-05     17208.5938    
   8.19999987E-05     10524.1338    
   8.25000025E-05     2672.40991    
   8.29999990E-05    -6293.24316    
   8.35000028E-05    -16284.9619    
   8.39999993E-05    -27178.4141    
   8.45000031E-05    -38811.5703    
   8.49999997E-05    -50984.5938    
   8.55000035E-05    -63460.1406    
   8.60000000E-05    -75964.9219    
   8.64999965E-05    -88192.1953    
   8.70000003E-05    -99805.4609    
   8.74999969E-05    -110443.000    
   8.80000007E-05    -119723.680    
   8.84999972E-05    -127253.805    
   8.90000010E-05    -132635.156    
   8.94999976E-05    -135473.594    
   9.00000014E-05    -135388.812    
   9.04999979E-05    -132025.047    
   9.10000017E-05    -125061.344    
   9.14999982E-05    -114223.633    
   9.20000020E-05    -99295.6797    
   9.24999986E-05    -80130.4531    
   9.30000024E-05    -56661.4609    
   9.34999989E-05    -28912.6133    
   9.40000027E-05     2991.74048    
   9.44999992E-05     38819.3555    
   9.50000031E-05     78222.5469    
   9.54999996E-05     120733.719    
   9.60000034E-05     165762.438    
   9.64999999E-05     212594.703    
   9.69999965E-05     260394.844    
   9.75000003E-05     308210.844    
   9.79999968E-05     354980.438    
   9.85000006E-05     399543.500    
   9.89999971E-05     440654.781    
   9.95000009E-05     476999.469    
   9.99999975E-05     507214.750    
   1.00500001E-04     529911.562    
   1.00999998E-04     543699.438    
   1.01500002E-04     547213.250    
   1.01999998E-04     539146.438    
   1.02500002E-04     518277.219    
   1.02999998E-04     483506.062    
   1.03500002E-04     433886.219    
   1.03999999E-04     368658.438    
   1.04500003E-04     287284.531    
   1.04999999E-04     189480.125    
   1.05500003E-04     75244.3438    
   1.06000000E-04    -55110.3398    
   1.06500003E-04    -200933.672    
   1.07000000E-04    -361214.844    
   1.07499996E-04    -534562.875    
   1.08000000E-04    -719194.500    
   1.08499997E-04    -912927.125    
   1.09000001E-04    -1113174.88    
   1.09499997E-04    -1316951.75    
   1.10000001E-04    -1520882.50    
   1.10499997E-04    -1721216.62    
   1.11000001E-04    -1913852.62    
   1.11499998E-04    -2094368.50    
   1.12000002E-04    -2258054.50    
   1.12499998E-04    -2399952.25    
   1.13000002E-04    -2514913.00    
   1.13499998E-04    -2597632.25    
   1.14000002E-04    -2642724.75    
   1.14499999E-04    -2644770.00    
   1.15000003E-04    -2598381.00    
   1.15499999E-04    -2498276.00    
   1.16000003E-04    -2339329.00    
   1.16499999E-04    -2116653.75    
   1.17000003E-04    -1825655.38    
   1.17500000E-04    -1462089.88    
   1.18000004E-04    -1022138.62    
   1.18500000E-04    -502455.531    
   1.18999997E-04     99802.1172    
   1.19500000E-04     786903.438    
   1.19999997E-04     1560522.12    
   1.20500001E-04     2421732.25    
   1.20999997E-04     3370949.75    
   1.21500001E-04     4407947.50    
   1.21999998E-04     5531880.50    
   1.22500001E-04     6741272.00    
   1.23000005E-04     8034026.50    
   1.23499995E-04     9407543.00    
   1.23999998E-04     10858631.0    
   1.24500002E-04     12383689.0    
   1.25000006E-04     13978724.0    
   1.25499995E-04     15639409.0    
   1.25999999E-04     17361218.0    
   1.26500003E-04     19139460.0    
   1.27000007E-04     20969396.0    
   1.27499996E-04     22846414.0    
   1.28000000E-04     24765984.0    
   1.28500003E-04     26723878.0    
   1.28999993E-04     28716302.0    
   1.29499997E-04     30739912.0    
   1.30000000E-04     32792014.0    
   1.30500004E-04     34870544.0    
   1.30999993E-04     36974304.0    
   1.31499997E-04     39102948.0    
   1.32000001E-04     41257212.0    
   1.32500005E-04     43438816.0    
   1.32999994E-04     45650656.0    
   1.33499998E-04     47896812.0    
   1.34000002E-04     50182612.0    
   1.34500006E-04     52514600.0    
   1.34999995E-04     54900896.0    
   1.35499999E-04     57350564.0    
   1.36000002E-04     59874420.0    
   1.36500006E-04     62484136.0    
   1.36999995E-04     65193156.0    
   1.37499999E-04     68015984.0    
   1.38000003E-04     70968400.0    
   1.38500007E-04     74067264.0    
   1.38999996E-04     77330728.0    
   1.39500000E-04     80778216.0    
   1.40000004E-04     84429664.0    
   1.40499993E-04     88306424.0    
   1.40999997E-04     92430288.0    
   1.41500001E-04     96824584.0    
   1.42000004E-04     101512344.    
   1.42499994E-04     106518224.    
   1.42999997E-04     111866832.    
   1.43500001E-04     117583344.    
   1.44000005E-04     123693648.    
   1.44499994E-04     130223448.    
   1.44999998E-04     137199408.    
   1.45500002E-04     144647696.    
   1.46000006E-04     152595792.    
   1.46499995E-04     161069872.    
   1.46999999E-04     170097488.    
   1.47500003E-04     179705904.    
   1.48000006E-04     189921552.    
   1.48499996E-04     200772848.    
   1.49000000E-04     212286592.    
   1.49500003E-04     224491072.    
   1.50000007E-04     237414560.    
   1.50499996E-04     251083824.    
   1.51000000E-04     265529504.    
   1.51500004E-04     280778720.    
   1.51999993E-04     296861600.    
   1.52499997E-04     313809088.    
   1.53000001E-04     331649824.    
   1.53500005E-04     350417248.    
   1.53999994E-04     370142176.    
   1.54499998E-04     390860000.    
   1.55000002E-04     412604000.    
   1.55500005E-04     435410784.    
   1.55999995E-04     459316672.    
   1.56499998E-04     484360960.    
   1.57000002E-04     510584608.    
   1.57500006E-04     538031040.    
   1.57999995E-04     566741760.    
   1.58499999E-04     596766592.    
   1.59000003E-04     628152576.    
   1.59500007E-04     660950336.    
   1.59999996E-04     695215616.    
   1.60500000E-04     731004416.    
   1.61000004E-04     768375744.    
   1.61499993E-04     807390464.    
   1.61999997E-04     848115264.    
   1.62500000E-04     890619456.    
   1.63000004E-04     934968832.    
   1.63499994E-04     981241536.    
   1.63999997E-04     1.02951552E+09
   1.64500001E-04     1.07987046E+09
   1.65000005E-04     1.13238886E+09
   1.65499994E-04     1.18715558E+09
   1.65999998E-04     1.24426406E+09
   1.66500002E-04     1.30380378E+09
   1.67000006E-04     1.36587034E+09
   1.67499995E-04     1.43056410E+09
   1.67999999E-04     1.49798477E+09
   1.68500002E-04     1.56823795E+09
   1.69000006E-04     1.64143680E+09
   1.69499996E-04     1.71767616E+09
   1.69999999E-04     1.79708006E+09
   1.70500003E-04     1.87976051E+09
   1.71000007E-04     1.96583309E+09
   1.71499996E-04     2.05542170E+09
   1.72000000E-04     2.14864384E+09
   1.72500004E-04     2.24562560E+09
   1.72999993E-04     2.34649011E+09
   1.73499997E-04     2.45136563E+09
   1.74000001E-04     2.56038477E+09
   1.74500005E-04     2.67366912E+09
   1.74999994E-04     2.79136256E+09
   1.75499998E-04     2.91359206E+09
   1.76000001E-04     3.04049818E+09
   1.76500005E-04     3.17221811E+09
   1.76999994E-04     3.30888960E+09
   1.77499998E-04     3.45065062E+09
   1.78000002E-04     3.59764019E+09
   1.78500006E-04     3.75000781E+09
   1.78999995E-04     3.90788710E+09
   1.79499999E-04     4.07142605E+09
   1.80000003E-04     4.24077901E+09
   1.80500007E-04     4.41609370E+09
   1.80999996E-04     4.59750758E+09
   1.81500000E-04     4.78517862E+09
   1.82000003E-04     4.97927578E+09
   1.82500007E-04     5.17992909E+09
   1.82999996E-04     5.38733005E+09
   1.83500000E-04     5.60160410E+09
   1.84000004E-04     5.82289203E+09
   1.84499993E-04     6.05137869E+09
   1.84999997E-04     6.28721920E+09
   1.85500001E-04     6.53055283E+09
   1.86000005E-04     6.78155366E+09
   1.86499994E-04     7.04036710E+09
   1.86999998E-04     7.30717133E+09
   1.87500002E-04     7.58209536E+09
   1.88000005E-04     7.86536346E+09
   1.88499995E-04     8.15704781E+09
   1.88999998E-04     8.45736960E+09
   1.89500002E-04     8.76645069E+09
   1.90000006E-04     9.08447437E+09
   1.90499995E-04     9.41155226E+09
   1.90999999E-04     9.74786458E+09
   1.91500003E-04     1.00935393E+10
   1.92000007E-04     1.04487076E+10
   1.92499996E-04     1.08135291E+10
   1.93000000E-04     1.11881062E+10
   1.93500004E-04     1.15726070E+10
   1.93999993E-04     1.19671337E+10
   1.94499997E-04     1.23717519E+10
   1.95000001E-04     1.27866378E+10
   1.95500004E-04     1.32118538E+10
   1.95999994E-04     1.36474778E+10
   1.96499997E-04     1.40936837E+10
   1.97000001E-04     1.45504717E+10
   1.97500005E-04     1.50179604E+10
   1.97999994E-04     1.54961326E+10
   1.98499998E-04     1.59850250E+10
   1.99000002E-04     1.64847841E+10
   1.99500006E-04     1.69953454E+10
   1.99999995E-04     1.75167877E+10
   2.00499999E-04     1.80489871E+10
   2.01000003E-04     1.85920922E+10
   2.01500006E-04     1.91460086E+10
   2.01999996E-04     1.97105951E+10
   2.02499999E-04     2.02860032E+10
   2.03000003E-04     2.08719749E+10
   2.03500007E-04     2.14685000E+10
   2.03999996E-04     2.20755272E+10
   2.04500000E-04     2.26928783E+10