  -1.9999999999999998E-004     0.0000000000000000     
  -1.9949999999999997E-004     0.0000000000000000     
  -1.9899999999999999E-004     0.0000000000000000     
  -1.9849999999999997E-004     0.0000000000000000     
  -1.9799999999999999E-004     0.0000000000000000     
  -1.9749999999999998E-004     0.0000000000000000     
  -1.9699999999999999E-004     0.0000000000000000     
  -1.9649999999999998E-004     0.0000000000000000     
  -1.9599999999999999E-004     0.0000000000000000     
  -1.9549999999999998E-004     0.0000000000000000     
  -1.9499999999999997E-004     0.0000000000000000     
  -1.9449999999999998E-004     0.0000000000000000     
  -1.9399999999999997E-004     0.0000000000000000     
  -1.9349999999999999E-004     0.0000000000000000     
  -1.9299999999999997E-004     0.0000000000000000     
  -1.9249999999999999E-004     0.0000000000000000     
  -1.9199999999999998E-004     0.0000000000000000     
  -1.9149999999999999E-004     0.0000000000000000     
  -1.9099999999999998E-004     0.0000000000000000     
  -1.9050000000000000E-004     0.0000000000000000     
  -1.8999999999999998E-004     0.0000000000000000     
  -1.8949999999999997E-004     0.0000000000000000     
  -1.8899999999999999E-004     0.0000000000000000     
  -1.8849999999999997E-004     0.0000000000000000     
  -1.8799999999999999E-004     0.0000000000000000     
  -1.8749999999999998E-004     0.0000000000000000     
  -1.8699999999999999E-004     0.0000000000000000     
  -1.8649999999999998E-004     0.0000000000000000     
  -1.8599999999999999E-004     0.0000000000000000     
  -1.8549999999999998E-004     0.0000000000000000     
  -1.8500000000000000E-004     0.0000000000000000     
  -1.8449999999999999E-004     0.0000000000000000     
  -1.8399999999999997E-004     0.0000000000000000     
  -1.8349999999999999E-004     0.0000000000000000     
  -1.8299999999999998E-004     0.0000000000000000     
  -1.8249999999999999E-004     0.0000000000000000     
  -1.8199999999999998E-004     0.0000000000000000     
  -1.8149999999999999E-004     0.0000000000000000     
  -1.8099999999999998E-004     0.0000000000000000     
  -1.8050000000000000E-004     0.0000000000000000     
  -1.7999999999999998E-004     0.0000000000000000     
  -1.7949999999999997E-004     0.0000000000000000     
  -1.7899999999999999E-004     0.0000000000000000     
  -1.7849999999999997E-004     0.0000000000000000     
  -1.7799999999999999E-004     0.0000000000000000     
  -1.7749999999999998E-004     0.0000000000000000     
  -1.7699999999999999E-004     4.3319640840647686E-027
  -1.7649999999999998E-004     5.4168370107240628E-027
  -1.7600000000000000E-004     5.7203625088132359E-027
  -1.7549999999999998E-004     1.1115968990779222E-026
  -1.7499999999999997E-004     6.5228054289063501E-027
  -1.7449999999999999E-004     5.8755679346339196E-027
  -1.7399999999999997E-004    -9.0174696443768897E-027
  -1.7349999999999999E-004    -2.6103096333771574E-026
  -1.7299999999999998E-004    -3.1089390814007158E-026
  -1.7249999999999999E-004    -3.8782798086030535E-026
  -1.7199999999999998E-004     1.6567564599404389E-025
  -1.7149999999999999E-004    -5.8947511246919586E-026
  -1.7099999999999998E-004    -3.3965334968381682E-026
  -1.7049999999999997E-004     2.5872806691265959E-027
  -1.6999999999999999E-004     4.5700261071211729E-026
  -1.6949999999999997E-004    -5.1248863527354222E-026
  -1.6899999999999999E-004    -3.7468830257609446E-026
  -1.6849999999999998E-004    -4.8802269219086442E-027
  -1.6799999999999999E-004     6.6859079110469068E-026
  -1.6749999999999998E-004     1.3527164930623054E-025
  -1.6699999999999999E-004     2.8947030036082072E-025
  -1.6649999999999998E-004     6.6937881409347734E-025
  -1.6599999999999997E-004     1.4162255976179070E-024
  -1.6549999999999998E-004     2.0091486913699113E-024
  -1.6500000000000000E-004     2.3431520500923486E-024
  -1.6449999999999999E-004     2.3114608849654018E-024
  -1.6399999999999997E-004     9.6963422485060076E-025
  -1.6349999999999999E-004    -2.1430373648380205E-024
  -1.6299999999999998E-004    -6.7972697629004549E-024
  -1.6249999999999999E-004    -1.3198405596185643E-023
  -1.6199999999999998E-004    -2.1321866133163554E-023
  -1.6149999999999997E-004    -3.0006808690862534E-023
  -1.6099999999999998E-004    -3.8270515576776142E-023
  -1.6050000000000000E-004    -4.1559418546418044E-023
  -1.5999999999999999E-004    -3.6396847782618688E-023
  -1.5949999999999997E-004    -1.7780283990141301E-023
  -1.5899999999999999E-004     1.9971290562638542E-023
  -1.5849999999999998E-004     8.0010365250100645E-023
  -1.5799999999999999E-004     1.6245914243220697E-022
  -1.5749999999999998E-004     2.6175373939657298E-022
  -1.5699999999999999E-004     3.6414804298012099E-022
  -1.5649999999999998E-004     4.4558534705449430E-022
  -1.5600000000000000E-004     4.7233319215706646E-022
  -1.5549999999999999E-004     4.0260914797266415E-022
  -1.5499999999999997E-004     1.9240463926699919E-022
  -1.5449999999999999E-004    -1.9450284964387084E-022
  -1.5399999999999998E-004    -7.7368567317953472E-022
  -1.5349999999999999E-004    -1.5233487085355522E-021
  -1.5299999999999998E-004    -2.3686425400443134E-021
  -1.5249999999999999E-004    -3.1691394158556051E-021
  -1.5199999999999998E-004    -3.7155017133388014E-021
  -1.5150000000000000E-004    -3.7412097824024396E-021
  -1.5099999999999998E-004    -2.9543377540813496E-021
  -1.5049999999999997E-004    -1.0923814496399167E-021
  -1.4999999999999999E-004     1.9996774939698820E-021
  -1.4949999999999997E-004     6.2768402805245292E-021
  -1.4899999999999999E-004     1.1399282237807911E-020
  -1.4849999999999998E-004     1.6658524154997671E-020
  -1.4799999999999999E-004     2.0951838949469897E-020
  -1.4749999999999998E-004     2.2836560985989093E-020
  -1.4700000000000000E-004     2.0692104091777145E-020
  -1.4649999999999998E-004     1.3005777490111587E-020
  -1.4599999999999997E-004    -1.2205069385908160E-021
  -1.4549999999999999E-004    -2.1979460853159275E-020
  -1.4500000000000000E-004    -4.7753306172134468E-020
  -1.4449999999999999E-004    -7.5106747607191564E-020
  -1.4399999999999998E-004    -9.8520135798825680E-020
  -1.4349999999999999E-004    -1.1062260962701855E-019
  -1.4299999999999998E-004    -1.0296883681571264E-019
  -1.4249999999999999E-004    -6.7456376726851387E-020
  -1.4199999999999998E-004     1.6270739714396790E-021
  -1.4149999999999997E-004     1.0507214905656710E-019
  -1.4099999999999998E-004     2.3606176363608521E-019
  -1.4050000000000000E-004     3.7785606734515104E-019
  -1.3999999999999999E-004     5.0253959217474993E-019
  -1.3949999999999998E-004     5.7162221242210284E-019
  -1.3899999999999999E-004     5.3928022933784115E-019
  -1.3850000000000001E-004     3.5878585327121794E-019
  -1.3799999999999999E-004    -7.6495493494833046E-021
  -1.3749999999999998E-004    -5.7613060375774752E-019
  -1.3699999999999997E-004    -1.3266387674313095E-018
  -1.3649999999999998E-004    -2.1891060652584809E-018
  -1.3600000000000000E-004    -3.0331160454221514E-018
  -1.3549999999999999E-004    -3.6649402904312072E-018
  -1.3499999999999997E-004    -3.8359468990779821E-018
  -1.3449999999999999E-004    -3.2659755595837614E-018
  -1.3400000000000000E-004    -1.6838800705568700E-018
  -1.3349999999999999E-004     1.1146197062724449E-018
  -1.3299999999999998E-004     5.1952413658011133E-018
  -1.3249999999999997E-004     1.0406467186826802E-017
  -1.3199999999999998E-004     1.6305839428675345E-017
  -1.3150000000000000E-004     2.2106126427376670E-017
  -1.3099999999999999E-004     2.6660555074443999E-017
  -1.3049999999999997E-004     2.8505242839544118E-017
  -1.2999999999999999E-004     2.5976321037204224E-017
  -1.2950000000000000E-004     1.7412607018535046E-017
  -1.2899999999999999E-004     1.4438917170374924E-018
  -1.2849999999999998E-004    -2.2646222858769001E-017
  -1.2799999999999997E-004    -5.4516481097734334E-017
  -1.2749999999999998E-004    -9.2367306567715149E-017
  -1.2700000000000000E-004    -1.3261336318235040E-016
  -1.2649999999999998E-004    -1.6970510523492004E-016
  -1.2599999999999997E-004    -1.9618751558833026E-016
  -1.2549999999999999E-004    -2.0307394255901714E-016
  -1.2500000000000000E-004    -1.8060029854786017E-016
  -1.2449999999999999E-004    -1.1938867501943270E-016
  -1.2399999999999998E-004    -1.2001154556583371E-017
  -1.2349999999999997E-004     1.4518774576666222E-016
  -1.2299999999999998E-004     3.4996535300487442E-016
  -1.2250000000000000E-004     5.9228491979184814E-016
  -1.2199999999999998E-004     8.5263126400378176E-016
  -1.2149999999999999E-004     1.1010442398735528E-015
  -1.2099999999999999E-004     1.2971699940896097E-015
  -1.2049999999999999E-004     1.3917110750304953E-015
  -1.1999999999999999E-004     1.3295490572501238E-015
  -1.1949999999999999E-004     1.0547541804264892E-015
  -1.1899999999999999E-004     5.1755556778982383E-016
  -1.1849999999999998E-004    -3.1692728218778843E-016
  -1.1799999999999998E-004    -1.4584871860818583E-015
  -1.1749999999999998E-004    -2.8810220214829880E-015
  -1.1699999999999998E-004    -4.5117121027518187E-015
  -1.1649999999999999E-004    -6.2221576373511090E-015
  -1.1599999999999999E-004    -7.8222881765912704E-015
  -1.1549999999999999E-004    -9.0596560735853903E-015
  -1.1499999999999999E-004    -9.6256813296345701E-015
  -1.1449999999999999E-004    -9.1712773982023318E-015
  -1.1399999999999999E-004    -7.3335916679500682E-015
  -1.1349999999999998E-004    -3.7755127679434877E-015
  -1.1299999999999998E-004     1.7618404646477580E-015
  -1.1249999999999998E-004     9.3938317946334372E-015
  -1.1199999999999998E-004     1.9018046164445795E-014
  -1.1149999999999999E-004     3.0234952590092070E-014
  -1.1099999999999999E-004     4.2272671503778203E-014
  -1.1049999999999999E-004     5.3927777735470868E-014
  -1.0999999999999999E-004     6.3535405667221495E-014
  -1.0949999999999999E-004     6.8988154958638561E-014
  -1.0899999999999999E-004     6.7821723843118361E-014
  -1.0849999999999998E-004     5.7385624254518942E-014
  -1.0799999999999998E-004     3.5114478530889180E-014
  -1.0749999999999998E-004    -1.0945336051456643E-015
  -1.0699999999999999E-004    -5.2401107801143822E-014
  -1.0649999999999999E-004    -1.1846039687546441E-013
  -1.0599999999999999E-004    -1.9682905910169331E-013
  -1.0549999999999999E-004    -2.8239753258997284E-013
  -1.0499999999999999E-004    -3.6694881694759212E-013
  -1.0449999999999999E-004    -4.3895899714399895E-013
  -1.0399999999999998E-004    -4.8376226725812811E-013
  -1.0349999999999998E-004    -4.8422474075526281E-013
  -1.0299999999999998E-004    -4.2203317487757534E-013
  -1.0249999999999998E-004    -2.7967460170964963E-013
  -1.0199999999999999E-004    -4.3133280944054184E-014
  -1.0149999999999999E-004     2.9481795533332296E-013
  -1.0099999999999999E-004     7.3089889121125397E-013
  -1.0049999999999999E-004     1.2475584178523245E-012
  -9.9999999999999991E-005     1.8096487024378563E-012
  -9.9499999999999993E-005     2.3621695350743296E-012
  -9.8999999999999980E-005     2.8297972171276510E-012
  -9.8499999999999982E-005     3.1189719658164408E-012
  -9.7999999999999983E-005     3.1232117040602336E-012
  -9.7499999999999985E-005     2.7321733809444902E-012
  -9.6999999999999986E-005     1.8446326920892460E-012
  -9.6499999999999987E-005     3.8513316067270497E-013
  -9.5999999999999989E-005    -1.6765794544575527E-012
  -9.5499999999999990E-005    -4.3049264258544270E-012
  -9.4999999999999992E-005    -7.3788822875995196E-012
  -9.4499999999999993E-005    -1.0676348183472880E-011
  -9.3999999999999981E-005    -1.3866035305429916E-011
  -9.3499999999999982E-005    -1.6510412097733204E-011
  -9.2999999999999984E-005    -1.8083353330906897E-011
  -9.2499999999999985E-005    -1.8005195916673544E-011
  -9.1999999999999987E-005    -1.5696814352782099E-011
  -9.1499999999999988E-005    -1.0652152677368316E-011
  -9.0999999999999989E-005    -2.5264154891160511E-012
  -9.0499999999999991E-005     8.7660687946875130E-012
  -8.9999999999999992E-005     2.2953143518414806E-011
  -8.9499999999999994E-005     3.9317697513958581E-011
  -8.8999999999999981E-005     5.6636331637540028E-011
  -8.8499999999999983E-005     7.3159932934549996E-011
  -8.7999999999999984E-005     8.6652187076090401E-011
  -8.7499999999999986E-005     9.4499066525192571E-011
  -8.6999999999999987E-005     9.3899735200815661E-011
  -8.6499999999999988E-005     8.2140021855213485E-011
  -8.5999999999999990E-005     5.6942024542802604E-011
  -8.5499999999999991E-005     1.6871661638211251E-011
  -8.4999999999999993E-005    -3.8227641295929275E-011
  -8.4499999999999994E-005    -1.0681608407983778E-010
  -8.3999999999999982E-005    -1.8531214454768231E-010
  -8.3499999999999983E-005    -2.6787584518361394E-010
  -8.2999999999999985E-005    -3.4639245302212860E-010
  -8.2499999999999986E-005    -4.1071040538508749E-010
  -8.1999999999999987E-005    -4.4918567046749852E-010
  -8.1499999999999989E-005    -4.4955634060359724E-010
  -8.0999999999999990E-005    -4.0014285130960331E-010
  -8.0499999999999992E-005    -2.9133191642842487E-010
  -7.9999999999999993E-005    -1.1725689390255016E-010
  -7.9499999999999994E-005     1.2246078213850688E-010
  -7.8999999999999982E-005     4.2108621447795301E-010
  -7.8499999999999984E-005     7.6347150201166077E-010
  -7.7999999999999985E-005     1.1253202151028084E-009
  -7.7499999999999986E-005     1.4732534858349817E-009
  -7.7000000000000001E-005     1.7658733124378074E-009
  -7.6499999999999989E-005     1.9560000525174509E-009
  -7.5999999999999977E-005     1.9941368159661253E-009
  -7.5499999999999992E-005     1.8331168060032238E-009
  -7.4999999999999980E-005     1.4337586999701402E-009
  -7.4499999999999995E-005     7.7116432962270577E-010
  -7.3999999999999983E-005    -1.5879458841948644E-010
  -7.3499999999999998E-005    -1.3335172443088544E-009
  -7.2999999999999985E-005    -2.6988868667694464E-009
  -7.2500000000000000E-005    -4.1665845091849532E-009
  -7.1999999999999988E-005    -5.6142278876006086E-009
  -7.1499999999999976E-005    -6.8890269767249872E-009
  -7.0999999999999991E-005    -7.8155244805721356E-009
  -7.0499999999999979E-005    -8.2075764855343651E-009
  -6.9999999999999994E-005    -7.8844203431086016E-009
  -6.9499999999999982E-005    -6.6902031633132065E-009
  -6.8999999999999997E-005    -4.5158513254026582E-009
  -6.8499999999999985E-005    -1.3216453228653738E-009
  -6.7999999999999999E-005     2.8416075384922064E-009
  -6.7499999999999987E-005     7.8151453781239704E-009
  -6.6999999999999975E-005     1.3321264216353345E-008
  -6.6499999999999990E-005     1.8961284325731498E-008
  -6.5999999999999978E-005     2.4224798328765746E-008
  -6.5499999999999993E-005     2.8511951055375439E-008
  -6.4999999999999981E-005     3.1169392676933139E-008
  -6.4499999999999996E-005     3.1540009236716231E-008
  -6.3999999999999984E-005     2.9024256937205697E-008
  -6.3499999999999999E-005     2.3150442067212823E-008
  -6.2999999999999986E-005     1.3649111696066541E-008
  -6.2500000000000001E-005     5.2526502752755630E-010
  -6.1999999999999989E-005    -1.5878317855351228E-008
  -6.1499999999999977E-005    -3.4834591265837895E-008
  -6.0999999999999992E-005    -5.5211442261018602E-008
  -6.0499999999999980E-005    -7.5482074575220926E-008
  -5.9999999999999995E-005    -9.3774737592195068E-008
  -5.9499999999999983E-005    -1.0796429184289406E-007
  -5.8999999999999998E-005    -1.1580641777928545E-007
  -5.8499999999999985E-005    -1.1511263947392839E-007
  -5.8000000000000000E-005    -1.0395763935029143E-007
  -5.7499999999999988E-005    -8.0909271067255068E-008
  -5.6999999999999976E-005    -4.5263937274061782E-008
  -5.6499999999999991E-005     2.7311379295125865E-009
  -5.5999999999999979E-005     6.1689589469294458E-008
  -5.5499999999999994E-005     1.2895815585055604E-007
  -5.4999999999999982E-005     2.0057004599190190E-007
  -5.4499999999999997E-005     2.7130096303684466E-007
  -5.3999999999999984E-005     3.3484444942495192E-007
  -5.3499999999999999E-005     3.8411825652860399E-007
  -5.2999999999999987E-005     4.1169742342607021E-007
  -5.2500000000000002E-005     4.1037051783703453E-007
  -5.1999999999999990E-005     3.7379244181295080E-007
  -5.1499999999999978E-005     2.9720335156212671E-007
  -5.0999999999999993E-005     1.7816544171945874E-007
  -5.0499999999999981E-005     1.7260134364979463E-008
  -4.9999999999999996E-005    -1.8131427284429913E-007
  -4.9499999999999983E-005    -4.0931908534652312E-007
  -4.8999999999999998E-005    -6.5429826752927054E-007
  -4.8499999999999986E-005    -8.9969610019748486E-007
  -4.8000000000000001E-005    -1.1253437212434573E-006
  -4.7499999999999989E-005    -1.3083301245981258E-006
  -4.6999999999999977E-005    -1.4242840628025335E-006
  -4.6499999999999992E-005    -1.4490308737870309E-006
  -4.5999999999999980E-005    -1.3605847128395888E-006
  -4.5499999999999995E-005    -1.1413841330119173E-006
  -4.4999999999999983E-005    -7.8063912133143004E-007
  -4.4499999999999997E-005    -2.7663054444922135E-007
  -4.3999999999999985E-005     3.6121677086955601E-007
  -4.3500000000000000E-005     1.1107231595472052E-006
  -4.2999999999999988E-005     1.9359979855387756E-006
  -4.2500000000000003E-005     2.7873564193304345E-006
  -4.1999999999999991E-005     3.6023236962994103E-006
  -4.1499999999999979E-005     4.3078344498067527E-006
  -4.0999999999999994E-005     4.8237436884197346E-006
  -4.0499999999999982E-005     5.0676272002651145E-006
  -3.9999999999999996E-005     4.9607890422336395E-006
  -3.9499999999999984E-005     4.4352412879955643E-006
  -3.8999999999999999E-005     3.4413495728666339E-006
  -3.8499999999999987E-005     1.9556835905549537E-006
  -3.8000000000000002E-005    -1.1533080509631495E-008
  -3.7499999999999990E-005    -2.4099603290993855E-006
  -3.6999999999999978E-005    -5.1444492356214073E-006
  -3.6499999999999993E-005    -8.0728433006903733E-006
  -3.5999999999999981E-005    -1.1006932619271326E-005
  -3.5499999999999996E-005    -1.3717269133167971E-005
  -3.4999999999999983E-005    -1.5942175512383436E-005
  -3.4499999999999998E-005    -1.7401268923026698E-005
  -3.3999999999999986E-005    -1.7813225447804827E-005
  -3.3500000000000001E-005    -1.6917671236012435E-005
  -3.2999999999999989E-005    -1.4499923061358929E-005
  -3.2499999999999977E-005    -1.0417682489596103E-005
  -3.1999999999999992E-005    -4.6276876557650456E-006
  -3.1499999999999980E-005     2.7894526784717611E-006
  -3.0999999999999995E-005     1.1608874154335258E-005
  -3.0499999999999982E-005     2.1447847982171054E-005
  -2.9999999999999997E-005     3.1761626204122271E-005
  -2.9499999999999985E-005     4.1850789822913975E-005
  -2.9000000000000000E-005     5.0882612751274869E-005
  -2.8499999999999988E-005     5.7927049167934572E-005
  -2.8000000000000003E-005     6.2008003079278918E-005
  -2.7499999999999991E-005     6.2169428933884214E-005
  -2.6999999999999979E-005     5.7553626419768585E-005
  -2.6499999999999994E-005     4.7488815764530494E-005
  -2.5999999999999981E-005     3.1580721319148880E-005
  -2.5499999999999996E-005     9.8022338937606203E-006
  -2.4999999999999984E-005    -1.7426719654430976E-005
  -2.4499999999999999E-005    -4.9176650370508606E-005
  -2.3999999999999987E-005    -8.3972561073940945E-005
  -2.3500000000000002E-005    -1.1979201866344130E-004
  -2.2999999999999990E-005    -1.5410633978471891E-004
  -2.2499999999999978E-005    -1.8396774029845109E-004
  -2.1999999999999993E-005    -2.0614826197378093E-004
  -2.1499999999999980E-005    -2.1732876083244216E-004
  -2.0999999999999995E-005    -2.1433347316272291E-004
  -2.0499999999999983E-005    -1.9440278591065021E-004
  -1.9999999999999998E-005    -1.5549086898977244E-004
  -1.9499999999999986E-005    -9.6568404832911525E-005
  -1.9000000000000001E-005    -1.7911181225145230E-005
  -1.8499999999999989E-005     7.8652018060511574E-005
  -1.8000000000000004E-005     1.8955944542272936E-004
  -1.7499999999999992E-005     3.0943199730671506E-004
  -1.6999999999999980E-005     4.3110706631813189E-004
  -1.6499999999999994E-005     5.4581699579751809E-004
  -1.5999999999999982E-005     6.4352353510215433E-004
  -1.5499999999999997E-005     7.1341387524652422E-004
  -1.4999999999999985E-005     7.4455713116260180E-004
  -1.4500000000000000E-005     7.2669575743828025E-004
  -1.3999999999999988E-005     6.5115167511528755E-004
  -1.3500000000000003E-005     5.1178467378215880E-004
  -1.2999999999999991E-005     3.0595855417870314E-004
  -1.2499999999999979E-005     3.5432781455926013E-005
  -1.1999999999999994E-005    -2.9289437700859479E-004
  -1.1499999999999981E-005    -6.6648078584779233E-004
  -1.0999999999999996E-005    -1.0669534530951010E-003
  -1.0499999999999984E-005    -1.4703061252146928E-003
  -9.9999999999999991E-006    -1.8475666993562059E-003
  -9.4999999999999870E-006    -2.1659449648016183E-003
  -9.0000000000000019E-006    -2.3904823695982368E-003
  -8.4999999999999898E-006    -2.4861865265670144E-003
  -7.9999999999999776E-006    -2.4205611804878338E-003
  -7.4999999999999926E-006    -2.1664652622203034E-003
  -6.9999999999999804E-006    -1.7050999624732049E-003
  -6.4999999999999954E-006    -1.0289880147109644E-003
  -5.9999999999999832E-006    -1.4467986594372153E-004
  -5.4999999999999982E-006     9.2502026548515635E-004
  -4.9999999999999860E-006     2.1395682857744034E-003
  -4.5000000000000010E-006     3.4402280712324275E-003
  -3.9999999999999888E-006     4.7507481330636555E-003
  -3.5000000000000038E-006     5.9795160670404537E-003
  -2.9999999999999916E-006     7.0231068427854685E-003
  -2.4999999999999795E-006     7.7714204587194888E-003
  -1.9999999999999944E-006     8.1141780065997447E-003
  -1.4999999999999823E-006     7.9486828951226222E-003
  -9.9999999999999720E-007     7.1885022072110871E-003
  -4.9999999999998505E-007     5.7725558545685049E-003
   0.0000000000000000          3.6742055893567720E-003
   5.0000000000001215E-007     9.0957822871548185E-004
   9.9999999999999720E-007    -2.4555568030244536E-003
   1.5000000000000094E-006    -6.3010112390492513E-003
   2.0000000000000215E-006    -1.0450362361031246E-002
   2.5000000000000066E-006    -1.4672607821592685E-002
   3.0000000000000187E-006    -1.8687919150838145E-002
   3.5000000000000038E-006    -2.2177742419057265E-002
   4.0000000000000159E-006    -2.4799433327583744E-002
   4.5000000000000010E-006    -2.6205247183910558E-002
   5.0000000000000131E-006    -2.6065025805115015E-002
   5.4999999999999982E-006    -2.4092012463994346E-002
   6.0000000000000103E-006    -2.0070344105204609E-002
   6.4999999999999954E-006    -1.3882855337392020E-002
   7.0000000000000075E-006    -5.5373846533939104E-003
   7.5000000000000197E-006     4.8105527667985006E-003
   8.0000000000000047E-006     1.6840680200543599E-002
   8.5000000000000169E-006     3.0058619530288509E-002
   9.0000000000000019E-006     4.3796593303266705E-002
   9.5000000000000141E-006     5.7225337328665825E-002
   9.9999999999999991E-006     6.9379081426513001E-002
   1.0500000000000011E-005     7.9193616630030716E-002
   1.0999999999999996E-005     8.5558266891943111E-002
   1.1500000000000008E-005     8.7379713449487723E-002
   1.2000000000000021E-005     8.3656690712523227E-002
   1.2500000000000006E-005     7.3562368062868838E-002
   1.3000000000000018E-005     5.6530276858095398E-002
   1.3500000000000003E-005     3.2339673444451079E-002
   1.4000000000000015E-005     1.1938170142489592E-003
   1.4500000000000000E-005    -3.6213687159715048E-002
   1.5000000000000012E-005    -7.8651898103586609E-002
   1.5499999999999997E-005   -0.12433079044709394     
   1.6000000000000009E-005   -0.17090994220189198     
   1.6499999999999994E-005   -0.21554387810357969     
   1.7000000000000007E-005   -0.25496663067285508     
   1.7500000000000019E-005   -0.28561752134627411     
   1.8000000000000004E-005   -0.30380821876335851     
   1.8500000000000016E-005   -0.30592762333501589     
   1.9000000000000001E-005   -0.28867978415884477     
   1.9500000000000013E-005   -0.24934538632695258     
   1.9999999999999998E-005   -0.18605563322208996     
   2.0500000000000010E-005    -9.8065715359127212E-002
   2.0999999999999995E-005     1.3990157626395673E-002
   2.1500000000000008E-005    0.14788165634092099     
   2.2000000000000020E-005    0.29961494117443649     
   2.2500000000000005E-005    0.46334682238553904     
   2.3000000000000017E-005    0.63138507594451609     
   2.3500000000000002E-005    0.79430242630856251     
   2.4000000000000014E-005    0.94116768511059234     
   2.4499999999999999E-005     1.0599105192804774     
   2.5000000000000011E-005     1.1378113899316440     
   2.5499999999999996E-005     1.1621251211391173     
   2.6000000000000009E-005     1.1208123990587460     
   2.6500000000000021E-005     1.0033630423179816     
   2.7000000000000006E-005    0.80168354367069639     
   2.7500000000000018E-005    0.51100821965364107     
   2.8000000000000003E-005    0.13078437591514769     
   2.8500000000000015E-005   -0.33451685751310078     
   2.9000000000000000E-005   -0.87472026293706839     
   2.9500000000000012E-005    -1.4734672489697385     
   2.9999999999999997E-005    -2.1079775047648779     
   3.0500000000000010E-005    -2.7491340345192286     
   3.0999999999999995E-005    -3.3619137468983387     
   3.1500000000000007E-005    -3.9062304984733753     
   3.2000000000000019E-005    -4.3381699602939001     
   3.2500000000000004E-005    -4.6116889108370946     
   3.3000000000000016E-005    -4.6807053003893824     
   3.3500000000000001E-005    -4.5015488571776014     
   3.4000000000000013E-005    -4.0357387846378110     
   3.4499999999999998E-005    -3.2529898978618457     
   3.5000000000000010E-005    -2.1342673546206714     
   3.5499999999999996E-005   -0.67485142187445701     
   3.6000000000000008E-005     1.1128200239916219     
   3.6500000000000020E-005     3.1967218328602316     
   3.7000000000000005E-005     5.5233270361883626     
   3.7500000000000017E-005     8.0165097136498318     
   3.8000000000000002E-005     10.577382478660962     
   3.8500000000000014E-005     13.085222716982488     
   3.8999999999999999E-005     15.399699892515176     
   3.9500000000000011E-005     17.364413270054328     
   3.9999999999999996E-005     18.811879726620731     
   4.0500000000000009E-005     19.569920578274608     
   4.0999999999999994E-005     19.469353898198076     
   4.1500000000000006E-005     18.352834385019062     
   4.2000000000000018E-005     16.084731942302650     
   4.2500000000000003E-005     12.561571128516814     
   4.3000000000000015E-005     7.7226379726153382     
   4.3500000000000000E-005     1.5605366983612685     
   4.4000000000000012E-005    -5.8692018774844792     
   4.4499999999999997E-005    -14.439688544104468     
   4.5000000000000010E-005    -23.946317432943339     
   4.5500000000000022E-005    -34.102927623165328     
   4.5999999999999980E-005    -44.541009397089404     
   4.6499999999999992E-005    -54.812830962403304     
   4.7000000000000004E-005    -64.398468944711070     
   4.7500000000000016E-005    -72.717512254835952     
   4.8000000000000028E-005    -79.145334889121315     
   4.8499999999999986E-005    -83.034283830211621     
   4.8999999999999998E-005    -83.739170921639101     
   4.9500000000000011E-005    -80.646927239860631     
   5.0000000000000023E-005    -73.210032926498187     
   5.0499999999999981E-005    -60.981680466956441     
   5.0999999999999993E-005    -43.653654677607264     
   5.1500000000000005E-005    -21.092738392833724     
   5.2000000000000017E-005     6.6234988801697279     
   5.2500000000000029E-005     39.174675001172140     
   5.2999999999999987E-005     75.970686460285322     
   5.3499999999999999E-005     116.13255694311262     
   5.4000000000000012E-005     158.48185761671178     
   5.4500000000000024E-005     201.54182167671445     
   5.4999999999999982E-005     243.55089951416562     
   5.5499999999999994E-005     282.49070959145297     
   5.6000000000000006E-005     316.12936072239688     
   5.6500000000000018E-005     342.08031255542807     
   5.7000000000000030E-005     357.87777985234385     
   5.7499999999999988E-005     361.06559327432774     
   5.8000000000000000E-005     349.30217421005722     
   5.8500000000000012E-005     320.47652856293593     
   5.9000000000000025E-005     272.83165136233788     
   5.9499999999999983E-005     205.09508084607430     
   5.9999999999999995E-005     116.60953598041857     
   6.0500000000000007E-005     7.4583689218085842     
   6.1000000000000019E-005    -121.41626322270039     
   6.1500000000000031E-005    -268.11439105377025     
   6.1999999999999989E-005    -429.69978322263455     
   6.2500000000000001E-005    -602.15029023668546     
   6.3000000000000013E-005    -780.34339726899702     
   6.3500000000000026E-005    -958.08274170421123     
   6.3999999999999984E-005    -1128.1702086966163     
   6.4499999999999996E-005    -1282.5272153502326     
   6.5000000000000008E-005    -1412.3713695176830     
   6.5500000000000020E-005    -1508.4414584459507     
   6.6000000000000032E-005    -1561.2829356337188     
   6.6499999999999990E-005    -1561.5749538326211     
   6.7000000000000002E-005    -1500.5119608520538     
   6.7500000000000014E-005    -1370.2160030692205     
   6.8000000000000027E-005    -1164.1809169281503     
   6.8499999999999985E-005    -877.73106727644961     
   6.8999999999999997E-005    -508.48221469039294     
   6.9500000000000009E-005    -56.784923960131039     
   7.0000000000000021E-005     473.85898937312953     
   7.0499999999999979E-005     1076.4458278361258     
   7.0999999999999991E-005     1740.1785234653041     
   7.1500000000000003E-005     2450.2825829945209     
   7.2000000000000015E-005     3187.9306341514653     