  -1.99999995E-04     0.00000000    
  -1.99500006E-04     0.00000000    
  -1.99000002E-04     0.00000000    
  -1.98499998E-04     0.00000000    
  -1.97999994E-04     0.00000000    
  -1.97500005E-04     0.00000000    
  -1.97000001E-04     0.00000000    
  -1.96499997E-04     1.32852692E-17
  -1.95999994E-04     1.77157695E-16
  -1.95500004E-04     1.23722937E-15
  -1.95000001E-04     6.00191707E-15
  -1.94499997E-04     2.26343331E-14
  -1.93999993E-04     7.04012383E-14
  -1.93500004E-04     1.87036449E-13
  -1.93000000E-04     4.33635739E-13
  -1.92499996E-04     8.88212301E-13
  -1.92000007E-04     1.61448329E-12
  -1.91500003E-04     2.59184427E-12
  -1.90999999E-04     3.60097911E-12
  -1.90499995E-04     4.08167423E-12
  -1.90000006E-04     3.01618236E-12
  -1.89500002E-04    -1.06416948E-12
  -1.88999998E-04    -9.81664229E-12
  -1.88499995E-04    -2.44375232E-11
  -1.88000005E-04    -4.45643487E-11
  -1.87500002E-04    -6.68308395E-11
  -1.86999998E-04    -8.34314146E-11
  -1.86499994E-04    -8.13608347E-11
  -1.86000005E-04    -4.32665952E-11
  -1.85500001E-04     4.90547290E-11
  -1.84999997E-04     2.07743461E-10
  -1.84499993E-04     4.28518637E-10
  -1.84000004E-04     6.78154477E-10
  -1.83500000E-04     8.82862283E-10
  -1.82999996E-04     9.22554200E-10
  -1.82500007E-04     6.37501496E-10
  -1.82000003E-04    -1.45659748E-10
  -1.81500000E-04    -1.56332791E-09
  -1.80999996E-04    -3.63862163E-09
  -1.80500007E-04    -6.18556939E-09
  -1.80000003E-04    -8.70984884E-09
  -1.79499999E-04    -1.03332702E-08
  -1.78999995E-04    -9.77961445E-09
  -1.78500006E-04    -5.46552315E-09
  -1.78000002E-04     4.26179536E-09
  -1.77499998E-04     2.07109547E-08
  -1.76999994E-04     4.42560761E-08
  -1.76500005E-04     7.36103516E-08
  -1.76000001E-04     1.05061055E-07
  -1.75499998E-04     1.31821892E-07
  -1.74999994E-04     1.43723128E-07
  -1.74500005E-04     1.27492541E-07
  -1.74000001E-04     6.78985188E-08
  -1.73499997E-04    -5.00299286E-08
  -1.72999993E-04    -2.37587145E-07
  -1.72500004E-04    -4.97853762E-07
  -1.72000000E-04    -8.20364335E-07
  -1.71499996E-04    -1.17561922E-06
  -1.71000007E-04    -1.51041991E-06
  -1.70500003E-04    -1.74532249E-06
  -1.69999999E-04    -1.77572304E-06
  -1.69499996E-04    -1.47812909E-06
  -1.69000006E-04    -7.23011851E-07
  -1.68500002E-04     6.04953186E-07
  -1.67999999E-04     2.57931561E-06
  -1.67499995E-04     5.19825380E-06
  -1.67000006E-04     8.34793173E-06
  -1.66500002E-04     1.17674972E-05
  -1.65999998E-04     1.50222295E-05
  -1.65499994E-04     1.74927354E-05
  -1.65000005E-04     1.83888478E-05
  -1.64500001E-04     1.67966537E-05
  -1.63999997E-04     1.17651634E-05
  -1.63499994E-04     2.43591967E-06
  -1.63000004E-04    -1.17867103E-05
  -1.62500000E-04    -3.10333417E-05
  -1.61999997E-04    -5.47530071E-05
  -1.61499993E-04    -8.15078383E-05
  -1.61000004E-04    -1.08812885E-04
  -1.60500000E-04    -1.33061083E-04
  -1.59999996E-04    -1.49575877E-04
  -1.59500007E-04    -1.52830675E-04
  -1.59000003E-04    -1.36866467E-04
  -1.58499999E-04    -9.59219178E-05
  -1.57999995E-04    -2.52665541E-05
  -1.57500006E-04     7.78008034E-05
  -1.57000002E-04     2.12861472E-04
  -1.56499998E-04     3.75302829E-04
  -1.55999995E-04     5.55400329E-04
  -1.55500005E-04     7.37718714E-04
  -1.55000002E-04     9.01015184E-04
  -1.54499998E-04     1.01880240E-03
  -1.53999994E-04     1.06071925E-03
  -1.53500005E-04     9.94796632E-04
  -1.53000001E-04     7.90614751E-04
  -1.52499997E-04     4.23271733E-04
  -1.51999993E-04    -1.22063131E-04
  -1.51500004E-04    -8.45333328E-04
  -1.51000000E-04    -1.72698067E-03
  -1.50499996E-04    -2.72409571E-03
  -1.50000007E-04    -3.76793533E-03
  -1.49500003E-04    -4.76349285E-03
  -1.49000000E-04    -5.59166260E-03
  -1.48499996E-04    -6.11452479E-03
  -1.48000006E-04    -6.18400704E-03
  -1.47500003E-04    -5.65395923E-03
  -1.46999999E-04    -4.39526793E-03
  -1.46499995E-04    -2.31334846E-03
  -1.46000006E-04     6.33124902E-04
  -1.45500002E-04     4.41378122E-03
  -1.44999998E-04     8.91020987E-03
  -1.44499994E-04     1.39038097E-02
  -1.44000005E-04     1.90700404E-02
  -1.43500001E-04     2.39810627E-02
  -1.42999997E-04     2.81185769E-02
  -1.42499994E-04     3.08980141E-02
  -1.42000004E-04     3.17046717E-02
  -1.41500001E-04     2.99409870E-02
  -1.40999997E-04     2.50833798E-02
  -1.40499993E-04     1.67458188E-02
  -1.40000004E-04     4.74577444E-03
  -1.39500000E-04    -1.08324979E-02
  -1.38999996E-04    -2.95835678E-02
  -1.38500007E-04    -5.07416576E-02
  -1.38000003E-04    -7.31633529E-02
  -1.37499999E-04    -9.53379571E-02
  -1.36999995E-04   -0.115429804    
  -1.36500006E-04   -0.131356165    
  -1.36000002E-04   -0.140899822    
  -1.35499999E-04   -0.141854823    
  -1.34999995E-04   -0.132199094    
  -1.34500006E-04   -0.110285588    
  -1.34000002E-04    -7.50398710E-02
  -1.33499998E-04    -2.61504930E-02
  -1.32999994E-04     3.57634276E-02
  -1.32500005E-04    0.109023720    
  -1.32000001E-04    0.190818816    
  -1.31499997E-04    0.277197003    
  -1.30999993E-04    0.363137782    
  -1.30500004E-04    0.442705780    
  -1.30000000E-04    0.509290695    
  -1.29499997E-04    0.555924296    
  -1.28999993E-04    0.575669169    
  -1.28500003E-04    0.562057257    
  -1.28000000E-04    0.509562492    
  -1.27499996E-04    0.414078951    
  -1.27000007E-04    0.273382545    
  -1.26500003E-04     8.75458345E-02
  -1.25999999E-04   -0.140720248    
  -1.25499995E-04   -0.405817747    
  -1.25000006E-04   -0.699133813    
  -1.24500002E-04    -1.00904143    
  -1.23999998E-04    -1.32104993    
  -1.23499995E-04    -1.61810732    
  -1.23000005E-04    -1.88105190    
  -1.22500001E-04    -2.08923221    
  -1.21999998E-04    -2.22126412    
  -1.21500001E-04    -2.25594020    
  -1.20999997E-04    -2.17326236    
  -1.20500001E-04    -1.95559657    
  -1.19999997E-04    -1.58891225    
  -1.19500000E-04    -1.06408954    
  -1.18999997E-04   -0.378252149    
  -1.18500000E-04    0.463928610    
  -1.18000004E-04     1.44901335    
  -1.17500000E-04     2.55374742    
  -1.17000003E-04     3.74425697    
  -1.16499999E-04     4.97561598    
  -1.16000003E-04     6.19187403    
  -1.15499999E-04     7.32667160    
  -1.15000003E-04     8.30453014    
  -1.14499999E-04     9.04296112    
  -1.14000002E-04     9.45534801    
  -1.13499998E-04     9.45476341    
  -1.13000002E-04     8.95859146    
  -1.12499998E-04     7.89387798    
  -1.12000002E-04     6.20329762    
  -1.11499998E-04     3.85142279    
  -1.11000001E-04    0.831091881    
  -1.10499997E-04    -2.83064365    
  -1.10000001E-04    -7.06729555    
  -1.09499997E-04    -11.7689781    
  -1.09000001E-04    -16.7801590    
  -1.08499997E-04    -21.8995934    
  -1.08000000E-04    -26.8827915    
  -1.07499996E-04    -31.4473915    
  -1.07000000E-04    -35.2815628    
  -1.06500003E-04    -38.0554924    
  -1.06000000E-04    -39.4357376    
  -1.05500003E-04    -39.1022072    
  -1.04999999E-04    -36.7670593    
  -1.04500003E-04    -32.1948357    
  -1.03999999E-04    -25.2229900    
  -1.03500002E-04    -15.7815790    
  -1.02999998E-04    -3.91099548    
  -1.02500002E-04     10.2231712    
  -1.01999998E-04     26.3198357    
  -1.01500002E-04     43.9371529    
  -1.00999998E-04     62.4935875    
  -1.00500001E-04     81.2759476    
  -9.99999975E-05     99.4543381    
  -9.95000009E-05     116.104691    
  -9.89999971E-05     130.238159    
  -9.85000006E-05     140.836975    
  -9.79999968E-05     146.895340    
  -9.75000003E-05     147.464767    
  -9.69999965E-05     141.701538    
  -9.64999999E-05     128.914932    
  -9.60000034E-05     108.614090    
  -9.54999996E-05     80.5522919    
  -9.50000031E-05     44.7649384    
  -9.44999992E-05     1.60191345    
  -9.40000027E-05    -48.2496834    
  -9.34999989E-05    -103.752647    
  -9.30000024E-05    -163.517563    
  -9.24999986E-05    -225.812973    
  -9.20000020E-05    -288.588470    
  -9.14999982E-05    -349.510040    
  -9.10000017E-05    -406.008057    
  -9.04999979E-05    -455.338379    
  -9.00000014E-05    -494.653687    
  -8.94999976E-05    -521.086304    
  -8.90000010E-05    -531.840149    
  -8.84999972E-05    -524.291321    
  -8.80000007E-05    -496.092560    
  -8.74999969E-05    -445.285919    
  -8.70000003E-05    -370.413452    
  -8.64999965E-05    -270.629425    
  -8.60000000E-05    -145.808868    
  -8.55000035E-05     3.35069227    
  -8.49999997E-05     175.239456    
  -8.45000031E-05     367.258392    
  -8.39999993E-05     575.759766    
  -8.35000028E-05     796.017212    
  -8.29999990E-05     1022.21625    
  -8.25000025E-05     1247.48315    
  -8.19999987E-05     1463.94910    
  -8.15000021E-05     1662.85779    
  -8.09999983E-05     1834.71790    
  -8.05000018E-05     1969.49866    
  -7.99999980E-05     2056.88599    
  -7.95000014E-05     2086.57227    
  -7.89999976E-05     2048.60840    
  -7.85000011E-05     1933.78308    
  -7.79999973E-05     1734.05188    
  -7.75000008E-05     1442.98596    
  -7.69999970E-05     1056.23572    
  -7.65000004E-05     572.002197    
  -7.59999966E-05    -8.51288795    
  -7.55000001E-05    -680.678711    
  -7.50000036E-05    -1436.07153    
  -7.44999998E-05    -2262.17407    
  -7.40000032E-05    -3142.16772    
  -7.34999994E-05    -4054.84692    
  -7.30000029E-05    -4974.65576    
  -7.24999991E-05    -5871.89209    
  -7.20000025E-05    -6713.06494    
  -7.14999987E-05    -7461.43262    
  -7.10000022E-05    -8077.73340    
  -7.04999984E-05    -8521.10449    
  -7.00000019E-05    -8750.17090    
  -6.94999981E-05    -8724.33105    
  -6.90000015E-05    -8405.16309    
  -6.84999977E-05    -7757.99805    
  -6.80000012E-05    -6753.57764    
  -6.74999974E-05    -5369.76172    
  -6.70000009E-05    -3593.26562    
  -6.64999970E-05    -1421.34338    
  -6.60000005E-05     1136.59180    
  -6.54999967E-05     4057.54468    
  -6.50000002E-05     7303.69531    
  -6.44999964E-05     10821.4629    
  -6.39999998E-05     14540.9092    
  -6.35000033E-05     18375.5801    
  -6.29999995E-05     22222.7422    
  -6.25000030E-05     25964.2871    
  -6.19999992E-05     29468.0527    
  -6.15000026E-05     32589.8242    
  -6.09999988E-05     35175.9492    
  -6.04999987E-05     37066.5977    
  -5.99999985E-05     38099.6133    
  -5.94999983E-05     38114.9180    
  -5.90000018E-05     36959.5469    
  -5.85000016E-05     34493.0469    
  -5.80000014E-05     30593.3066    
  -5.75000013E-05     25162.5508    
  -5.70000011E-05     18133.5703    
  -5.65000009E-05     9475.69434    
  -5.60000008E-05    -799.239441    
  -5.55000006E-05    -12631.4834    
  -5.50000004E-05    -25908.6074    
  -5.45000003E-05    -40461.6367    
  -5.40000001E-05    -56062.1484    
  -5.34999999E-05    -72420.4922    
  -5.29999998E-05    -89186.0312    
  -5.24999996E-05    -105948.391    
  -5.19999994E-05    -122241.055    
  -5.14999992E-05    -137546.500    
  -5.09999991E-05    -151303.719    
  -5.04999989E-05    -162917.609    
  -4.99999987E-05    -171770.375    
  -4.94999986E-05    -177235.297    
  -4.89999984E-05    -178692.016    
  -4.84999982E-05    -175543.531    
  -4.80000017E-05    -167235.109    
  -4.75000015E-05    -153273.891    
  -4.70000014E-05    -133249.109    
  -4.65000012E-05    -106853.492    
  -4.60000010E-05    -73903.6250    
  -4.55000009E-05    -34360.1211    
  -4.50000007E-05     11653.4590    
  -4.45000005E-05     63833.8555    
  -4.40000003E-05     121683.398    
  -4.35000002E-05     184498.625    
  -4.30000000E-05     251362.375    
  -4.24999998E-05     321140.562    
  -4.19999997E-05     392482.875    
  -4.14999995E-05     463829.531    
  -4.09999993E-05     533423.625    
  -4.04999992E-05     599328.875    
  -3.99999990E-05     659454.562    
  -3.94999988E-05     711585.875    
  -3.89999987E-05     753421.375    
  -3.84999985E-05     782614.000    
  -3.79999983E-05     796822.250    
  -3.75000018E-05     793764.000    
  -3.70000016E-05     771273.250    
  -3.65000014E-05     727366.062    
  -3.60000013E-05     660301.375    
  -3.55000011E-05     568654.500    
  -3.50000009E-05     451380.062    
  -3.45000008E-05     307884.938    
  -3.40000006E-05     138090.016    
  -3.35000004E-05    -57509.0312    
  -3.30000003E-05    -277777.188    
  -3.25000001E-05    -520896.719    
  -3.19999999E-05    -784315.938    
  -3.14999997E-05    -1064724.00    
  -3.09999996E-05    -1358019.75    
  -3.04999994E-05    -1659301.88    
  -2.99999992E-05    -1962871.38    
  -2.95000009E-05    -2262247.00    
  -2.90000007E-05    -2550191.75    
  -2.85000006E-05    -2818754.00    
  -2.80000004E-05    -3059339.50    
  -2.75000002E-05    -3262758.75    
  -2.70000000E-05    -3419348.25    
  -2.64999999E-05    -3519040.00    
  -2.59999997E-05    -3551499.25    
  -2.54999995E-05    -3506238.50    
  -2.49999994E-05    -3372747.00    
  -2.44999992E-05    -3140650.75    
  -2.40000008E-05    -2799852.00    
  -2.35000007E-05    -2340680.25    
  -2.30000005E-05    -1754033.62    
  -2.25000003E-05    -1031565.69    
  -2.20000002E-05    -165785.500    
  -2.15000000E-05     849759.375    
  -2.09999998E-05     2020379.25    
  -2.04999997E-05     3350120.50    
  -1.99999995E-05     4841694.50    
  -1.94999993E-05     6496332.50    
  -1.89999992E-05     8313782.50    
  -1.85000008E-05     10292273.0    
  -1.80000006E-05     12428468.0    
  -1.75000005E-05     14717483.0    
  -1.70000003E-05     17152980.0    
  -1.65000001E-05     19727186.0    
  -1.60000000E-05     22430992.0    
  -1.54999998E-05     25254132.0    
  -1.49999996E-05     28185312.0    
  -1.45000004E-05     31212372.0    
  -1.40000002E-05     34322492.0    
  -1.35000000E-05     37502456.0    
  -1.29999999E-05     40738936.0    
  -1.24999997E-05     44018696.0    
  -1.20000004E-05     47328752.0    
  -1.15000003E-05     50657000.0    
  -1.10000001E-05     53992184.0    
  -1.04999999E-05     57324316.0    
  -9.99999975E-06     60645084.0    
  -9.49999958E-06     63947904.0    
  -9.00000032E-06     67228264.0    
  -8.50000015E-06     70484256.0    
  -7.99999998E-06     73716336.0    
  -7.49999981E-06     76927816.0    
  -7.00000010E-06     80125224.0    
  -6.49999993E-06     83317856.0    
  -6.00000021E-06     86518608.0    
  -5.50000004E-06     89743408.0    
  -4.99999987E-06     93011808.0    
  -4.50000016E-06     96346688.0    
  -3.99999999E-06     99773920.0    
  -3.50000005E-06     103322688.    
  -3.00000011E-06     107025488.    
  -2.49999994E-06     110917288.    
  -1.99999999E-06     115036288.    
  -1.50000005E-06     119422312.    
  -9.99999997E-07     124117656.    
  -4.99999999E-07     129167024.    
   0.00000000         134615984.    
   4.99999999E-07     140511424.    
   9.99999997E-07     146901008.    
   1.50000005E-06     153833328.    
   1.99999999E-06     161356480.    
   2.49999994E-06     169518544.    
   3.00000011E-06     178367392.    
   3.50000005E-06     187949376.    
   3.99999999E-06     198310272.    
   4.50000016E-06     209494240.    
   4.99999987E-06     221543280.    
   5.50000004E-06     234499024.    
   6.00000021E-06     248400800.    
   6.49999993E-06     263284144.    
   7.00000010E-06     279184416.    
   7.49999981E-06     296135776.    
   7.99999998E-06     314167808.    
   8.50000015E-06     333310176.    
   9.00000032E-06     353591168.    
   9.49999958E-06     375037664.    
   9.99999975E-06     397674048.    
   1.04999999E-05     421526656.    
   1.10000001E-05     446618176.    
   1.15000003E-05     472974752.    
   1.20000004E-05     500622016.    
   1.24999997E-05     529585216.    
   1.29999999E-05     559892736.    
   1.35000000E-05     591572800.    
   1.40000002E-05     624659200.    
   1.45000004E-05     659186816.    
   1.49999996E-05     695194688.    
   1.54999998E-05     732725184.    
   1.60000000E-05     771824128.    
   1.65000001E-05     812544256.    
   1.70000003E-05     854943744.    
   1.75000005E-05     899083456.    
   1.80000006E-05     945030848.    
   1.85000008E-05     992859392.    
   1.89999992E-05     1.04265190E+09
   1.94999993E-05     1.09449318E+09
   1.99999995E-05     1.14847744E+09
   2.04999997E-05     1.20470042E+09
   2.09999998E-05     1.26326822E+09
   2.15000000E-05     1.32429274E+09
   2.20000002E-05     1.38789120E+09
   2.25000003E-05     1.45418586E+09
   2.30000005E-05     1.52330547E+09
   2.35000007E-05     1.59538176E+09
   2.40000008E-05     1.67055693E+09
   2.44999992E-05     1.74897434E+09
   2.49999994E-05     1.83077619E+09
   2.54999995E-05     1.91611661E+09
   2.59999997E-05     2.00514842E+09
   2.64999999E-05     2.09803494E+09
   2.70000000E-05     2.19493043E+09
   2.75000002E-05     2.29598899E+09
   2.80000004E-05     2.40138061E+09
   2.85000006E-05     2.51126374E+09
   2.90000007E-05     2.62580634E+09
   2.95000009E-05     2.74517094E+09
   2.99999992E-05     2.86952781E+09
   3.04999994E-05     2.99903590E+09
   3.09999996E-05     3.13386880E+09
   3.14999997E-05     3.27417728E+09
   3.19999999E-05     3.42013901E+09
   3.25000001E-05     3.57192730E+09
   3.30000003E-05     3.72968934E+09
   3.35000004E-05     3.89359258E+09
   3.40000006E-05     4.06380902E+09
   3.45000008E-05     4.24050816E+09
   3.50000009E-05     4.42383667E+09
   3.55000011E-05     4.61396736E+09
   3.60000013E-05     4.81107814E+09
   3.65000014E-05     5.01533798E+09
   3.70000016E-05     5.22689382E+09
   3.75000018E-05     5.44591872E+09
   3.79999983E-05     5.67260416E+09
   3.84999985E-05     5.90712576E+09
   3.89999987E-05     6.14964582E+09
   3.94999988E-05     6.40035942E+09
   3.99999990E-05     6.65943757E+09
   4.04999992E-05     6.92711834E+09
   4.09999993E-05     7.20355635E+09
   4.14999995E-05     7.48895027E+09
   4.19999997E-05     7.78350490E+09
   4.24999998E-05     8.08744806E+09
   4.30000000E-05     8.40095078E+09
   4.35000002E-05     8.72429158E+09
   4.40000003E-05     9.05760256E+09
   4.45000005E-05     9.40115149E+09
   4.50000007E-05     9.75515750E+09
   4.55000009E-05     1.01198438E+10
   4.60000010E-05     1.04953795E+10
   4.65000012E-05     1.08820685E+10
   4.70000014E-05     1.12800768E+10
   4.75000015E-05     1.16896532E+10
   4.80000017E-05     1.21110374E+10
   4.84999982E-05     1.25444239E+10
   4.89999984E-05     1.29900493E+10
   4.94999986E-05     1.34480753E+10
   4.99999987E-05     1.39187323E+10
   5.04999989E-05     1.44022610E+10
   5.09999991E-05     1.48987494E+10
   5.14999992E-05     1.54084444E+10
   5.19999994E-05     1.59314637E+10
   5.24999996E-05     1.64680550E+10
   5.29999998E-05     1.70182420E+10
   5.34999999E-05     1.75822397E+10
   5.40000001E-05     1.81600993E+10
   5.45000003E-05     1.87519611E+10
   5.50000004E-05     1.93578988E+10
   5.55000006E-05     1.99779860E+10
   5.60000008E-05     2.06122557E+10
   5.65000009E-05     2.12608082E+10
   5.70000011E-05     2.19236844E+10
   5.75000013E-05     2.26008678E+10
   5.80000014E-05     2.32923566E+10
   5.85000016E-05     2.39980933E+10
   5.90000018E-05     2.47180698E+10
   5.94999983E-05     2.54521999E+10
   5.99999985E-05     2.62004531E+10
   6.04999987E-05     2.69626204E+10
   6.09999988E-05     2.77385196E+10
   6.15000026E-05     2.85279949E+10
   6.19999992E-05     2.93311611E+10
   6.25000030E-05     3.01475983E+10
   6.29999995E-05     3.09773148E+10
   6.35000033E-05     3.18197760E+10
   6.39999998E-05     3.26750310E+10
   6.44999964E-05     3.35426458E+10
   6.50000002E-05     3.44224727E+10
   6.54999967E-05     3.53140736E+10
   6.60000005E-05     3.62171924E+10
   6.64999970E-05     3.71314811E+10
   6.70000009E-05     3.80563333E+10
   6.74999974E-05     3.89914173E+10
   6.80000012E-05     3.99362335E+10
   6.84999977E-05     4.08905687E+10
   6.90000015E-05     4.18535916E+10
   6.94999981E-05     4.28247491E+10
   7.00000019E-05     4.38037381E+10
   7.04999984E-05     4.47895757E+10
   7.10000022E-05     4.57817989E+10
   7.14999987E-05     4.67795599E+10
   7.20000025E-05     4.77823795E+10
   7.24999991E-05     4.87894467E+10
   7.30000029E-05     4.98000118E+10
   7.34999994E-05     5.08130918E+10
   7.40000032E-05     5.18276547E+10
   7.44999998E-05     5.28429466E+10
   7.50000036E-05     5.38575790E+10
   7.55000001E-05     5.48711629E+10
   7.59999966E-05     5.58821786E+10
   7.65000004E-05     5.68894218E+10
   7.69999970E-05     5.78918359E+10
   7.75000008E-05     5.88882616E+10
   7.79999973E-05     5.98776996E+10
   7.85000011E-05     6.08583762E+10
   7.89999976E-05     6.18292347E+10
   7.95000014E-05     6.27885097E+10
   7.99999980E-05     6.37356524E+10
   8.05000018E-05     6.46689014E+10
   8.09999983E-05     6.55861391E+10
   8.15000021E-05     6.64864072E+10
   8.19999987E-05     6.73680998E+10
   8.25000025E-05     6.82287882E+10
   8.29999990E-05     6.90671288E+10
   8.35000028E-05     6.98814956E+10
   8.39999993E-05     7.06703442E+10
   8.45000031E-05     7.14316513E+10
   8.49999997E-05     7.21638932E+10
   8.55000035E-05     7.28656691E+10
   8.60000000E-05     7.35342346E+10
   8.64999965E-05     7.41682381E+10
   8.70000003E-05     7.47652628E+10
   8.74999969E-05     7.53240146E+10
   8.80000007E-05     7.58411674E+10
   8.84999972E-05     7.63152712E+10
   8.90000010E-05     7.67444091E+10
   8.94999976E-05     7.71269181E+10
   9.00000014E-05     7.74603407E+10
   9.04999979E-05     7.77423913E+10
   9.10000017E-05     7.79709481E+10
   9.14999982E-05     7.81441761E+10
   9.20000020E-05     7.82598144E+10
   9.24999986E-05     7.83150039E+10
   9.30000024E-05     7.83090893E+10
   9.34999989E-05     7.82386872E+10
   9.40000027E-05     7.81013975E+10
   9.44999992E-05     7.78948444E+10
   9.50000031E-05     7.76181432E+10
   9.54999996E-05     7.72689920E+10
   9.60000034E-05     7.68449495E+10
   9.64999999E-05     7.63425178E+10
   9.69999965E-05     7.57623194E+10
   9.75000003E-05     7.51007252E+10
   9.79999968E-05     7.43545487E+10
   9.85000006E-05     7.35253299E+10
   9.89999971E-05     7.26067855E+10
   9.95000009E-05     7.15998822E+10
   9.99999975E-05     7.05020559E+10
   1.00500001E-04     6.93085553E+10
   1.00999998E-04     6.80205189E+10
   1.01500002E-04     6.66345964E+10
   1.01999998E-04     6.51495301E+10
   1.02500002E-04     6.35649147E+10
   1.02999998E-04     6.18765189E+10
   1.03500002E-04     6.00856330E+10
   1.03999999E-04     5.81875917E+10
   1.04500003E-04     5.61848566E+10
   1.04999999E-04     5.40756378E+10
   1.05500003E-04     5.18542664E+10
   1.06000000E-04     4.95229665E+10
   1.06500003E-04     4.70803292E+10
   1.07000000E-04     4.45253059E+10
   1.07499996E-04     4.18547302E+10
   1.08000000E-04     3.90699663E+10
   1.08499997E-04     3.61692938E+10
   1.09000001E-04     3.31551273E+10
   1.09499997E-04     3.00229038E+10
   1.10000001E-04     2.67770716E+10
   1.10499997E-04     2.34136924E+10
   1.11000001E-04     1.99368520E+10
   1.11499998E-04     1.63414733E+10
   1.12000002E-04     1.26310861E+10
   1.12499998E-04     8.80309248E+09
   1.13000002E-04     4.85771264E+09
   1.13499998E-04     800594240.    
   1.14000002E-04    -3.37222221E+09
   1.14499999E-04    -7.65701427E+09
   1.15000003E-04    -1.20533965E+10
   1.15499999E-04    -1.65617336E+10
   1.16000003E-04    -2.11792097E+10
   1.16499999E-04    -2.59004232E+10
   1.17000003E-04    -3.07264573E+10
   1.17500000E-04    -3.56557414E+10
   1.18000004E-04    -4.06869770E+10
   1.18500000E-04    -4.58154230E+10
   1.18999997E-04    -5.10385562E+10
   1.19500000E-04    -5.63585966E+10
   1.19999997E-04    -6.17695355E+10
   1.20500001E-04    -6.72673874E+10
   1.20999997E-04    -7.28520540E+10
   1.21500001E-04    -7.85177313E+10
   1.21999998E-04    -8.42616177E+10
   1.22500001E-04    -9.00772332E+10
   1.23000005E-04    -9.59651758E+10
   1.23499995E-04    -1.01915943E+11
   1.23999998E-04    -1.07927994E+11
   1.24500002E-04    -1.13996579E+11
   1.25000006E-04    -1.20114282E+11
   1.25499995E-04    -1.26280876E+11
   1.25999999E-04    -1.32485702E+11
   1.26500003E-04    -1.38729439E+11
   1.27000007E-04    -1.45004528E+11
   1.27499996E-04    -1.51306043E+11
   1.28000000E-04    -1.57631234E+11
   1.28500003E-04    -1.63971727E+11
   1.28999993E-04    -1.70320953E+11
   1.29499997E-04    -1.76673440E+11
   1.30000000E-04    -1.83023895E+11
   1.30500004E-04    -1.89365748E+11
   1.30999993E-04    -1.95692200E+11
   1.31499997E-04    -2.01997320E+11
   1.32000001E-04    -2.08270754E+11
   1.32500005E-04    -2.14508159E+11
   1.32999994E-04    -2.20702015E+11
   1.33499998E-04    -2.26842821E+11
   1.34000002E-04    -2.32924463E+11
   1.34500006E-04    -2.38940455E+11
   1.34999995E-04    -2.44879983E+11
   1.35499999E-04    -2.50745750E+11
   1.36000002E-04    -2.56522699E+11
   1.36500006E-04    -2.62205604E+11
   1.36999995E-04    -2.67791892E+11
   1.37499999E-04    -2.73269031E+11
   1.38000003E-04    -2.78634791E+11
   1.38500007E-04    -2.83876393E+11
   1.38999996E-04    -2.88992002E+11
   1.39500000E-04    -2.93968118E+11
   1.40000004E-04    -2.98793796E+11
   1.40499993E-04    -3.03464907E+11
   1.40999997E-04    -3.07974636E+11
   1.41500001E-04    -3.12311120E+11
   1.42000004E-04    -3.16470788E+11
   1.42499994E-04    -3.20441450E+11
   1.42999997E-04    -3.24226712E+11
   1.43500001E-04    -3.27809139E+11
   1.44000005E-04    -3.31192336E+11
   1.44499994E-04    -3.34362247E+11
   1.44999998E-04    -3.37319494E+11
   1.45500002E-04    -3.40052050E+11
   1.46000006E-04    -3.42556148E+11
   1.46499995E-04    -3.44828903E+11
   1.46999999E-04    -3.46858521E+11
   1.47500003E-04    -3.48644737E+11
   1.48000006E-04    -3.50174216E+11
   1.48499996E-04    -3.51444304E+11
   1.49000000E-04    -3.52443105E+11
   1.49500003E-04    -3.53171112E+11
   1.50000007E-04    -3.53621934E+11
   1.50499996E-04    -3.53792786E+11
   1.51000000E-04    -3.53677607E+11
   1.51500004E-04    -3.53276559E+11
   1.51999993E-04    -3.52586007E+11
   1.52499997E-04    -3.51605359E+11
   1.53000001E-04    -3.50324556E+11
   1.53500005E-04    -3.48748710E+11
   1.53999994E-04    -3.46872513E+11
   1.54499998E-04    -3.44694653E+11
   1.55000002E-04    -3.42213034E+11
   1.55500005E-04    -3.39426312E+11
   1.55999995E-04    -3.36329310E+11
   1.56499998E-04    -3.32920521E+11
   1.57000002E-04    -3.29199813E+11
   1.57500006E-04    -3.25164728E+11
   1.57999995E-04    -3.20818971E+11
   1.58499999E-04    -3.16162212E+11
   1.59000003E-04    -3.11196451E+11
   1.59500007E-04    -3.05925063E+11
   1.59999996E-04    -3.00349555E+11
   1.60500000E-04    -2.94470681E+11
   1.61000004E-04    -2.88293683E+11
   1.61499993E-04    -2.81818137E+11
   1.61999997E-04    -2.75048923E+11
   1.62500000E-04    -2.67991892E+11
   1.63000004E-04    -2.60645405E+11
   1.63499994E-04    -2.53019455E+11
   1.63999997E-04    -2.45114175E+11
   1.64500001E-04    -2.36936397E+11
   1.65000005E-04    -2.28490789E+11
   1.65499994E-04    -2.19782595E+11
   1.65999998E-04    -2.10817876E+11
   1.66500002E-04    -2.01603744E+11
   1.67000006E-04    -1.92146948E+11
   1.67499995E-04    -1.82453666E+11
   1.67999999E-04    -1.72531401E+11
   1.68500002E-04    -1.62390213E+11
   1.69000006E-04    -1.52037212E+11
   1.69499996E-04    -1.41481329E+11
   1.69999999E-04    -1.30731737E+11
   1.70500003E-04    -1.19798743E+11
   1.71000007E-04    -1.08690964E+11
   1.71499996E-04    -9.74201160E+10
   1.72000000E-04    -8.59934556E+10
   1.72500004E-04    -7.44230502E+10
   1.72999993E-04    -6.27183493E+10
   1.73499997E-04    -5.08887491E+10
   1.74000001E-04    -3.89461361E+10
   1.74500005E-04    -2.68999639E+10
   1.74999994E-04    -1.47614679E+10
   1.75499998E-04    -2.54196480E+09
   1.76000001E-04     9.74758298E+09
   1.76500005E-04     2.20952781E+10
   1.76999994E-04     3.44882708E+10
   1.77499998E-04     4.69146829E+10
   1.78000002E-04     5.93609728E+10
   1.78500006E-04     7.18170030E+10
   1.78999995E-04     8.42702356E+10
   1.79499999E-04     9.67060111E+10
   1.80000003E-04     1.09113459E+11
   1.80500007E-04     1.21478357E+11
   1.80999996E-04     1.33792145E+11
   1.81500000E-04     1.46041029E+11
   1.82000003E-04     1.58213997E+11
   1.82500007E-04     1.70299310E+11
   1.82999996E-04     1.82282289E+11
   1.83500000E-04     1.94155774E+11
   1.84000004E-04     2.05903823E+11
   1.84499993E-04     2.17513591E+11
   1.84999997E-04     2.28972691E+11
   1.85500001E-04     2.40278356E+11
   1.86000005E-04     2.51410137E+11
   1.86499994E-04     2.62360170E+11
   1.86999998E-04     2.73115939E+11
   1.87500002E-04     2.83668316E+11
   1.88000005E-04     2.94006981E+11
   1.88499995E-04     3.04122692E+11
   1.88999998E-04     3.14002407E+11
   1.89500002E-04     3.23637281E+11
   1.90000006E-04     3.33014630E+11
   1.90499995E-04     3.42131147E+11
   1.90999999E-04     3.50973526E+11
   1.91500003E-04     3.59535444E+11
   1.92000007E-04     3.67803793E+11
   1.92499996E-04     3.75773659E+11
   1.93000000E-04     3.83440519E+11
   1.93500004E-04     3.90796214E+11
   1.93999993E-04     3.97829538E+11
   1.94499997E-04     4.04539408E+11
   1.95000001E-04     4.10916258E+11
   1.95500004E-04     4.16956416E+11
   1.95999994E-04     4.22649299E+11
   1.96499997E-04     4.27999527E+11
   1.97000001E-04     4.32997073E+11
   1.97500005E-04     4.37634990E+11
   1.97999994E-04     4.41915081E+11
   1.98499998E-04     4.45830660E+11
   1.99000002E-04     4.49380024E+11
   1.99500006E-04     4.52558684E+11
   1.99999995E-04     4.55370179E+11
   2.00499999E-04     4.57800090E+11
   2.01000003E-04     4.59862999E+11
   2.01500006E-04     4.61545275E+11
   2.01999996E-04     4.62860091E+11
   2.02499999E-04     4.63795028E+11
   2.03000003E-04     4.64349495E+11
   2.03500007E-04     4.64541745E+11
   2.03999996E-04     4.64357851E+11
   2.04500000E-04     4.63807775E+11