  -1.9999999999999998E-004     0.0000000000000000     
  -1.9949999999999997E-004     0.0000000000000000     
  -1.9899999999999999E-004     0.0000000000000000     
  -1.9849999999999997E-004     0.0000000000000000     
  -1.9799999999999999E-004     1.5381727352273427E-014
  -1.9749999999999998E-004     1.1190027121230061E-011
  -1.9699999999999999E-004     1.0832531518975373E-010
  -1.9649999999999998E-004     5.5973887951868485E-010
  -1.9599999999999999E-004     2.0319020294685548E-009
  -1.9549999999999998E-004     5.7676189251901503E-009
  -1.9499999999999997E-004     1.3500293333347811E-008
  -1.9449999999999998E-004     2.6765845935201602E-008
  -1.9399999999999997E-004     4.5316914585321969E-008
  -1.9349999999999999E-004     6.4632636722313140E-008
  -1.9299999999999997E-004     7.3083827675795472E-008
  -1.9249999999999999E-004     5.0061666093019194E-008
  -1.9199999999999998E-004    -3.2947498633206405E-008
  -1.9149999999999999E-004    -2.0613675204286848E-007
  -1.9099999999999998E-004    -4.8844431925538339E-007
  -1.9050000000000000E-004    -8.6815255382770127E-007
  -1.8999999999999998E-004    -1.2801911367800825E-006
  -1.8949999999999997E-004    -1.5869047060148531E-006
  -1.8899999999999999E-004    -1.5722909336555254E-006
  -1.8849999999999997E-004    -9.6128288639571725E-007
  -1.8799999999999999E-004     5.2599892893069953E-007
  -1.8749999999999998E-004     3.0810888381681102E-006
  -1.8699999999999999E-004     6.6817100839691702E-006
  -1.8649999999999998E-004     1.0954828312872482E-005
  -1.8599999999999999E-004     1.5064073879105331E-005
  -1.8549999999999998E-004     1.7669353478105940E-005
  -1.8500000000000000E-004     1.7010351856361617E-005
  -1.8449999999999999E-004     1.1156661291099587E-005
  -1.8399999999999997E-004    -1.5576115291614486E-006
  -1.8349999999999999E-004    -2.1938063663188293E-005
  -1.8299999999999998E-004    -4.9249581276079437E-005
  -1.8249999999999999E-004    -8.0584576074364277E-005
  -1.8199999999999998E-004    -1.1046090843214268E-004
  -1.8149999999999999E-004    -1.3085368541068603E-004
  -1.8099999999999998E-004    -1.3184924279546897E-004
  -1.8050000000000000E-004    -1.0304310075453548E-004
  -1.7999999999999998E-004    -3.5684042703130548E-005
  -1.7949999999999997E-004     7.4599487822694425E-005
  -1.7899999999999999E-004     2.2484816832705747E-004
  -1.7849999999999997E-004     4.0214001239036206E-004
  -1.7799999999999999E-004     5.8196124326479587E-004
  -1.7749999999999998E-004     7.2831646563366727E-004
  -1.7699999999999999E-004     7.9622681804002225E-004
  -1.7649999999999998E-004     7.3702884755243257E-004
  -1.7600000000000000E-004     5.0647886746337065E-004
  -1.7549999999999998E-004     7.5129912960555196E-005
  -1.7499999999999997E-004    -5.6017480258221193E-004
  -1.7449999999999999E-004    -1.3654519705221734E-003
  -1.7399999999999997E-004    -2.2616150287786685E-003
  -1.7349999999999999E-004    -3.1218571628229665E-003
  -1.7299999999999998E-004    -3.7767158899092938E-003
  -1.7249999999999999E-004    -4.0285258575470956E-003
  -1.7199999999999998E-004    -3.6758956334026387E-003
  -1.7149999999999999E-004    -2.5473134468341936E-003
  -1.7099999999999998E-004    -5.4112237315274286E-004
  -1.7049999999999997E-004     2.3327943841241847E-003
  -1.6999999999999999E-004     5.9160449287530090E-003
  -1.6949999999999997E-004     9.8770588600011634E-003
  -1.6899999999999999E-004     1.3706596715878911E-002
  -1.6849999999999998E-004     1.6740434856074671E-002
  -1.6799999999999999E-004     1.8213908469796945E-002
  -1.6749999999999998E-004     1.7349435899278027E-002
  -1.6699999999999999E-004     1.3473301922821306E-002
  -1.6649999999999998E-004     6.1523186836694860E-003
  -1.6599999999999997E-004    -4.6643805724244577E-003
  -1.6549999999999998E-004    -1.8518351506706422E-002
  -1.6500000000000000E-004    -3.4352604796110402E-002
  -1.6449999999999999E-004    -5.0483789471892429E-002
  -1.6399999999999997E-004    -6.4657088817258013E-002
  -1.6349999999999999E-004    -7.4198375441403203E-002
  -1.6299999999999998E-004    -7.6269191784220522E-002
  -1.6249999999999999E-004    -6.8216146286220913E-002
  -1.6199999999999998E-004    -4.7992346013532666E-002
  -1.6149999999999997E-004    -1.4612134762719664E-002
  -1.6099999999999998E-004     3.1412659571517759E-002
  -1.6050000000000000E-004     8.7717819435500055E-002
  -1.5999999999999999E-004    0.14988017695315384     
  -1.5949999999999997E-004    0.21142343816538345     
  -1.5899999999999999E-004    0.26409018028435749     
  -1.5849999999999998E-004    0.29841102710420286     
  -1.5799999999999999E-004    0.30457484956621095     
  -1.5749999999999998E-004    0.27356748620234411     
  -1.5699999999999999E-004    0.19850619948026535     
  -1.5649999999999998E-004     7.6057262711660772E-002
  -1.5600000000000000E-004    -9.2212547562538827E-002
  -1.5549999999999999E-004   -0.29872624735387976     
  -1.5499999999999997E-004   -0.52921777507897527     
  -1.5449999999999999E-004   -0.76266976681104814     
  -1.5399999999999998E-004   -0.97202431793396327     
  -1.5349999999999999E-004    -1.1257748698195418     
  -1.5299999999999998E-004    -1.1904707407307349     
  -1.5249999999999999E-004    -1.1340753662477305     
  -1.5199999999999998E-004   -0.93000197082124725     
  -1.5150000000000000E-004   -0.56154052307409674     
  -1.5099999999999998E-004    -2.6267611057485873E-002
  -1.5049999999999997E-004    0.66005474250247698     
  -1.4999999999999999E-004     1.4606557392022186     
  -1.4949999999999997E-004     2.3165820747589798     
  -1.4899999999999999E-004     3.1477037148377862     
  -1.4849999999999998E-004     3.8563113454734825     
  -1.4799999999999999E-004     4.3335138026361992     
  -1.4749999999999998E-004     4.4684089437875336     
  -1.4700000000000000E-004     4.1596493077325221     
  -1.4649999999999998E-004     3.3286942549049501     
  -1.4599999999999997E-004     1.9336713554467990     
  -1.4549999999999999E-004    -1.7516950106232776E-002
  -1.4500000000000000E-004    -2.4564594135477522     
  -1.4449999999999999E-004    -5.2475706586095825     
  -1.4399999999999998E-004    -8.1871291056766307     
  -1.4349999999999999E-004    -11.009321821243221     
  -1.4299999999999998E-004    -13.400225930995358     
  -1.4249999999999999E-004    -15.019846371148091     
  -1.4199999999999998E-004    -15.531569614436783     
  -1.4149999999999997E-004    -14.637460383095075     
  -1.4099999999999998E-004    -12.116766745339538     
  -1.4050000000000000E-004    -7.8643296756666778     
  -1.3999999999999999E-004    -1.9247779846981885     
  -1.3949999999999998E-004     5.4818845314259690     
  -1.3899999999999999E-004     13.947518572345334     
  -1.3850000000000001E-004     22.879815576781048     
  -1.3799999999999999E-004     31.525471511059003     
  -1.3749999999999998E-004     39.013899462557653     
  -1.3699999999999997E-004     44.420649882848409     
  -1.3649999999999998E-004     46.847626134661169     
  -1.3600000000000000E-004     45.514840788555489     
  -1.3549999999999999E-004     39.856793711027223     
  -1.3499999999999997E-004     29.614265331436794     
  -1.3449999999999999E-004     14.911963014546274     
  -1.3400000000000000E-004    -3.6882640933956630     
  -1.3349999999999999E-004    -25.167537072950246     
  -1.3299999999999998E-004    -48.071088310705470     
  -1.3249999999999997E-004    -70.574484098417685     
  -1.3199999999999998E-004    -90.595915870601516     
  -1.3150000000000000E-004    -105.95064243326040     
  -1.3099999999999999E-004    -114.53925382056379     
  -1.3049999999999997E-004    -114.55710548420814     
  -1.2999999999999999E-004    -104.70749369019418     
  -1.2950000000000000E-004    -84.400013290461047     
  -1.2899999999999999E-004    -53.912163869285095     
  -1.2849999999999998E-004    -14.493912063175515     
  -1.2799999999999997E-004     31.602012229015770     
  -1.2749999999999998E-004     81.178683907580790     
  -1.2700000000000000E-004     130.24911273713630     
  -1.2649999999999998E-004     174.28477789060247     
  -1.2599999999999997E-004     208.55064085662815     
  -1.2549999999999999E-004     228.50559950913220     
  -1.2500000000000000E-004     230.24449850800775     
  -1.2449999999999999E-004     210.94481950904691     
  -1.2399999999999998E-004     169.28148587505345     
  -1.2349999999999997E-004     105.76589176867165     
  -1.2299999999999998E-004     22.973094818362767     
  -1.2250000000000000E-004    -74.380973144741233     
  -1.2199999999999998E-004    -179.53642617738470     
  -1.2149999999999999E-004    -283.97590909295997     
  -1.2099999999999999E-004    -377.90010534476664     
  -1.2049999999999999E-004    -450.87814158711137     
  -1.1999999999999999E-004    -492.63813418032726     
  -1.1949999999999999E-004    -493.95538995854713     
  -1.1899999999999999E-004    -447.57429367914267     
  -1.1849999999999998E-004    -349.09564277641022     
  -1.1799999999999998E-004    -197.75770849626156     
  -1.1749999999999998E-004     2.9653764059953573     
  -1.1699999999999998E-004     245.01273698336649     
  -1.1649999999999999E-004     515.68825172525408     
  -1.1599999999999999E-004     797.95281308861354     
  -1.1549999999999999E-004     1071.0730039478080     
  -1.1499999999999999E-004     1311.6131503827478     
  -1.1449999999999999E-004     1494.7461324410690     
  -1.1399999999999999E-004     1595.8175018995753     
  -1.1349999999999998E-004     1592.0797808411166     
  -1.1299999999999998E-004     1464.5102510999304     
  -1.1249999999999998E-004     1199.5823610132734     
  -1.1199999999999998E-004     790.90050968448145     
  -1.1149999999999999E-004     240.55533232951416     
  -1.1099999999999999E-004    -439.88432408359313     
  -1.1049999999999999E-004    -1228.8414978152568     
  -1.0999999999999999E-004    -2094.7372609040654     
  -1.0949999999999999E-004    -2996.5502700035004     
  -1.0899999999999999E-004    -3884.9736960701807     
  -1.0849999999999998E-004    -4704.1261887116634     
  -1.0799999999999998E-004    -5393.7957849631275     
  -1.0749999999999998E-004    -5892.1042413254972     
  -1.0699999999999999E-004    -6138.5460399797521     
  -1.0649999999999999E-004    -6077.2486211508240     
  -1.0599999999999999E-004    -5660.3427557758487     
  -1.0549999999999999E-004    -4851.3048965428443     
  -1.0499999999999999E-004    -3628.1440140721688     
  -1.0449999999999999E-004    -1986.2684175816648     
  -1.0399999999999998E-004     59.053745754813917     
  -1.0349999999999998E-004     2470.8143339591506     
  -1.0299999999999998E-004     5189.0293782278677     
  -1.0249999999999998E-004     8130.3119889911795     
  -1.0199999999999999E-004     11188.264829921092     
  -1.0149999999999999E-004     14234.857325806650     
  -1.0099999999999999E-004     17122.804488059555     
  -1.0049999999999999E-004     19688.988671017822     
  -9.9999999999999991E-005     21759.012718042930     
  -9.9499999999999993E-005     23152.815864245389     
  -9.8999999999999980E-005     23691.380959947204     
  -9.8499999999999982E-005     23204.456018888406     
  -9.7999999999999983E-005     21539.143480977400     
  -9.7499999999999985E-005     18569.269580568733     
  -9.6999999999999986E-005     14205.230473071661     
  -9.6499999999999987E-005     8404.0537074480526     
  -9.5999999999999989E-005     1179.2789927069098     
  -9.5499999999999990E-005    -7389.7281510596149     
  -9.4999999999999992E-005    -17149.646409235182     
  -9.4499999999999993E-005    -27866.681757860795     
  -9.3999999999999981E-005    -39222.436792989851     
  -9.3499999999999982E-005    -50812.840759770363     
  -9.2999999999999984E-005    -62150.303978448690     
  -9.2499999999999985E-005    -72670.597644728041     
  -9.1999999999999987E-005    -81744.039714407205     
  -9.1499999999999988E-005    -88691.954928646825     
  -9.0999999999999989E-005    -92808.278108485043     
  -9.0499999999999991E-005    -93386.865453943174     
  -8.9999999999999992E-005    -89753.299182550589     
  -8.9499999999999994E-005    -81301.581614479859     
  -8.8999999999999981E-005    -67534.047358548953     
  -8.8499999999999983E-005    -48104.013945356972     
  -8.7999999999999984E-005    -22858.502166411417     
  -8.7499999999999986E-005     8119.4906969315052     
  -8.6999999999999987E-005     44473.135040003239     
  -8.6499999999999988E-005     85538.502886855858     
  -8.5999999999999990E-005     130321.00163252762     
  -8.5499999999999991E-005     177482.07349047493     
  -8.4999999999999993E-005     225339.52437480231     
  -8.4499999999999994E-005     271883.71554351493     
  -8.3999999999999982E-005     314811.29047393845     
  -8.3499999999999983E-005     351578.77053651027     
  -8.2999999999999985E-005     379474.05073882965     
  -8.2499999999999986E-005     395708.65491906455     
  -8.1999999999999987E-005     397528.65079118230     
  -8.1499999999999989E-005     382341.12037693016     
  -8.0999999999999990E-005     347854.07503698976     
  -8.0499999999999992E-005     292224.97021131637     
  -7.9999999999999993E-005     214214.23242188146     
  -7.9499999999999994E-005     113335.93123098562     
  -7.8999999999999982E-005    -10002.062589709531     
  -7.8499999999999984E-005    -154370.48589271458     
  -7.7999999999999985E-005    -317221.03791734634     
  -7.7499999999999986E-005    -494814.32843331894     
  -7.7000000000000001E-005    -682190.43794633308     
  -7.6499999999999989E-005    -873185.48390111583     
  -7.5999999999999977E-005    -1060495.9777740249     
  -7.5499999999999992E-005    -1235804.2777839256     
  -7.4999999999999980E-005    -1389957.9210421448     
  -7.4499999999999995E-005    -1513207.3246952854     
  -7.3999999999999983E-005    -1595508.3244852351     
  -7.3499999999999998E-005    -1626867.5363837925     
  -7.2999999999999985E-005    -1597741.4475314398     
  -7.2500000000000000E-005    -1499475.1611585845     
  -7.1999999999999988E-005    -1324762.3369633669     
  -7.1499999999999976E-005    -1068122.9954691480     
  -7.0999999999999991E-005    -726380.01973215118     
  -7.0499999999999979E-005    -299113.40354125248     
  -6.9999999999999994E-005     210921.44855992496     
  -6.9499999999999982E-005     797426.20507955458     
  -6.8999999999999997E-005     1450271.9289325029     
  -6.8499999999999985E-005     2155295.2280521328     
  -6.7999999999999999E-005     2894214.8097383794     
  -6.7499999999999987E-005     3644643.5688562030     
  -6.6999999999999975E-005     4380266.4704776844     
  -6.6499999999999990E-005     5071130.3631177973     
  -6.5999999999999978E-005     5684081.9937823536     
  -6.5499999999999993E-005     6183362.1986384485     
  -6.4999999999999981E-005     6531307.2717752419     
  -6.4499999999999996E-005     6689188.5311898505     
  -6.3999999999999984E-005     6618158.1134959515     
  -6.3499999999999999E-005     6280289.2278854009     
  -6.2999999999999986E-005     5639644.0479102284     
  -6.2500000000000001E-005     4663381.9539268389     
  -6.1999999999999989E-005     3322919.9675312750     
  -6.1499999999999977E-005     1594911.6588892452     
  -6.0999999999999992E-005    -537654.06762854010     
  -6.0499999999999980E-005    -3084662.9110334199     
  -5.9999999999999995E-005    -6048077.3186201528     
  -5.9499999999999983E-005    -9421457.2285871636     
  -5.8999999999999998E-005    -13189517.571344927     
  -5.8499999999999985E-005    -17328137.087826412     
  -5.8000000000000000E-005    -21804380.249045115     
  -5.7499999999999988E-005    -26577035.252147757     
  -5.6999999999999976E-005    -31597158.541512087     
  -5.6499999999999991E-005    -36809138.468442164     
  -5.5999999999999979E-005    -42151682.873750359     
  -5.5499999999999994E-005    -47559355.725098200     
  -5.4999999999999982E-005    -52964243.173507810     
  -5.4499999999999997E-005    -58297475.613693029     
  -5.3999999999999984E-005    -63491264.717707634     
  -5.3499999999999999E-005    -68480839.724849731     
  -5.2999999999999987E-005    -73206231.547297895     
  -5.2500000000000002E-005    -77614512.625094816     
  -5.1999999999999990E-005    -81661131.491587102     
  -5.1499999999999978E-005    -85311865.097299457     
  -5.0999999999999993E-005    -88544241.266235173     
  -5.0499999999999981E-005    -91348565.993816927     
  -4.9999999999999996E-005    -93729059.509589151     
  -4.9499999999999983E-005    -95704147.201016307     
  -4.8999999999999998E-005    -97306741.679034367     
  -4.8499999999999986E-005    -98584285.894143805     
  -4.8000000000000001E-005    -99598081.268172190     
  -4.7499999999999989E-005    -100422218.83166629     
  -4.6999999999999977E-005    -101143042.59659298     
  -4.6499999999999992E-005    -101856634.81313527     
  -4.5999999999999980E-005    -102667214.01764759     
  -4.5499999999999995E-005    -103685833.28915063     
  -4.4999999999999983E-005    -105027009.69468743     
  -4.4499999999999997E-005    -106807095.73450072     
  -4.3999999999999985E-005    -109141293.31892513     
  -4.3500000000000000E-005    -112141857.77532735     
  -4.2999999999999988E-005    -115914738.06367171     
  -4.2500000000000003E-005    -120559073.21925783     
  -4.1999999999999991E-005    -126163109.36421302     
  -4.1499999999999979E-005    -132803851.53741139     
  -4.0999999999999994E-005    -140544907.07705104     
  -4.0499999999999982E-005    -149435991.88233438     
  -3.9999999999999996E-005    -159513098.98450580     
  -3.9499999999999984E-005    -170794831.02485541     
  -3.8999999999999999E-005    -183288115.01274484     
  -3.8499999999999987E-005    -196983295.26281583     
  -3.8000000000000002E-005    -211858283.10225046     
  -3.7499999999999990E-005    -227880141.15016305     
  -3.6999999999999978E-005    -245005979.75709093     
  -3.6499999999999993E-005    -263184777.66310203     
  -3.5999999999999981E-005    -282359682.81331646     
  -3.5499999999999996E-005    -302472954.57868129     
  -3.4999999999999983E-005    -323465657.72646111     
  -3.4499999999999998E-005    -345281946.97248304     
  -3.3999999999999986E-005    -367870125.19322968     
  -3.3500000000000001E-005    -391188231.73716468     
  -3.2999999999999989E-005    -415203013.10391569     
  -3.2499999999999977E-005    -439895759.27082157     
  -3.1999999999999992E-005    -465259894.80688906     
  -3.1499999999999980E-005    -491305794.58711386     
  -3.0999999999999995E-005    -518061317.83103371     
  -3.0499999999999982E-005    -545569105.53321898     
  -2.9999999999999997E-005    -573892613.74834013     
  -2.9499999999999985E-005    -603112445.78925383     
  -2.9000000000000000E-005    -633321791.94058084     
  -2.8499999999999988E-005    -664633344.15232587     
  -2.8000000000000003E-005    -697174080.74004495     
  -2.7499999999999991E-005    -731079874.60522974     
  -2.6999999999999979E-005    -766504006.33823323     
  -2.6499999999999994E-005    -803600710.33020639     
  -2.5999999999999981E-005    -842530769.01525295     
  -2.5499999999999996E-005    -883463574.37410331     
  -2.4999999999999984E-005    -926562111.29217267     
  -2.4499999999999999E-005    -971986522.84174299     
  -2.3999999999999987E-005    -1019899165.7906599     
  -2.3500000000000002E-005    -1070452377.0083702     
  -2.2999999999999990E-005    -1123791068.8065858     
  -2.2499999999999978E-005    -1180052928.6257527     
  -2.1999999999999993E-005    -1239357547.1238508     
  -2.1499999999999980E-005    -1301826323.7622492     
  -2.0999999999999995E-005    -1367560496.6516938     
  -2.0499999999999983E-005    -1436653979.2711341     
  -1.9999999999999998E-005    -1509196754.0823383     
  -1.9499999999999986E-005    -1585260480.6319239     
  -1.9000000000000001E-005    -1664910999.3560414     
  -1.8499999999999989E-005    -1748215368.5119791     
  -1.8000000000000004E-005    -1835230342.9191499     
  -1.7499999999999992E-005    -1926012029.2220116     
  -1.6999999999999980E-005    -2020626629.9242492     
  -1.6499999999999994E-005    -2119139708.5867395     
  -1.5999999999999982E-005    -2221608899.7277784     
  -1.5499999999999997E-005    -2328128194.0867214     
  -1.4999999999999985E-005    -2438781185.8866858     
  -1.4500000000000000E-005    -2553659052.3535042     
  -1.3999999999999988E-005    -2672892985.0735173     
  -1.3500000000000003E-005    -2796613466.5407934     
  -1.2999999999999991E-005    -2924963551.3547435     
  -1.2499999999999979E-005    -3058120898.8501000     
  -1.1999999999999994E-005    -3196242922.2864661     
  -1.1499999999999981E-005    -3339534586.6236792     
  -1.0999999999999996E-005    -3488218277.8086767     
  -1.0499999999999984E-005    -3642496918.7950020     
  -9.9999999999999991E-006    -3802639095.4911194     
  -9.4999999999999870E-006    -3968882929.5835371     
  -9.0000000000000019E-006    -4141459899.7974854     
  -8.4999999999999898E-006    -4320671999.2016220     
  -7.9999999999999776E-006    -4506741977.1422977     
  -7.4999999999999926E-006    -4699977556.6510334     
  -6.9999999999999804E-006    -4900620192.9567490     
  -6.4999999999999954E-006    -5108948679.8072147     
  -5.9999999999999832E-006    -5325204044.0490818     
  -5.4999999999999982E-006    -5549668293.4636240     
  -4.9999999999999860E-006    -5782537110.9353695     
  -4.5000000000000010E-006    -6024063985.5966511     
  -3.9999999999999888E-006    -6274468266.7841759     
  -3.5000000000000038E-006    -6534004880.4657984     
  -2.9999999999999916E-006    -6802877477.2740908     
  -2.4999999999999795E-006    -7081248779.4464722     
  -1.9999999999999944E-006    -7369334684.0894985     
  -1.4999999999999823E-006    -7667323215.6404953     
  -9.9999999999999720E-007    -7975371128.0338516     
  -4.9999999999998505E-007    -8293685736.4460945     
   0.0000000000000000         -8622434376.9365158     
   5.0000000000001215E-007    -8961783359.1658363     
   9.9999999999999720E-007    -9311937055.7383881     
   1.5000000000000094E-006    -9673027580.8369598     
   2.0000000000000215E-006    -10045272242.501366     
   2.5000000000000066E-006    -10428904363.845394     
   3.0000000000000187E-006    -10824085249.563293     
   3.5000000000000038E-006    -11231098303.452736     
   4.0000000000000159E-006    -11650119277.779358     
   4.5000000000000010E-006    -12081341582.381655     
   5.0000000000000131E-006    -12525124033.471321     
   5.4999999999999982E-006    -12981605792.804249     
   6.0000000000000103E-006    -13451061025.585981     
   6.4999999999999954E-006    -13933746545.374722     
   7.0000000000000075E-006    -14430011092.722023     
   7.5000000000000197E-006    -14939998888.201542     
   8.0000000000000047E-006    -15463979829.011600     
   8.5000000000000169E-006    -16002274278.551403     
   9.0000000000000019E-006    -16555121001.403915     
   9.5000000000000141E-006    -17122828876.909687     
   9.9999999999999991E-006    -17705533730.280632     
   1.0500000000000011E-005    -18303452951.970921     
   1.0999999999999996E-005    -18916843891.117451     
   1.1500000000000008E-005    -19545775827.255119     
   1.2000000000000021E-005    -20190634847.624557     
   1.2500000000000006E-005    -20851198054.182564     
   1.3000000000000018E-005    -21527845424.561348     
   1.3500000000000003E-005    -22220532612.452438     
   1.4000000000000015E-005    -22929375832.529831     
   1.4500000000000000E-005    -23654513994.161686     
   1.5000000000000012E-005    -24395843575.086555     
   1.5499999999999997E-005    -25153345078.159561     
   1.6000000000000009E-005    -25927026862.837715     
   1.6499999999999994E-005    -26716763425.976898     
   1.7000000000000007E-005    -27522488443.466248     
   1.7500000000000019E-005    -28344268859.390381     
   1.8000000000000004E-005    -29181651613.051743     
   1.8500000000000016E-005    -30034693710.249870     
   1.9000000000000001E-005    -30903204202.088280     
   1.9500000000000013E-005    -31786976391.994164     
   1.9999999999999998E-005    -32685649414.273567     
   2.0500000000000010E-005    -33599136687.657524     
   2.0999999999999995E-005    -34527441550.353149     
   2.1500000000000008E-005    -35470137377.826439     
   2.2000000000000020E-005    -36426980786.158012     
   2.2500000000000005E-005    -37397614549.047905     
   2.3000000000000017E-005    -38381926958.953583     
   2.3500000000000002E-005    -39379550575.935226     
   2.4000000000000014E-005    -40390146576.408333     
   2.4499999999999999E-005    -41413200022.720985     
   2.5000000000000011E-005    -42448734951.392746     
   2.5499999999999996E-005    -43495844941.430389     
   2.6000000000000009E-005    -44554247771.555496     
   2.6500000000000021E-005    -45623800961.866035     
   2.7000000000000006E-005    -46703245023.439468     
   2.7500000000000018E-005    -47792840200.097168     
   2.8000000000000003E-005    -48891207416.947189     
   2.8500000000000015E-005    -49997958781.007584     
   2.9000000000000000E-005    -51112561324.889191     
   2.9500000000000012E-005    -52234495121.065292     
   2.9999999999999997E-005    -53362295894.803993     
   3.0500000000000010E-005    -54495787822.117874     
   3.0999999999999995E-005    -55633637890.503311     
   3.1500000000000007E-005    -56774753191.642609     
   3.2000000000000019E-005    -57918441743.399567     
   3.2500000000000004E-005    -59063658373.303917     
   3.3000000000000016E-005    -60208689904.611206     
   3.3500000000000001E-005    -61353196426.492813     
   3.4000000000000013E-005    -62495186365.678040     
   3.4499999999999998E-005    -63633728487.701263     
   3.5000000000000010E-005    -64767202979.581833     
   3.5499999999999996E-005    -65894302124.943008     
   3.6000000000000008E-005    -67013928885.740860     
   3.6500000000000020E-005    -68123916421.931747     
   3.7000000000000005E-005    -69223817262.439468     
   3.7500000000000017E-005    -70310858968.461914     
   3.8000000000000002E-005    -71384357743.413986     
   3.8500000000000014E-005    -72441486399.714996     
   3.8999999999999999E-005    -73481698297.392120     
   3.9500000000000011E-005    -74503065140.638809     
   3.9999999999999996E-005    -75503240319.698120     
   4.0500000000000009E-005    -76481123961.403275     
   4.0999999999999994E-005    -77434842447.915833     
   4.1500000000000006E-005    -78361765679.410248     
   4.2000000000000018E-005    -79259933907.840469     
   4.2500000000000003E-005    -80128492407.918472     
   4.3000000000000015E-005    -80965139501.207520     
   4.3500000000000000E-005    -81767697394.893692     
   4.4000000000000012E-005    -82534262731.486465     
   4.4499999999999997E-005    -83261632486.238586     
   4.5000000000000010E-005    -83947865588.445984     
   4.5500000000000022E-005    -84590982646.457794     
   4.5999999999999980E-005    -85189251429.984116     
   4.6499999999999992E-005    -85739816657.756622     
   4.7000000000000004E-005    -86241269429.371277     
   4.7500000000000016E-005    -86690199924.488373     
   4.8000000000000028E-005    -87085320535.185089     
   4.8499999999999986E-005    -87424119064.172150     
   4.8999999999999998E-005    -87703866742.961731     
   4.9500000000000011E-005    -87922338505.879776     
   5.0000000000000023E-005    -88077090554.373581     
   5.0499999999999981E-005    -88166255073.157654     
   5.0999999999999993E-005    -88186224775.303116     
   5.1500000000000005E-005    -88134975823.493027     
   5.2000000000000017E-005    -88010412612.049774     
   5.2500000000000029E-005    -87808283289.411514     
   5.2999999999999987E-005    -87528995803.892105     
   5.3499999999999999E-005    -87168614795.484955     
   5.4000000000000012E-005    -86724563875.562714     
   5.4500000000000024E-005    -86195167356.139389     
   5.4999999999999982E-005    -85576500926.696899     
   5.5499999999999994E-005    -84865147527.869843     
   5.6000000000000006E-005    -84061398708.437195     
   5.6500000000000018E-005    -83161603719.697388     
   5.7000000000000030E-005    -82164713591.325790     
   5.7499999999999988E-005    -81067188133.276123     
   5.8000000000000000E-005    -79868049332.970734     
   5.8500000000000012E-005    -78563719506.199554     
   5.9000000000000025E-005    -77153505956.914597     
   5.9499999999999983E-005    -75632635808.493500     
   5.9999999999999995E-005    -74003200817.188812     
   6.0500000000000007E-005    -72259548675.421738     
   6.1000000000000019E-005    -70400412260.399689     
   6.1500000000000031E-005    -68425350411.752289     
   6.1999999999999989E-005    -66331580105.710846     
   6.2500000000000001E-005    -64116642582.288681     
   6.3000000000000013E-005    -61782115721.898201     
   6.3500000000000026E-005    -59322608462.250710     
   6.3999999999999984E-005    -56738717340.499947     
   6.4499999999999996E-005    -54030152243.916260     
   6.5000000000000008E-005    -51193005071.991531     
   6.5500000000000020E-005    -48230489563.272697     
   6.6000000000000032E-005    -45139071583.212013     
   6.6499999999999990E-005    -41920705913.611641     
   6.7000000000000002E-005    -38568553115.706627     
   6.7500000000000014E-005    -35086581228.157494     
   6.8000000000000027E-005    -31474363152.222038     
   6.8499999999999985E-005    -27728641613.244244     
   6.8999999999999997E-005    -23853626148.260719     
   6.9500000000000009E-005    -19844604427.837013     
   7.0000000000000021E-005    -15707066760.219761     
   7.0499999999999979E-005    -11438938579.592451     
   7.0999999999999991E-005    -7042180060.0760498     
   7.1500000000000003E-005    -2515918749.6866226     
   7.2000000000000015E-005     2140699915.2694397     