  -1.99999995E-04     0.00000000    
  -1.99500006E-04     0.00000000    
  -1.99000002E-04     0.00000000    
  -1.98499998E-04     0.00000000    
  -1.97999994E-04     0.00000000    
  -1.97500005E-04    -1.17699400E-15
  -1.97000001E-04    -1.20051174E-14
  -1.96499997E-04    -6.55273971E-14
  -1.95999994E-04    -2.52704785E-13
  -1.95500004E-04    -7.67235234E-13
  -1.95000001E-04    -1.93676542E-12
  -1.94499997E-04    -4.18731846E-12
  -1.93999993E-04    -7.86499772E-12
  -1.93500004E-04    -1.28447981E-11
  -1.93000000E-04    -1.79179172E-11
  -1.92499996E-04    -2.00846492E-11
  -1.92000007E-04    -1.40787954E-11
  -1.91500003E-04     7.34346004E-12
  -1.90999999E-04     5.17129777E-11
  -1.90499995E-04     1.23256183E-10
  -1.90000006E-04     2.17417653E-10
  -1.89500002E-04     3.14446386E-10
  -1.88999998E-04     3.74235976E-10
  -1.88499995E-04     3.35803246E-10
  -1.88000005E-04     1.25399940E-10
  -1.87500002E-04    -3.23412824E-10
  -1.86999998E-04    -1.03692710E-09
  -1.86499994E-04    -1.95942018E-09
  -1.86000005E-04    -2.91221958E-09
  -1.85500001E-04    -3.56993080E-09
  -1.84999997E-04    -3.47448603E-09
  -1.84499993E-04    -2.10714379E-09
  -1.84000004E-04     9.69403002E-10
  -1.83500000E-04     5.90364069E-09
  -1.82999996E-04     1.23126931E-08
  -1.82500007E-04     1.90646414E-08
  -1.82000003E-04     2.41726461E-08
  -1.81500000E-04     2.49024907E-08
  -1.80999996E-04     1.81843713E-08
  -1.80500007E-04     1.37769951E-09
  -1.80000003E-04    -2.66448037E-08
  -1.79499999E-04    -6.42402611E-08
  -1.78999995E-04    -1.05842382E-07
  -1.78500006E-04    -1.41305392E-07
  -1.78000002E-04    -1.56202702E-07
  -1.77499998E-04    -1.33509516E-07
  -1.76999994E-04    -5.69374521E-08
  -1.76500005E-04     8.41182128E-08
  -1.76000001E-04     2.88506413E-07
  -1.75499998E-04     5.37138021E-07
  -1.74999994E-04     7.88234502E-07
  -1.74500005E-04     9.75922262E-07
  -1.74000001E-04     1.01417368E-06
  -1.73499997E-04     8.07739411E-07
  -1.72999993E-04     2.70794089E-07
  -1.72500004E-04    -6.47444665E-07
  -1.72000000E-04    -1.93280744E-06
  -1.71499996E-04    -3.47684522E-06
  -1.71000007E-04    -5.05497383E-06
  -1.70500003E-04    -6.32032334E-06
  -1.69999999E-04    -6.82171458E-06
  -1.69499996E-04    -6.05258856E-06
  -1.69000006E-04    -3.53408882E-06
  -1.68500002E-04     1.07008304E-06
  -1.67999999E-04     7.81738345E-06
  -1.67499995E-04     1.63468121E-05
  -1.67000006E-04     2.57630436E-05
  -1.66500002E-04     3.45768567E-05
  -1.65999998E-04     4.07368461E-05
  -1.65499994E-04     4.17838019E-05
  -1.65000005E-04     3.51481794E-05
  -1.64500001E-04     1.85923873E-05
  -1.63999997E-04    -9.22630079E-06
  -1.63499994E-04    -4.81280076E-05
  -1.63000004E-04    -9.58056698E-05
  -1.62500000E-04    -1.47361527E-04
  -1.61999997E-04    -1.95121334E-04
  -1.61499993E-04    -2.28865989E-04
  -1.61000004E-04    -2.36599793E-04
  -1.60500000E-04    -2.05927106E-04
  -1.59999996E-04    -1.26031184E-04
  -1.59500007E-04     9.84777216E-06
  -1.59000003E-04     2.01672170E-04
  -1.58499999E-04     4.39949479E-04
  -1.57999995E-04     7.03634927E-04
  -1.57500006E-04     9.59129538E-04
  -1.57000002E-04     1.16094702E-03
  -1.56499998E-04     1.25454110E-03
  -1.55999995E-04     1.18162518E-03
  -1.55500005E-04     8.88050825E-04
  -1.55000002E-04     3.33923846E-04
  -1.54499998E-04    -4.94809123E-04
  -1.53999994E-04    -1.57455762E-03
  -1.53500005E-04    -2.83380575E-03
  -1.53000001E-04    -4.14643902E-03
  -1.52499997E-04    -5.33094862E-03
  -1.51999993E-04    -6.15766877E-03
  -1.51500004E-04    -6.36577606E-03
  -1.51000000E-04    -5.69093088E-03
  -1.50499996E-04    -3.90309445E-03
  -1.50000007E-04    -8.52612022E-04
  -1.49500003E-04     3.47940251E-03
  -1.49000000E-04     8.93207453E-03
  -1.48499996E-04     1.51246935E-02
  -1.48000006E-04     2.14341562E-02
  -1.47500003E-04     2.69990936E-02
  -1.46999999E-04     3.07587981E-02
  -1.46499995E-04     3.15331742E-02
  -1.46000006E-04     2.81460322E-02
  -1.45500002E-04     1.95889957E-02
  -1.44999998E-04     5.21696033E-03
  -1.44499994E-04    -1.50414882E-02
  -1.44000005E-04    -4.04819995E-02
  -1.43500001E-04    -6.94605634E-02
  -1.42999997E-04    -9.93017778E-02
  -1.42499994E-04   -0.126313999    
  -1.42000004E-04   -0.145943373    
  -1.41500001E-04   -0.153089166    
  -1.40999997E-04   -0.142590746    
  -1.40499993E-04   -0.109874852    
  -1.40000004E-04    -5.17308339E-02
  -1.39500000E-04     3.28466408E-02
  -1.38999996E-04    0.141832680    
  -1.38500007E-04    0.269475102    
  -1.38000003E-04    0.405847669    
  -1.37499999E-04    0.536785781    
  -1.36999995E-04    0.644322872    
  -1.36500006E-04    0.707721591    
  -1.36000002E-04    0.705147564    
  -1.35499999E-04    0.615968704    
  -1.34999995E-04    0.423585892    
  -1.34500006E-04    0.118612126    
  -1.34000002E-04   -0.297880441    
  -1.33499998E-04   -0.811400294    
  -1.32999994E-04    -1.39178669    
  -1.32500005E-04    -1.99212527    
  -1.32000001E-04    -2.54927826    
  -1.31499997E-04    -2.98639727    
  -1.30999993E-04    -3.21767616    
  -1.30500004E-04    -3.15542793    
  -1.30000000E-04    -2.71929407    
  -1.29499997E-04    -1.84716165    
  -1.28999993E-04   -0.507045031    
  -1.28500003E-04     1.29111779    
  -1.28000000E-04     3.48502946    
  -1.27499996E-04     5.95240545    
  -1.27000007E-04     8.50769806    
  -1.26500003E-04     10.9045963    
  -1.25999999E-04     12.8455029    
  -1.25499995E-04     13.9987392    
  -1.25000006E-04     14.0236006    
  -1.24500002E-04     12.6027422    
  -1.23999998E-04     9.48028278    
  -1.23499995E-04     4.50341368    
  -1.23000005E-04    -2.33607626    
  -1.22500001E-04    -10.8640242    
  -1.21999998E-04    -20.6948128    
  -1.21500001E-04    -31.2154999    
  -1.20999997E-04    -41.5879936    
  -1.20500001E-04    -50.7729797    
  -1.19999997E-04    -57.5785522    
  -1.19500000E-04    -60.7343445    
  -1.18999997E-04    -58.9903717    
  -1.18500000E-04    -51.2367516    
  -1.18000004E-04    -36.6384506    
  -1.17500000E-04    -14.7756882    
  -1.17000003E-04     14.2203474    
  -1.16499999E-04     49.5503960    
  -1.16000003E-04     89.6621628    
  -1.15499999E-04     132.211639    
  -1.15000003E-04     174.084213    
  -1.14499999E-04     211.485550    
  -1.14000002E-04     240.109360    
  -1.13499998E-04     255.384018    
  -1.13000002E-04     252.792572    
  -1.12499998E-04     228.256378    
  -1.12000002E-04     178.563141    
  -1.11499998E-04     101.812607    
  -1.11000001E-04    -2.14885354    
  -1.10499997E-04    -131.343552    
  -1.10000001E-04    -281.367188    
  -1.09499997E-04    -445.220490    
  -1.09000001E-04    -613.305481    
  -1.08499997E-04    -773.619019    
  -1.08000000E-04    -912.161926    
  -1.07499996E-04    -1013.57556    
  -1.07000000E-04    -1062.00024    
  -1.06500003E-04    -1042.13110    
  -1.06000000E-04    -940.432373    
  -1.05500003E-04    -746.453308    
  -1.04999999E-04    -454.166901    
  -1.04500003E-04    -63.2478600    
  -1.03999999E-04     419.813751    
  -1.03500002E-04     980.858887    
  -1.02999998E-04     1597.57764    
  -1.02500002E-04     2239.48022    
  -1.01999998E-04     2868.40625    
  -1.01500002E-04     3439.62158    
  -1.00999998E-04     3903.52832    
  -1.00500001E-04     4207.97754    
  -9.99999975E-05     4301.13037    
  -9.95000009E-05     4134.77979    
  -9.89999971E-05     3667.99878    
  -9.85000006E-05     2870.93457    
  -9.79999968E-05     1728.56128    
  -9.75000003E-05     244.142120    
  -9.69999965E-05    -1557.84705    
  -9.64999999E-05    -3629.55640    
  -9.60000034E-05    -5898.62109    
  -9.54999996E-05    -8268.27148    
  -9.50000031E-05    -10618.8223    
  -9.44999992E-05    -12810.6777    
  -9.40000027E-05    -14688.9248    
  -9.34999989E-05    -16089.4355    
  -9.30000024E-05    -16846.4062    
  -9.24999986E-05    -16801.0781    
  -9.20000020E-05    -15811.4160    
  -9.14999982E-05    -13762.2598    
  -9.10000017E-05    -10575.5908    
  -9.04999979E-05    -6220.33545    
  -9.00000014E-05    -721.174927    
  -8.94999976E-05     5834.22510    
  -8.90000010E-05     13290.1133    
  -8.84999972E-05     21420.2383    
  -8.80000007E-05     29928.5000    
  -8.74999969E-05     38453.1680    
  -8.70000003E-05     46574.7344    
  -8.64999965E-05     53827.6602    
  -8.60000000E-05     59715.7617    
  -8.55000035E-05     63731.1328    
  -8.49999997E-05     65376.0938    
  -8.45000031E-05     64187.5000    
  -8.39999993E-05     59762.5781    
  -8.35000028E-05     51785.4922    
  -8.29999990E-05     40053.3633    
  -8.25000025E-05     24500.5723    
  -8.19999987E-05     5220.23047    
  -8.15000021E-05    -17518.6602    
  -8.09999983E-05    -43259.2695    
  -8.05000018E-05    -71351.4062    
  -7.99999980E-05    -100953.609    
  -7.95000014E-05    -131043.133    
  -7.89999976E-05    -160434.469    
  -7.85000011E-05    -187806.766    
  -7.79999973E-05    -211739.594    
  -7.75000008E-05    -230756.688    
  -7.69999970E-05    -243377.109    
  -7.65000004E-05    -248171.844    
  -7.59999966E-05    -243824.859    
  -7.55000001E-05    -229196.891    
  -7.50000036E-05    -203388.953    
  -7.44999998E-05    -165804.438    
  -7.40000032E-05    -116206.516    
  -7.34999994E-05    -54768.6758    
  -7.30000029E-05     17883.6035    
  -7.24999991E-05     100643.289    
  -7.20000025E-05     191904.359    
  -7.14999987E-05     289561.156    
  -7.10000022E-05     391022.781    
  -7.04999984E-05     493244.906    
  -7.00000019E-05     592780.062    
  -6.94999981E-05     685843.500    
  -6.90000015E-05     768396.938    
  -6.84999977E-05     836247.562    
  -6.80000012E-05     885158.938    
  -6.74999974E-05     910973.750    
  -6.70000009E-05     909745.438    
  -6.64999970E-05     877872.438    
  -6.60000005E-05     812236.188    
  -6.54999967E-05     710336.625    
  -6.50000002E-05     570420.125    
  -6.44999964E-05     391600.688    
  -6.39999998E-05     173964.750    
  -6.35000033E-05    -81335.7656    
  -6.29999995E-05    -372014.625    
  -6.25000030E-05    -694600.188    
  -6.19999992E-05    -1044410.06    
  -6.15000026E-05    -1415551.12    
  -6.09999988E-05    -1800942.62    
  -6.04999987E-05    -2192370.25    
  -5.99999985E-05    -2580561.25    
  -5.94999983E-05    -2955286.25    
  -5.90000018E-05    -3305487.75    
  -5.85000016E-05    -3619419.00    
  -5.80000014E-05    -3884816.75    
  -5.75000013E-05    -4089071.50    
  -5.70000011E-05    -4219426.50    
  -5.65000009E-05    -4263171.50    
  -5.60000008E-05    -4207845.50    
  -5.55000006E-05    -4041446.00    
  -5.50000004E-05    -3752619.50    
  -5.45000003E-05    -3330858.25    
  -5.40000001E-05    -2766683.25    
  -5.34999999E-05    -2051802.75    
  -5.29999998E-05    -1179263.75    
  -5.24999996E-05    -143578.344    
  -5.19999994E-05     1059183.00    
  -5.14999992E-05     2431298.75    
  -5.09999991E-05     3973363.50    
  -5.04999989E-05     5684258.00    
  -4.99999987E-05     7561162.50    
  -4.94999986E-05     9599590.00    
  -4.89999984E-05     11793477.0    
  -4.84999982E-05     14135238.0    
  -4.80000017E-05     16615941.0    
  -4.75000015E-05     19225434.0    
  -4.70000014E-05     21952528.0    
  -4.65000012E-05     24785194.0    
  -4.60000010E-05     27710794.0    
  -4.55000009E-05     30716312.0    
  -4.50000007E-05     33788628.0    
  -4.45000005E-05     36914716.0    
  -4.40000003E-05     40082040.0    
  -4.35000002E-05     43278660.0    
  -4.30000000E-05     46493696.0    
  -4.24999998E-05     49717416.0    
  -4.19999997E-05     52941624.0    
  -4.14999995E-05     56159864.0    
  -4.09999993E-05     59367628.0    
  -4.04999992E-05     62562620.0    
  -3.99999990E-05     65744864.0    
  -3.94999988E-05     68916976.0    
  -3.89999987E-05     72084152.0    
  -3.84999985E-05     75254424.0    
  -3.79999983E-05     78438488.0    
  -3.75000018E-05     81650088.0    
  -3.70000016E-05     84905672.0    
  -3.65000014E-05     88224488.0    
  -3.60000013E-05     91628560.0    
  -3.55000011E-05     95142384.0    
  -3.50000009E-05     98793144.0    
  -3.45000008E-05     102610032.    
  -3.40000006E-05     106624632.    
  -3.35000004E-05     110870256.    
  -3.30000003E-05     115381880.    
  -3.25000001E-05     120196064.    
  -3.19999999E-05     125350256.    
  -3.14999997E-05     130883248.    
  -3.09999996E-05     136834224.    
  -3.04999994E-05     143242992.    
  -2.99999992E-05     150149584.    
  -2.95000009E-05     157593792.    
  -2.90000007E-05     165615776.    
  -2.85000006E-05     174255168.    
  -2.80000004E-05     183551168.    
  -2.75000002E-05     193542352.    
  -2.70000000E-05     204267056.    
  -2.64999999E-05     215762720.    
  -2.59999997E-05     228066016.    
  -2.54999995E-05     241213280.    
  -2.49999994E-05     255240288.    
  -2.44999992E-05     270181792.    
  -2.40000008E-05     286072800.    
  -2.35000007E-05     302947488.    
  -2.30000005E-05     320840352.    
  -2.25000003E-05     339785248.    
  -2.20000002E-05     359816864.    
  -2.15000000E-05     380969504.    
  -2.09999998E-05     403278304.    
  -2.04999997E-05     426780000.    
  -1.99999995E-05     451510624.    
  -1.94999993E-05     477508288.    
  -1.89999992E-05     504811424.    
  -1.85000008E-05     533462432.    
  -1.80000006E-05     563502912.    
  -1.75000005E-05     594978240.    
  -1.70000003E-05     627935168.    
  -1.65000001E-05     662423360.    
  -1.60000000E-05     698494080.    
  -1.54999998E-05     736203584.    
  -1.49999996E-05     775610560.    
  -1.45000004E-05     816774848.    
  -1.40000002E-05     859764608.    
  -1.35000000E-05     904647488.    
  -1.29999999E-05     951497088.    
  -1.24999997E-05     1.00039302E+09
  -1.20000004E-05     1.05141632E+09
  -1.15000003E-05     1.10465562E+09
  -1.10000001E-05     1.16020314E+09
  -1.04999999E-05     1.21815629E+09
  -9.99999975E-06     1.27861594E+09
  -9.49999958E-06     1.34169178E+09
  -9.00000032E-06     1.40749811E+09
  -8.50000015E-06     1.47615219E+09
  -7.99999998E-06     1.54777843E+09
  -7.49999981E-06     1.62250509E+09
  -7.00000010E-06     1.70046694E+09
  -6.49999993E-06     1.78179994E+09
  -6.00000021E-06     1.86665024E+09
  -5.50000004E-06     1.95516326E+09
  -4.99999987E-06     2.04749286E+09
  -4.50000016E-06     2.14379098E+09
  -3.99999999E-06     2.24421658E+09
  -3.50000005E-06     2.34893517E+09
  -3.00000011E-06     2.45810483E+09
  -2.49999994E-06     2.57188966E+09
  -1.99999999E-06     2.69046323E+09
  -1.50000005E-06     2.81398810E+09
  -9.99999997E-07     2.94263629E+09
  -4.99999999E-07     3.07657549E+09
   0.00000000         3.21597824E+09
   4.99999999E-07     3.36102144E+09
   9.99999997E-07     3.51186765E+09
   1.50000005E-06     3.66869197E+09
   1.99999999E-06     3.83166771E+09
   2.49999994E-06     4.00096742E+09
   3.00000011E-06     4.17676621E+09
   3.50000005E-06     4.35924685E+09
   3.99999999E-06     4.54857114E+09
   4.50000016E-06     4.74492877E+09
   4.99999987E-06     4.94849024E+09
   5.50000004E-06     5.15945370E+09
   6.00000021E-06     5.37799885E+09
   6.49999993E-06     5.60431821E+09
   7.00000010E-06     5.83860992E+09
   7.49999981E-06     6.08107878E+09
   7.99999998E-06     6.33191680E+09
   8.50000015E-06     6.59135642E+09
   9.00000032E-06     6.85961165E+09
   9.49999958E-06     7.13690010E+09
   9.99999975E-06     7.42344448E+09
   1.04999999E-05     7.71948954E+09
   1.10000001E-05     8.02528205E+09
   1.15000003E-05     8.34105088E+09
   1.20000004E-05     8.66706022E+09
   1.24999997E-05     9.00354253E+09
   1.29999999E-05     9.35076147E+09
   1.35000000E-05     9.70897408E+09
   1.40000002E-05     1.00784312E+10
   1.45000004E-05     1.04593797E+10
   1.49999996E-05     1.08520786E+10
   1.54999998E-05     1.12567685E+10
   1.60000000E-05     1.16737178E+10
   1.65000001E-05     1.21031414E+10
   1.70000003E-05     1.25453138E+10
   1.75000005E-05     1.30003988E+10
   1.80000006E-05     1.34686638E+10
   1.85000008E-05     1.39502684E+10
   1.89999992E-05     1.44454103E+10
   1.94999993E-05     1.49543178E+10
   1.99999995E-05     1.54771589E+10
   2.04999997E-05     1.60140513E+10
   2.09999998E-05     1.65651753E+10
   2.15000000E-05     1.71306783E+10
   2.20000002E-05     1.77107026E+10
   2.25000003E-05     1.83052780E+10
   2.30000005E-05     1.89146440E+10
   2.35000007E-05     1.95388191E+10
   2.40000008E-05     2.01779057E+10
   2.44999992E-05     2.08320000E+10
   2.49999994E-05     2.15011594E+10
   2.54999995E-05     2.21854495E+10
   2.59999997E-05     2.28849152E+10
   2.64999999E-05     2.35995894E+10
   2.70000000E-05     2.43295150E+10
   2.75000002E-05     2.50746634E+10
   2.80000004E-05     2.58350653E+10
   2.85000006E-05     2.66107310E+10
   2.90000007E-05     2.74016317E+10
   2.95000009E-05     2.82077082E+10
   2.99999992E-05     2.90289357E+10
   3.04999994E-05     2.98651812E+10
   3.09999996E-05     3.07164344E+10
   3.14999997E-05     3.15825746E+10
   3.19999999E-05     3.24633989E+10
   3.25000001E-05     3.33587231E+10
   3.30000003E-05     3.42684754E+10
   3.35000004E-05     3.51923569E+10
   3.40000006E-05     3.61301484E+10
   3.45000008E-05     3.70815386E+10
   3.50000009E-05     3.80461507E+10
   3.55000011E-05     3.90236774E+10
   3.60000013E-05     4.00138404E+10
   3.65000014E-05     4.10160333E+10
   3.70000016E-05     4.20297400E+10
   3.75000018E-05     4.30546534E+10
   3.79999983E-05     4.40900526E+10
   3.84999985E-05     4.51353231E+10
   3.89999987E-05     4.61901046E+10
   3.94999988E-05     4.72532910E+10
   3.99999990E-05     4.83243540E+10
   4.04999992E-05     4.94026097E+10
   4.09999993E-05     5.04871649E+10
   4.14999995E-05     5.15771679E+10
   4.19999997E-05     5.26718894E+10
   4.24999998E-05     5.37700884E+10
   4.30000000E-05     5.48710154E+10
   4.35000002E-05     5.59736791E+10
   4.40000003E-05     5.70769531E+10
   4.45000005E-05     5.81800468E+10
   4.50000007E-05     5.92815800E+10
   4.55000009E-05     6.03803853E+10
   4.60000010E-05     6.14753034E+10
   4.65000012E-05     6.25653064E+10
   4.70000014E-05     6.36489646E+10
   4.75000015E-05     6.47249060E+10
   4.80000017E-05     6.57917583E+10
   4.84999982E-05     6.68481331E+10
   4.89999984E-05     6.78930063E+10
   4.94999986E-05     6.89243177E+10
   4.99999987E-05     6.99406909E+10
   5.04999989E-05     7.09408850E+10
   5.09999991E-05     7.19225897E+10
   5.14999992E-05     7.28849121E+10
   5.19999994E-05     7.38256159E+10
   5.24999996E-05     7.47432018E+10
   5.29999998E-05     7.56353597E+10
   5.34999999E-05     7.65007135E+10
   5.40000001E-05     7.73371331E+10
   5.45000003E-05     7.81426196E+10
   5.50000004E-05     7.89154365E+10
   5.55000006E-05     7.96533555E+10
   5.60000008E-05     8.03539436E+10
   5.65000009E-05     8.10159636E+10
   5.70000011E-05     8.16359670E+10
   5.75000013E-05     8.22126592E+10
   5.80000014E-05     8.27437875E+10
   5.85000016E-05     8.32270336E+10
   5.90000018E-05     8.36595630E+10
   5.94999983E-05     8.40398275E+10
   5.99999985E-05     8.43656397E+10
   6.04999987E-05     8.46331740E+10
   6.09999988E-05     8.48415867E+10
   6.15000026E-05     8.49878139E+10
   6.19999992E-05     8.50695455E+10
   6.25000030E-05     8.50838815E+10
   6.29999995E-05     8.50300355E+10
   6.35000033E-05     8.49042145E+10
   6.39999998E-05     8.47044362E+10
   6.44999964E-05     8.44286198E+10
   6.50000002E-05     8.40738406E+10
   6.54999967E-05     8.36383539E+10
   6.60000005E-05     8.31194808E+10
   6.64999970E-05     8.25149604E+10
   6.70000009E-05     8.18228347E+10
   6.74999974E-05     8.10403922E+10
   6.80000012E-05     8.01654702E+10
   6.84999977E-05     7.91967498E+10
   6.90000015E-05     7.81312573E+10
   6.94999981E-05     7.69673544E+10
   7.00000019E-05     7.57020344E+10
   7.04999984E-05     7.43347405E+10
   7.10000022E-05     7.28620401E+10
   7.14999987E-05     7.12821555E+10
   7.20000025E-05     6.95935304E+10
   7.24999991E-05     6.77947310E+10
   7.30000029E-05     6.58837299E+10
   7.34999994E-05     6.38595277E+10
   7.40000032E-05     6.17190113E+10
   7.44999998E-05     5.94609562E+10
   7.50000036E-05     5.70850550E+10
   7.55000001E-05     5.45897226E+10
   7.59999966E-05     5.19731446E+10
   7.65000004E-05     4.92355625E+10
   7.69999970E-05     4.63728271E+10
   7.75000008E-05     4.33866834E+10
   7.79999973E-05     4.02757100E+10
   7.85000011E-05     3.70391532E+10
   7.89999976E-05     3.36771441E+10
   7.95000014E-05     3.01893079E+10
   7.99999980E-05     2.65746084E+10
   8.05000018E-05     2.28322611E+10
   8.09999983E-05     1.89627167E+10
   8.15000021E-05     1.49672530E+10
   8.19999987E-05     1.08457236E+10
   8.25000025E-05     6.59884134E+09
   8.29999990E-05     2.22770355E+09
   8.35000028E-05    -2.26761216E+09
   8.39999993E-05    -6.88628173E+09
   8.45000031E-05    -1.16259860E+10
   8.49999997E-05    -1.64853965E+10
   8.55000035E-05    -2.14651433E+10
   8.60000000E-05    -2.65609544E+10
   8.64999965E-05    -3.17721047E+10
   8.70000003E-05    -3.70961039E+10
   8.74999969E-05    -4.25298739E+10
   8.80000007E-05    -4.80723354E+10
   8.84999972E-05    -5.37193185E+10
   8.90000010E-05    -5.94691072E+10
   8.94999976E-05    -6.53183058E+10
   9.00000014E-05    -7.12624701E+10
   9.04999979E-05    -7.73002281E+10
   9.10000017E-05    -8.34272461E+10
   9.14999982E-05    -8.96411894E+10
   9.20000020E-05    -9.59346115E+10
   9.24999986E-05    -1.02307324E+11
   9.30000024E-05    -1.08752470E+11
   9.34999989E-05    -1.15268076E+11
   9.40000027E-05    -1.21845129E+11
   9.44999992E-05    -1.28481133E+11
   9.50000031E-05    -1.35171908E+11
   9.54999996E-05    -1.41907853E+11
   9.60000034E-05    -1.48688142E+11
   9.64999999E-05    -1.55507409E+11
   9.69999965E-05    -1.62354119E+11
   9.75000003E-05    -1.69226617E+11
   9.79999968E-05    -1.76116957E+11
   9.85000006E-05    -1.83019209E+11
   9.89999971E-05    -1.89928129E+11
   9.95000009E-05    -1.96835574E+11
   9.99999975E-05    -2.03732238E+11
   1.00500001E-04    -2.10613928E+11
   1.00999998E-04    -2.17475613E+11
   1.01500002E-04    -2.24306692E+11
   1.01999998E-04    -2.31102267E+11
   1.02500002E-04    -2.37853802E+11
   1.02999998E-04    -2.44552466E+11
   1.03500002E-04    -2.51190395E+11
   1.03999999E-04    -2.57762574E+11
   1.04500003E-04    -2.64261304E+11
   1.04999999E-04    -2.70673379E+11
   1.05500003E-04    -2.76997276E+11
   1.06000000E-04    -2.83219591E+11
   1.06500003E-04    -2.89334100E+11
   1.07000000E-04    -2.95335395E+11
   1.07499996E-04    -3.01209092E+11
   1.08000000E-04    -3.06952110E+11
   1.08499997E-04    -3.12553046E+11
   1.09000001E-04    -3.18009639E+11
   1.09499997E-04    -3.23306848E+11
   1.10000001E-04    -3.28440578E+11
   1.10499997E-04    -3.33401784E+11
   1.11000001E-04    -3.38182832E+11
   1.11499998E-04    -3.42774284E+11
   1.12000002E-04    -3.47171095E+11
   1.12499998E-04    -3.51360877E+11
   1.13000002E-04    -3.55340550E+11
   1.13499998E-04    -3.59101202E+11
   1.14000002E-04    -3.62633626E+11
   1.14499999E-04    -3.65935231E+11
   1.15000003E-04    -3.68994681E+11
   1.15499999E-04    -3.71806077E+11
   1.16000003E-04    -3.74365585E+11
   1.16499999E-04    -3.76661508E+11
   1.17000003E-04    -3.78689847E+11
   1.17500000E-04    -3.80444246E+11
   1.18000004E-04    -3.81920936E+11
   1.18500000E-04    -3.83107400E+11
   1.18999997E-04    -3.84005898E+11
   1.19500000E-04    -3.84606536E+11
   1.19999997E-04    -3.84906428E+11
   1.20500001E-04    -3.84899252E+11
   1.20999997E-04    -3.84581894E+11
   1.21500001E-04    -3.83950881E+11
   1.21999998E-04    -3.82998643E+11
   1.22500001E-04    -3.81726687E+11
   1.23000005E-04    -3.80128166E+11
   1.23499995E-04    -3.78203341E+11
   1.23999998E-04    -3.75946805E+11
   1.24500002E-04    -3.73357642E+11
   1.25000006E-04    -3.70433982E+11
   1.25499995E-04    -3.67173206E+11
   1.25999999E-04    -3.63576001E+11
   1.26500003E-04    -3.59642137E+11
   1.27000007E-04    -3.55369976E+11
   1.27499996E-04    -3.50759780E+11
   1.28000000E-04    -3.45813680E+11
   1.28500003E-04    -3.40530430E+11
   1.28999993E-04    -3.34913143E+11
   1.29499997E-04    -3.28962703E+11
   1.30000000E-04    -3.22681373E+11
   1.30500004E-04    -3.16071870E+11
   1.30999993E-04    -3.09137244E+11
   1.31499997E-04    -3.01880181E+11
   1.32000001E-04    -2.94306546E+11
   1.32500005E-04    -2.86418338E+11
   1.32999994E-04    -2.78220407E+11
   1.33499998E-04    -2.69718979E+11
   1.34000002E-04    -2.60917821E+11
   1.34500006E-04    -2.51823833E+11
   1.34999995E-04    -2.42442666E+11
   1.35499999E-04    -2.32780415E+11
   1.36000002E-04    -2.22845518E+11
   1.36500006E-04    -2.12643758E+11
   1.36999995E-04    -2.02183590E+11
   1.37499999E-04    -1.91472697E+11
   1.38000003E-04    -1.80519322E+11
   1.38500007E-04    -1.69332228E+11
   1.38999996E-04    -1.57920739E+11
   1.39500000E-04    -1.46294424E+11
   1.40000004E-04    -1.34463406E+11
   1.40499993E-04    -1.22437239E+11
   1.40999997E-04    -1.10226153E+11
   1.41500001E-04    -9.78416681E+10
   1.42000004E-04    -8.52944650E+10
   1.42499994E-04    -7.25954150E+10
   1.42999997E-04    -5.97567119E+10
   1.43500001E-04    -4.67896402E+10
   1.44000005E-04    -3.37059430E+10
   1.44499994E-04    -2.05184082E+10
   1.44999998E-04    -7.23814963E+09
   1.45500002E-04     6.12114022E+09
   1.46000006E-04     1.95477504E+10
   1.46499995E-04     3.30281964E+10
   1.46999999E-04     4.65491722E+10
   1.47500003E-04     6.00987935E+10
   1.48000006E-04     7.36637501E+10
   1.48499996E-04     8.72293745E+10
   1.49000000E-04     1.00784751E+11
   1.49500003E-04     1.14315084E+11
   1.50000007E-04     1.27805596E+11
   1.50499996E-04     1.41245104E+11
   1.51000000E-04     1.54619625E+11
   1.51500004E-04     1.67916110E+11
   1.51999993E-04     1.81122318E+11
   1.52499997E-04     1.94222965E+11
   1.53000001E-04     2.07207023E+11
   1.53500005E-04     2.20058157E+11
   1.53999994E-04     2.32766636E+11
   1.54499998E-04     2.45318320E+11
   1.55000002E-04     2.57700594E+11
   1.55500005E-04     2.69899203E+11
   1.55999995E-04     2.81903956E+11
   1.56499998E-04     2.93702074E+11
   1.57000002E-04     3.05283727E+11
   1.57500006E-04     3.16635775E+11
   1.57999995E-04     3.27747305E+11
   1.58499999E-04     3.38605375E+11
   1.59000003E-04     3.49201793E+11
   1.59500007E-04     3.59524073E+11
   1.59999996E-04     3.69562649E+11
   1.60500000E-04     3.79307590E+11
   1.61000004E-04     3.88750508E+11
   1.61499993E-04     3.97880558E+11
   1.61999997E-04     4.06690955E+11
   1.62500000E-04     4.15171478E+11
   1.63000004E-04     4.23313670E+11
   1.63499994E-04     4.31110685E+11
   1.63999997E-04     4.38556164E+11
   1.64500001E-04     4.45642473E+11
   1.65000005E-04     4.52364567E+11
   1.65499994E-04     4.58712089E+11
   1.65999998E-04     4.64683401E+11
   1.66500002E-04     4.70270935E+11
   1.67000006E-04     4.75471020E+11
   1.67499995E-04     4.80278315E+11
   1.67999999E-04     4.84693311E+11
   1.68500002E-04     4.88706441E+11
   1.69000006E-04     4.92319736E+11
   1.69499996E-04     4.95528116E+11
   1.69999999E-04     4.98330534E+11
   1.70500003E-04     5.00727710E+11
   1.71000007E-04     5.02714237E+11
   1.71499996E-04     5.04292508E+11
   1.72000000E-04     5.05464750E+11
   1.72500004E-04     5.06227130E+11
   1.72999993E-04     5.06584924E+11
   1.73499997E-04     5.06535412E+11
   1.74000001E-04     5.06079740E+11
   1.74500005E-04     5.05225675E+11
   1.74999994E-04     5.03969645E+11
   1.75499998E-04     5.02321381E+11
   1.76000001E-04     5.00281737E+11
   1.76500005E-04     4.97852580E+11
   1.76999994E-04     4.95036760E+11
   1.77499998E-04     4.91847811E+11
   1.78000002E-04     4.88285897E+11
   1.78500006E-04     4.84356620E+11
   1.78999995E-04     4.80065225E+11
   1.79499999E-04     4.75421802E+11
   1.80000003E-04     4.70429467E+11
   1.80500007E-04     4.65096540E+11
   1.80999996E-04     4.59434000E+11
   1.81500000E-04     4.53445517E+11
   1.82000003E-04     4.47137907E+11
   1.82500007E-04     4.40525160E+11
   1.82999996E-04     4.33612456E+11
   1.83500000E-04     4.26404348E+11
   1.84000004E-04     4.18915615E+11
   1.84499993E-04     4.11156382E+11
   1.84999997E-04     4.03138150E+11
   1.85500001E-04     3.94864919E+11
   1.86000005E-04     3.86352644E+11
   1.86499994E-04     3.77607520E+11
   1.86999998E-04     3.68645079E+11
   1.87500002E-04     3.59470891E+11
   1.88000005E-04     3.50102258E+11
   1.88499995E-04     3.40545372E+11
   1.88999998E-04     3.30810819E+11
   1.89500002E-04     3.20908100E+11
   1.90000006E-04     3.10858088E+11
   1.90499995E-04     3.00662194E+11
   1.90999999E-04     2.90334441E+11
   1.91500003E-04     2.79888265E+11
   1.92000007E-04     2.69333463E+11
   1.92499996E-04     2.58681897E+11
   1.93000000E-04     2.47944036E+11
   1.93500004E-04     2.37131776E+11
   1.93999993E-04     2.26257879E+11
   1.94499997E-04     2.15331373E+11
   1.95000001E-04     2.04364464E+11
   1.95500004E-04     1.93367704E+11
   1.95999994E-04     1.82354510E+11
   1.96499997E-04     1.71333583E+11
   1.97000001E-04     1.60314245E+11
   1.97500005E-04     1.49309768E+11
   1.97999994E-04     1.38328097E+11
   1.98499998E-04     1.27382290E+11
   1.99000002E-04     1.16483023E+11
   1.99500006E-04     1.05639772E+11
   1.99999995E-04     9.48617626E+10
   2.00499999E-04     8.41593405E+10
   2.01000003E-04     7.35424102E+10
   2.01500006E-04     6.30190080E+10
   2.01999996E-04     5.25976658E+10
   2.02499999E-04     4.22880174E+10
   2.03000003E-04     3.20974438E+10
   2.03500007E-04     2.20328182E+10
   2.03999996E-04     1.21026550E+10
   2.04500000E-04     2.31522816E+09