  -1.9999999999999998E-004     0.0000000000000000     
  -1.9949999999999997E-004     0.0000000000000000     
  -1.9899999999999999E-004     0.0000000000000000     
  -1.9849999999999997E-004     0.0000000000000000     
  -1.9799999999999999E-004     0.0000000000000000     
  -1.9749999999999998E-004     1.1769939452204633E-015
  -1.9699999999999999E-004     1.2005092796096354E-014
  -1.9649999999999998E-004     6.5527168908300572E-014
  -1.9599999999999999E-004     2.5270447030210792E-013
  -1.9549999999999998E-004     7.6723471723074634E-013
  -1.9499999999999997E-004     1.9367682379619471E-012
  -1.9449999999999998E-004     4.1873224282607712E-012
  -1.9399999999999997E-004     7.8650002732040514E-012
  -1.9349999999999999E-004     1.2844800971876039E-011
  -1.9299999999999997E-004     1.7917921112535541E-011
  -1.9249999999999999E-004     2.0084624417425119E-011
  -1.9199999999999998E-004     1.4078769559386946E-011
  -1.9149999999999999E-004    -7.3435489154586848E-012
  -1.9099999999999998E-004    -5.1713114714383520E-011
  -1.9050000000000000E-004    -1.2325635190945630E-010
  -1.8999999999999998E-004    -2.1741757268719038E-010
  -1.8949999999999997E-004    -3.1444617033120905E-010
  -1.8899999999999999E-004    -3.7423525701361016E-010
  -1.8849999999999997E-004    -3.3580215656107707E-010
  -1.8799999999999999E-004    -1.2539890558101423E-010
  -1.8749999999999998E-004     3.2341465398276175E-010
  -1.8699999999999999E-004     1.0369258266438357E-009
  -1.8649999999999998E-004     1.9594176454190034E-009
  -1.8599999999999999E-004     2.9122172612731359E-009
  -1.8549999999999998E-004     3.5699258050054016E-009
  -1.8500000000000000E-004     3.4744787106010146E-009
  -1.8449999999999999E-004     2.1071399058732150E-009
  -1.8399999999999997E-004    -9.6940589189941282E-010
  -1.8349999999999999E-004    -5.9036373258265206E-009
  -1.8299999999999998E-004    -1.2312688033373590E-008
  -1.8249999999999999E-004    -1.9064610906700648E-008
  -1.8199999999999998E-004    -2.4172621759280843E-008
  -1.8149999999999999E-004    -2.4902446036387275E-008
  -1.8099999999999998E-004    -1.8184335398726678E-008
  -1.8050000000000000E-004    -1.3776664898340400E-009
  -1.7999999999999998E-004     2.6644806265741012E-008
  -1.7949999999999997E-004     6.4240216169590555E-008
  -1.7899999999999999E-004     1.0584231482788560E-007
  -1.7849999999999997E-004     1.4130527330271718E-007
  -1.7799999999999999E-004     1.5620247455192218E-007
  -1.7749999999999998E-004     1.3350920949083923E-007
  -1.7699999999999999E-004     5.6937210982999400E-008
  -1.7649999999999998E-004    -8.4118467400511071E-008
  -1.7600000000000000E-004    -2.8850656378892168E-007
  -1.7549999999999998E-004    -5.3713800018410653E-007
  -1.7499999999999997E-004    -7.8823394342526149E-007
  -1.7449999999999999E-004    -9.7592127912697495E-007
  -1.7399999999999997E-004    -1.0141726491912615E-006
  -1.7349999999999999E-004    -8.0773805225266281E-007
  -1.7299999999999998E-004    -2.7079227088950697E-007
  -1.7249999999999999E-004     6.4744674828444107E-007
  -1.7199999999999998E-004     1.9328078713822865E-006
  -1.7149999999999999E-004     3.4768445338242672E-006
  -1.7099999999999998E-004     5.0549706078112641E-006
  -1.7049999999999997E-004     6.3203214695397617E-006
  -1.6999999999999999E-004     6.8217117991496957E-006
  -1.6949999999999997E-004     6.0525781100028883E-006
  -1.6899999999999999E-004     3.5340866966884237E-006
  -1.6849999999999998E-004    -1.0700938967643268E-006
  -1.6799999999999999E-004    -7.8173904827083761E-006
  -1.6749999999999998E-004    -1.6346820270037436E-005
  -1.6699999999999999E-004    -2.5763043153740083E-005
  -1.6649999999999998E-004    -3.4576851103265666E-005
  -1.6599999999999997E-004    -4.0736833372720480E-005
  -1.6549999999999998E-004    -4.1783766873139639E-005
  -1.6500000000000000E-004    -3.5148123617661778E-005
  -1.6449999999999999E-004    -1.8592320808847058E-005
  -1.6399999999999997E-004     9.2263224480762501E-006
  -1.6349999999999999E-004     4.8128045629113962E-005
  -1.6299999999999998E-004     9.5805708002091302E-005
  -1.6249999999999999E-004     1.4736152577113902E-004
  -1.6199999999999998E-004     1.9512130895367431E-004
  -1.6149999999999997E-004     2.2886590501294333E-004
  -1.6099999999999998E-004     2.3659964350183923E-004
  -1.6050000000000000E-004     2.0592659010491634E-004
  -1.5999999999999999E-004     1.2603094844648418E-004
  -1.5949999999999997E-004    -9.8479416262179274E-006
  -1.5899999999999999E-004    -2.0167237655762928E-004
  -1.5849999999999998E-004    -4.3994979924880567E-004
  -1.5799999999999999E-004    -7.0363489364984116E-004
  -1.5749999999999998E-004    -9.5912926848792717E-004
  -1.5699999999999999E-004    -1.1609469396823518E-003
  -1.5649999999999998E-004    -1.2545411914961209E-003
  -1.5600000000000000E-004    -1.1816247696125109E-003
  -1.5549999999999999E-004    -8.8805037686425371E-004
  -1.5499999999999997E-004    -3.3392298067273432E-004
  -1.5449999999999999E-004     4.9481012432053785E-004
  -1.5399999999999998E-004     1.5745582910682639E-003
  -1.5349999999999999E-004     2.8338052875527477E-003
  -1.5299999999999998E-004     4.1464403565810402E-003
  -1.5249999999999999E-004     5.3309488652014576E-003
  -1.5199999999999998E-004     6.1576655638798019E-003
  -1.5150000000000000E-004     6.3657708528605875E-003
  -1.5099999999999998E-004     5.6909264771784337E-003
  -1.5049999999999997E-004     3.9030928445999620E-003
  -1.4999999999999999E-004     8.5260831922543941E-004
  -1.4949999999999997E-004    -3.4794069378071843E-003
  -1.4899999999999999E-004    -8.9320825386891151E-003
  -1.4849999999999998E-004    -1.5124691928063715E-002
  -1.4799999999999999E-004    -2.1434150996843017E-002
  -1.4749999999999998E-004    -2.6999086305619532E-002
  -1.4700000000000000E-004    -3.0758796605275841E-002
  -1.4649999999999998E-004    -3.1533170984792289E-002
  -1.4599999999999997E-004    -2.8146007508692956E-002
  -1.4549999999999999E-004    -1.9588992007060765E-002
  -1.4500000000000000E-004    -5.2169381294607815E-003
  -1.4449999999999999E-004     1.5041517496193998E-002
  -1.4399999999999998E-004     4.0482005375632929E-002
  -1.4349999999999999E-004     6.9460582286488548E-002
  -1.4299999999999998E-004     9.9301762537032226E-002
  -1.4249999999999999E-004    0.12631400639236279     
  -1.4199999999999998E-004    0.14594333129203962     
  -1.4149999999999997E-004    0.15308921003903750     
  -1.4099999999999998E-004    0.14259074511572079     
  -1.4050000000000000E-004    0.10987484665308381     
  -1.3999999999999999E-004     5.1730816144701708E-002
  -1.3949999999999998E-004    -3.2846645523980096E-002
  -1.3899999999999999E-004   -0.14183268222093398     
  -1.3850000000000001E-004   -0.26947505539649758     
  -1.3799999999999999E-004   -0.40584767852288567     
  -1.3749999999999998E-004   -0.53678576248221055     
  -1.3699999999999997E-004   -0.64432272668212642     
  -1.3649999999999998E-004   -0.70772143412802713     
  -1.3600000000000000E-004   -0.70514731864225055     
  -1.3549999999999999E-004   -0.61596834207800411     
  -1.3499999999999997E-004   -0.42358578519848350     
  -1.3449999999999999E-004   -0.11861200404163166     
  -1.3400000000000000E-004    0.29788067363997295     
  -1.3349999999999999E-004    0.81140045639008107     
  -1.3299999999999998E-004     1.3917865282825865     
  -1.3249999999999997E-004     1.9921249969526447     
  -1.3199999999999998E-004     2.5492780756057840     
  -1.3150000000000000E-004     2.9863963457696427     
  -1.3099999999999999E-004     3.2176767095089085     
  -1.3049999999999997E-004     3.1554270759766054     
  -1.2999999999999999E-004     2.7192927468108254     
  -1.2950000000000000E-004     1.8471623165476876     
  -1.2899999999999999E-004    0.50704426686096848     
  -1.2849999999999998E-004    -1.2911180170139542     
  -1.2799999999999997E-004    -3.4850302022508086     
  -1.2749999999999998E-004    -5.9524048751319070     
  -1.2700000000000000E-004    -8.5076963841758548     
  -1.2649999999999998E-004    -10.904596874526144     
  -1.2599999999999997E-004    -12.845507422474252     
  -1.2549999999999999E-004    -13.998742537082354     
  -1.2500000000000000E-004    -14.023599003157939     
  -1.2449999999999999E-004    -12.602733215648703     
  -1.2399999999999998E-004    -9.4802888542871937     
  -1.2349999999999997E-004    -4.5034158211068291     
  -1.2299999999999998E-004     2.3360719450902723     
  -1.2250000000000000E-004     10.864023248731346     
  -1.2199999999999998E-004     20.694812341764230     
  -1.2149999999999999E-004     31.215501788178805     
  -1.2099999999999999E-004     41.587990528924841     
  -1.2049999999999999E-004     50.772989336214579     
  -1.1999999999999999E-004     57.578558288072529     
  -1.1949999999999999E-004     60.734357162354513     
  -1.1899999999999999E-004     58.990351893830130     
  -1.1849999999999998E-004     51.236773236874122     
  -1.1799999999999998E-004     36.638442222626622     
  -1.1749999999999998E-004     14.775697633221419     
  -1.1699999999999998E-004    -14.220326581790104     
  -1.1649999999999999E-004    -49.550396083405410     
  -1.1599999999999999E-004    -89.662151682876939     
  -1.1549999999999999E-004    -132.21163847539808     
  -1.1499999999999999E-004    -174.08420000894355     
  -1.1449999999999999E-004    -211.48552789670757     
  -1.1399999999999999E-004    -240.10939534369288     
  -1.1349999999999998E-004    -255.38402096801696     
  -1.1299999999999998E-004    -252.79252493427907     
  -1.1249999999999998E-004    -228.25643337073157     
  -1.1199999999999998E-004    -178.56308032280353     
  -1.1149999999999999E-004    -101.81263757750226     
  -1.1099999999999999E-004     2.1487929268028756     
  -1.1049999999999999E-004     131.34345400146836     
  -1.0999999999999999E-004     281.36724040168684     
  -1.0949999999999999E-004     445.22038639300320     
  -1.0899999999999999E-004     613.30538747240143     
  -1.0849999999999998E-004     773.61891926088276     
  -1.0799999999999998E-004     912.16180892040484     
  -1.0749999999999998E-004     1013.5755570116048     
  -1.0699999999999999E-004     1062.0003034003864     
  -1.0649999999999999E-004     1042.1308733071774     
  -1.0599999999999999E-004     940.43223262972538     
  -1.0549999999999999E-004     746.45294728024078     
  -1.0499999999999999E-004     454.16647077981480     
  -1.0449999999999999E-004     63.247153244752646     
  -1.0399999999999998E-004    -419.81455115900019     
  -1.0349999999999998E-004    -980.85988424622019     
  -1.0299999999999998E-004    -1597.5785566492161     
  -1.0249999999999998E-004    -2239.4814101542884     
  -1.0199999999999999E-004    -2868.4076974453083     
  -1.0149999999999999E-004    -3439.6227195554275     
  -1.0099999999999999E-004    -3903.5295806511576     
  -1.0049999999999999E-004    -4207.9787759633455     
  -9.9999999999999991E-005    -4301.1308820574359     
  -9.9499999999999993E-005    -4134.7798284452147     
  -9.8999999999999980E-005    -3667.9986507012195     
  -9.8499999999999982E-005    -2870.9347425809497     
  -9.7999999999999983E-005    -1728.5608008662973     
  -9.7499999999999985E-005    -244.13862457643722     
  -9.6999999999999986E-005     1557.8508220326739     
  -9.6499999999999987E-005     3629.5593125883347     
  -9.5999999999999989E-005     5898.6247311049128     
  -9.5499999999999990E-005     8268.2773068977331     
  -9.4999999999999992E-005     10618.826227145513     
  -9.4499999999999993E-005     12810.683590760944     
  -9.3999999999999981E-005     14688.931049113704     
  -9.3499999999999982E-005     16089.440480242109     
  -9.2999999999999984E-005     16846.409890072642     
  -9.2499999999999985E-005     16801.081542148640     
  -9.1999999999999987E-005     15811.412514084495     
  -9.1499999999999988E-005     13762.255018031765     
  -9.0999999999999989E-005     10575.581979119395     
  -9.0499999999999991E-005     6220.3250142631641     
  -8.9999999999999992E-005     721.15973827536777     
  -8.9499999999999994E-005    -5834.2440144310331     
  -8.8999999999999981E-005    -13290.141438419168     
  -8.8499999999999983E-005    -21420.261291867668     
  -8.7999999999999984E-005    -29928.526129026344     
  -8.7499999999999986E-005    -38453.188389328890     
  -8.6999999999999987E-005    -46574.757038051430     
  -8.6499999999999988E-005    -53827.671698875565     
  -8.5999999999999990E-005    -59715.769052528689     
  -8.5499999999999991E-005    -63731.131455269024     
  -8.4999999999999993E-005    -65376.096153963408     
  -8.4499999999999994E-005    -64187.462709435924     
  -8.3999999999999982E-005    -59762.528562821382     
  -8.3499999999999983E-005    -51785.421313208739     
  -8.2999999999999985E-005    -40053.291803098538     
  -8.2499999999999986E-005    -24500.492714735512     
  -8.1999999999999987E-005    -5220.1297705209035     
  -8.1499999999999989E-005     17518.787050292129     
  -8.0999999999999990E-005     43259.373025191686     
  -8.0499999999999992E-005     71351.524839297490     
  -7.9999999999999993E-005     100953.71991525039     
  -7.9499999999999994E-005     131043.18760984291     
  -7.8999999999999982E-005     160434.48801977097     
  -7.8499999999999984E-005     187806.75047412745     
  -7.7999999999999985E-005     211739.52464752877     
  -7.7499999999999986E-005     230756.61694373545     
  -7.7000000000000001E-005     243376.98911863507     
  -7.6499999999999989E-005     248171.58562738783     
  -7.5999999999999977E-005     243824.58446723747     
  -7.5499999999999992E-005     229196.48656146650     
  -7.4999999999999980E-005     203388.53481664590     
  -7.4499999999999995E-005     165804.00585803346     
  -7.3999999999999983E-005     116206.14918613831     
  -7.3499999999999998E-005     54768.379028943120     
  -7.2999999999999985E-005    -17883.900507691167     
  -7.2500000000000000E-005    -100643.36701207679     
  -7.1999999999999988E-005    -191904.39535277162     
  -7.1499999999999976E-005    -289561.09594979527     
  -7.0999999999999991E-005    -391022.55667682271     
  -7.0499999999999979E-005    -493244.62545055588     
  -6.9999999999999994E-005    -592779.44247933384     
  -6.9499999999999982E-005    -685842.69545687735     
  -6.8999999999999997E-005    -768395.97495390871     
  -6.8499999999999985E-005    -836246.66632164468     
  -6.7999999999999999E-005    -885157.99866660661     
  -6.7499999999999987E-005    -910973.09378519095     
  -6.6999999999999975E-005    -909744.73153723194     
  -6.6499999999999990E-005    -877871.69377553603     
  -6.5999999999999978E-005    -812235.68250636442     
  -6.5499999999999993E-005    -710336.15243350656     
  -6.4999999999999981E-005    -570419.81124314759     
  -6.4499999999999996E-005    -391600.28204491339     
  -6.3999999999999984E-005    -173964.81560505455     
  -6.3499999999999999E-005     81335.468208107588     
  -6.2999999999999986E-005     372013.90504033759     
  -6.2500000000000001E-005     694599.22560162179     
  -6.1999999999999989E-005     1044408.9093780422     
  -6.1499999999999977E-005     1415549.4083186728     
  -6.0999999999999992E-005     1800941.0823078470     
  -6.0499999999999980E-005     2192368.4565327233     
  -5.9999999999999995E-005     2580559.6154055689     
  -5.9499999999999983E-005     2955284.9375708289     
  -5.8999999999999998E-005     3305486.9981252407     
  -5.8499999999999985E-005     3619418.8546442334     
  -5.8000000000000000E-005     3884816.5895666182     
  -5.7499999999999988E-005     4089072.1698421845     
  -5.6999999999999976E-005     4219427.5259061670     
  -5.6499999999999991E-005     4263172.4506224524     
  -5.5999999999999979E-005     4207846.0781355901     
  -5.5499999999999994E-005     4041445.7535207169     
  -5.4999999999999982E-005     3752620.2992172753     
  -5.4499999999999997E-005     3330860.0049073552     
  -5.3999999999999984E-005     2766685.8615543242     
  -5.3499999999999999E-005     2051806.1745699784     
  -5.2999999999999987E-005     1179267.2200211559     
  -5.2500000000000002E-005     143581.66532507524     
  -5.1999999999999990E-005    -1059179.3393966153     
  -5.1499999999999978E-005    -2431295.0242440151     
  -5.0999999999999993E-005    -3973358.2934227027     
  -5.0499999999999981E-005    -5684253.3833690360     
  -4.9999999999999996E-005    -7561152.6852351865     
  -4.9499999999999983E-005    -9599585.5285053924     
  -4.8999999999999998E-005    -11793465.261770239     
  -4.8499999999999986E-005    -14135229.705653228     
  -4.8000000000000001E-005    -16615933.274431303     
  -4.7499999999999989E-005    -19225425.485430069     
  -4.6999999999999977E-005    -21952522.215086054     
  -4.6499999999999992E-005    -24785190.061722409     
  -4.5999999999999980E-005    -27710786.436569024     
  -4.5499999999999995E-005    -30716307.000488423     
  -4.4999999999999983E-005    -33788608.177881576     
  -4.4499999999999997E-005    -36914707.366960898     
  -4.3999999999999985E-005    -40082019.855328090     
  -4.3500000000000000E-005    -43278647.986968040     
  -4.2999999999999988E-005    -46493677.665670790     
  -4.2500000000000003E-005    -49717388.393252864     
  -4.1999999999999991E-005    -52941628.588345438     
  -4.1499999999999979E-005    -56159863.408623531     
  -4.0999999999999994E-005    -59367671.373284228     
  -4.0499999999999982E-005    -62562663.729500800     
  -3.9999999999999996E-005    -65744908.039206743     
  -3.9499999999999984E-005    -68917046.256917462     
  -3.8999999999999999E-005    -72084220.284845173     
  -3.8499999999999987E-005    -75254470.898480207     
  -3.8000000000000002E-005    -78438577.926965788     
  -3.7499999999999990E-005    -81650158.922468692     
  -3.6999999999999978E-005    -84905766.739610463     
  -3.6499999999999993E-005    -88224590.778318211     
  -3.5999999999999981E-005    -91628629.256197453     
  -3.5499999999999996E-005    -95142487.033075005     
  -3.4999999999999983E-005    -98793193.996003419     
  -3.4499999999999998E-005    -102610105.90667899     
  -3.3999999999999986E-005    -106624715.21648087     
  -3.3500000000000001E-005    -110870273.81767072     
  -3.2999999999999989E-005    -115381934.45944928     
  -3.2499999999999977E-005    -120196133.83945820     
  -3.1999999999999992E-005    -125350370.34205419     
  -3.1499999999999980E-005    -130883397.46626438     
  -3.0999999999999995E-005    -136834314.62056160     
  -3.0499999999999982E-005    -143243095.65782404     
  -2.9999999999999997E-005    -150149551.37272811     
  -2.9499999999999985E-005    -157593818.53499660     
  -2.9000000000000000E-005    -165615778.92974469     
  -2.8499999999999988E-005    -174255255.40392208     
  -2.8000000000000003E-005    -183551037.35491312     
  -2.7499999999999991E-005    -193542353.73488599     
  -2.6999999999999979E-005    -204266885.44697818     
  -2.6499999999999994E-005    -215762396.66117403     
  -2.5999999999999981E-005    -228065656.97764474     
  -2.5499999999999996E-005    -241212873.77317104     
  -2.4999999999999984E-005    -255239579.15425885     
  -2.4499999999999999E-005    -270181334.68375117     
  -2.3999999999999987E-005    -286072210.18512732     
  -2.3500000000000002E-005    -302946900.42933154     
  -2.2999999999999990E-005    -320839642.12198150     
  -2.2499999999999978E-005    -339784569.72590798     
  -2.1999999999999993E-005    -359815951.84200287     
  -2.1499999999999980E-005    -380968938.00597262     
  -2.0999999999999995E-005    -403278347.28578061     
  -2.0499999999999983E-005    -426779575.86897749     
  -1.9999999999999998E-005    -451509885.35638249     
  -1.9499999999999986E-005    -477507764.39310145     
  -1.9000000000000001E-005    -504811501.91437757     
  -1.8499999999999989E-005    -533462734.11198187     
  -1.8000000000000004E-005    -563503754.34093499     
  -1.7499999999999992E-005    -594980294.34275174     
  -1.6999999999999980E-005    -627936569.10451365     
  -1.6499999999999994E-005    -662425410.73722613     
  -1.5999999999999982E-005    -698496864.49917853     
  -1.5499999999999997E-005    -736206479.60945725     
  -1.4999999999999985E-005    -775612954.66994226     
  -1.4500000000000000E-005    -816777711.73713529     
  -1.3999999999999988E-005    -859766242.92854834     
  -1.3500000000000003E-005    -904648772.03712022     
  -1.2999999999999991E-005    -951498423.36082220     
  -1.2499999999999979E-005    -1000394369.3741938     
  -1.1999999999999994E-005    -1051416211.4296815     
  -1.1499999999999981E-005    -1104654907.2105594     
  -1.0999999999999996E-005    -1160203021.8939655     
  -1.0499999999999984E-005    -1218155092.5932868     
  -9.9999999999999991E-006    -1278616272.5627630     
  -9.4999999999999870E-006    -1341691989.1452494     
  -9.0000000000000019E-006    -1407496933.8328357     
  -8.4999999999999898E-006    -1476151446.5250015     
  -7.9999999999999776E-006    -1547777443.0664563     
  -7.4999999999999926E-006    -1622503096.6066816     
  -6.9999999999999804E-006    -1700464642.0934889     
  -6.4999999999999954E-006    -1781797584.4751298     
  -5.9999999999999832E-006    -1866648986.8376336     
  -5.4999999999999982E-006    -1955161278.3933978     
  -4.9999999999999860E-006    -2047492546.7146997     
  -4.5000000000000010E-006    -2143790939.3495302     
  -3.9999999999999888E-006    -2244216673.2913666     
  -3.5000000000000038E-006    -2348934796.1145916     
  -2.9999999999999916E-006    -2458107239.1367025     
  -2.4999999999999795E-006    -2571890193.5814090     
  -1.9999999999999944E-006    -2690464407.5541949     
  -1.4999999999999823E-006    -2813990373.5843830     
  -9.9999999999999720E-007    -2942640278.2113218     
  -4.9999999999998505E-007    -3076580233.4784608     
   0.0000000000000000         -3215982263.4929790     
   5.0000000000001215E-007    -3361026489.8521357     
   9.9999999999999720E-007    -3511872678.0765991     
   1.5000000000000094E-006    -3668695509.9816318     
   2.0000000000000215E-006    -3831670892.1793628     
   2.5000000000000066E-006    -4000972665.2352185     
   3.0000000000000187E-006    -4176765602.3688927     
   3.5000000000000038E-006    -4359239507.7977047     
   4.0000000000000159E-006    -4548564494.5497179     
   4.5000000000000010E-006    -4744916081.7740927     
   5.0000000000000131E-006    -4948476637.1830873     
   5.4999999999999982E-006    -5159437354.3099127     
   6.0000000000000103E-006    -5377982847.2787943     
   6.4999999999999954E-006    -5604302954.2971630     
   7.0000000000000075E-006    -5838594021.0966959     
   7.5000000000000197E-006    -6081063663.6574259     
   8.0000000000000047E-006    -6331922550.0277557     
   8.5000000000000169E-006    -6591361961.8877087     
   9.0000000000000019E-006    -6859623902.4682693     
   9.5000000000000141E-006    -7136909625.9081955     
   9.9999999999999991E-006    -7423459068.4939394     
   1.0500000000000011E-005    -7719511503.3718596     
   1.0999999999999996E-005    -8025297697.9281740     
   1.1500000000000008E-005    -8341070159.0988789     
   1.2000000000000021E-005    -8667074005.3299484     
   1.2500000000000006E-005    -9003555094.8409710     
   1.3000000000000018E-005    -9350761783.2292442     
   1.3500000000000003E-005    -9708961590.0462799     
   1.4000000000000015E-005    -10078407651.315239     
   1.4500000000000000E-005    -10459375512.930187     
   1.5000000000000012E-005    -10852072101.667366     
   1.5499999999999997E-005    -11256770587.337185     
   1.6000000000000009E-005    -11673715539.924187     
   1.6499999999999994E-005    -12103151974.340748     
   1.7000000000000007E-005    -12545281385.393175     
   1.7500000000000019E-005    -13000350062.585230     
   1.8000000000000004E-005    -13468586756.090397     
   1.8500000000000016E-005    -13950191437.518282     
   1.9000000000000001E-005    -14445344528.261332     
   1.9500000000000013E-005    -14954262162.221861     
   1.9999999999999998E-005    -15477067537.301008     
   2.0500000000000010E-005    -16013967728.329317     
   2.0999999999999995E-005    -16565103172.199406     
   2.1500000000000008E-005    -17130644394.155695     
   2.2000000000000020E-005    -17710666151.003643     
   2.2500000000000005E-005    -18305314876.629738     
   2.3000000000000017E-005    -18914707254.815178     
   2.3500000000000002E-005    -19538877370.355103     
   2.4000000000000014E-005    -20178045942.204933     
   2.4499999999999999E-005    -20832181224.929585     
   2.5000000000000011E-005    -21501326801.124912     
   2.5499999999999996E-005    -22185625132.894058     
   2.6000000000000009E-005    -22885097250.564137     
   2.6500000000000021E-005    -23599770159.652969     
   2.7000000000000006E-005    -24329680578.416550     
   2.7500000000000018E-005    -25074808596.887569     
   2.8000000000000003E-005    -25835251499.448360     
   2.8500000000000015E-005    -26610877998.993141     
   2.9000000000000000E-005    -27401720278.504288     
   2.9500000000000012E-005    -28207796355.160503     
   2.9999999999999997E-005    -29028953396.998917     
   3.0500000000000010E-005    -29865187484.137966     
   3.0999999999999995E-005    -30716429484.940502     
   3.1500000000000007E-005    -31582502990.005341     
   3.2000000000000019E-005    -32463265257.401726     
   3.2500000000000004E-005    -33358590941.112499     
   3.3000000000000016E-005    -34268343167.859203     
   3.3500000000000001E-005    -35192221221.142555     
   3.4000000000000013E-005    -36129925892.405418     
   3.4499999999999998E-005    -37081327933.881020     
   3.5000000000000010E-005    -38045952767.001205     
   3.5499999999999996E-005    -39023579065.404518     
   3.6000000000000008E-005    -40013653674.041054     
   3.6500000000000020E-005    -41015879999.418373     
   3.7000000000000005E-005    -42029683323.986168     
   3.7500000000000017E-005    -43054616830.278221     
   3.8000000000000002E-005    -44090097263.368637     
   3.8500000000000014E-005    -45135424821.833778     
   3.8999999999999999E-005    -46190060287.770187     
   3.9500000000000011E-005    -47253326415.933685     
   3.9999999999999996E-005    -48324336132.901726     
   4.0500000000000009E-005    -49402635328.714676     
   4.0999999999999994E-005    -50487062701.513580     
   4.1500000000000006E-005    -51577219251.778999     
   4.2000000000000018E-005    -52671780927.179138     
   4.2500000000000003E-005    -53770014072.109680     
   4.3000000000000015E-005    -54871060966.396461     
   4.3500000000000000E-005    -55973790517.307289     
   4.4000000000000012E-005    -57077109251.426689     
   4.4499999999999997E-005    -58180223778.284561     
   4.5000000000000010E-005    -59281780620.883194     
   4.5500000000000022E-005    -60380503657.999374     
   4.5999999999999980E-005    -61475551025.036995     
   4.6499999999999992E-005    -62565442893.171379     
   4.7000000000000004E-005    -63648850489.228714     
   4.7500000000000016E-005    -64724819593.281090     
   4.8000000000000028E-005    -65791658744.918541     
   4.8499999999999986E-005    -66848212559.615738     
   4.8999999999999998E-005    -67892823352.101326     
   4.9500000000000011E-005    -68924174698.586639     
   5.0000000000000023E-005    -69940562392.470062     
   5.0499999999999981E-005    -70940468707.615662     
   5.0999999999999993E-005    -71922358391.715012     
   5.1500000000000005E-005    -72884818771.613541     
   5.2000000000000017E-005    -73825390911.414612     
   5.2500000000000029E-005    -74742825162.608215     
   5.2999999999999987E-005    -75635181238.532196     
   5.3499999999999999E-005    -76500694539.947510     
   5.4000000000000012E-005    -77337322016.489822     
   5.4500000000000024E-005    -78142551481.821777     
   5.4999999999999982E-005    -78915232757.482330     
   5.5499999999999994E-005    -79653345347.287430     
   5.6000000000000006E-005    -80353999978.447723     
   5.6500000000000018E-005    -81015712624.322754     
   5.7000000000000030E-005    -81635998745.777206     
   5.7499999999999988E-005    -82212780443.192871     
   5.8000000000000000E-005    -82744004192.285248     
   5.8500000000000012E-005    -83226878943.250549     
   5.9000000000000025E-005    -83659492624.475891     
   5.9499999999999983E-005    -84039693908.884796     
   5.9999999999999995E-005    -84364868112.084686     
   6.0500000000000007E-005    -84633089143.170395     
   6.1000000000000019E-005    -84841483454.983231     
   6.1500000000000031E-005    -84987653594.488007     
   6.1999999999999989E-005    -85069693382.802048     
   6.2500000000000001E-005    -85084932111.863342     
   6.3000000000000013E-005    -85030809724.567810     
   6.3500000000000026E-005    -84905068775.566681     
   6.3999999999999984E-005    -84705131571.226700     
   6.4499999999999996E-005    -84429281666.818069     
   6.5000000000000008E-005    -84074908585.192444     
   6.5500000000000020E-005    -83638673600.125763     
   6.6000000000000032E-005    -83120076057.370193     
   6.6499999999999990E-005    -82515238880.387390     
   6.7000000000000002E-005    -81822831207.062668     
   6.7500000000000014E-005    -81040522221.332321     
   6.8000000000000027E-005    -80166015518.645981     
   6.8499999999999985E-005    -79196807267.219025     
   6.8999999999999997E-005    -78131481702.771179     
   6.9500000000000009E-005    -76966371625.802383     
   7.0000000000000021E-005    -75701355031.128693     
   7.0499999999999979E-005    -74333544042.925125     
   7.0999999999999991E-005    -72860733113.584198     
   7.1500000000000003E-005    -71281344383.791718     
   7.2000000000000015E-005    -69592606562.534592     