  -1.99999995E-04     0.00000000    
  -1.99500006E-04     0.00000000    
  -1.99000002E-04     0.00000000    
  -1.98499998E-04     0.00000000    
  -1.97999994E-04     0.00000000    
  -1.97500005E-04     0.00000000    
  -1.97000001E-04     0.00000000    
  -1.96499997E-04     0.00000000    
  -1.95999994E-04     0.00000000    
  -1.95500004E-04    -8.23998890E-25
  -1.95000001E-04    -1.26241892E-23
  -1.94499997E-04    -1.14194053E-22
  -1.93999993E-04    -6.97802224E-22
  -1.93500004E-04    -3.32570732E-21
  -1.93000000E-04    -1.30579652E-20
  -1.92499996E-04    -4.37495341E-20
  -1.92000007E-04    -1.27890395E-19
  -1.91500003E-04    -3.30775232E-19
  -1.90999999E-04    -7.62298995E-19
  -1.90499995E-04    -1.56491901E-18
  -1.90000006E-04    -2.83027291E-18
  -1.89500002E-04    -4.36013518E-18
  -1.88999998E-04    -5.15105633E-18
  -1.88499995E-04    -2.47163015E-18
  -1.88000005E-04     9.53230034E-18
  -1.87500002E-04     4.15598304E-17
  -1.86999998E-04     1.10629365E-16
  -1.86499994E-04     2.40031852E-16
  -1.86000005E-04     4.55567671E-16
  -1.85500001E-04     7.74913068E-16
  -1.84999997E-04     1.18641734E-15
  -1.84499993E-04     1.61424183E-15
  -1.84000004E-04     1.86940404E-15
  -1.83500000E-04     1.59213215E-15
  -1.82999996E-04     2.00580446E-16
  -1.82500007E-04    -3.12565597E-15
  -1.82000003E-04    -9.38341744E-15
  -1.81500000E-04    -1.95481821E-14
  -1.80999996E-04    -3.41789653E-14
  -1.80500007E-04    -5.27776302E-14
  -1.80000003E-04    -7.28981288E-14
  -1.79499999E-04    -8.90802528E-14
  -1.78999995E-04    -9.18108227E-14
  -1.78500006E-04    -6.68711776E-14
  -1.78000002E-04     4.38546311E-15
  -1.77499998E-04     1.43137130E-13
  -1.76999994E-04     3.68835062E-13
  -1.76500005E-04     6.91953927E-13
  -1.76000001E-04     1.10351951E-12
  -1.75499998E-04     1.56191737E-12
  -1.74999994E-04     1.97861324E-12
  -1.74500005E-04     2.20589519E-12
  -1.74000001E-04     2.03127684E-12
  -1.73499997E-04     1.18494353E-12
  -1.72999993E-04    -6.32914457E-13
  -1.72500004E-04    -3.69794169E-12
  -1.72000000E-04    -8.17628517E-12
  -1.71499996E-04    -1.40082486E-11
  -1.71000007E-04    -2.07688918E-11
  -1.70500003E-04    -2.75235459E-11
  -1.69999999E-04    -3.27087871E-11
  -1.69499996E-04    -3.40814876E-11
  -1.69000006E-04    -2.87886607E-11
  -1.68500002E-04    -1.36154482E-11
  -1.67999999E-04     1.45395180E-11
  -1.67499995E-04     5.79299768E-11
  -1.67000006E-04     1.16978843E-10
  -1.66500002E-04     1.89108118E-10
  -1.65999998E-04     2.67523087E-10
  -1.65499994E-04     3.40168310E-10
  -1.65000005E-04     3.89161453E-10
  -1.64500001E-04     3.91067095E-10
  -1.63999997E-04     3.18403692E-10
  -1.63499994E-04     1.42720724E-10
  -1.63000004E-04    -1.60513575E-10
  -1.62500000E-04    -6.05251682E-10
  -1.61999997E-04    -1.18675003E-09
  -1.61499993E-04    -1.87279059E-09
  -1.61000004E-04    -2.59550914E-09
  -1.60500000E-04    -3.24557514E-09
  -1.59999996E-04    -3.67087249E-09
  -1.59500007E-04    -3.68202913E-09
  -1.59000003E-04    -3.06699444E-09
  -1.58499999E-04    -1.61635338E-09
  -1.57999995E-04     8.40132131E-10
  -1.57500006E-04     4.38674475E-09
  -1.57000002E-04     8.96801744E-09
  -1.56499998E-04     1.43338523E-08
  -1.55999995E-04     1.99917363E-08
  -1.55500005E-04     2.51768313E-08
  -1.55000002E-04     2.88523090E-08
  -1.54499998E-04     2.97525311E-08
  -1.53999994E-04     2.64799613E-08
  -1.53500005E-04     1.76627761E-08
  -1.53000001E-04     2.17471019E-09
  -1.52499997E-04    -2.05932214E-08
  -1.51999993E-04    -5.04264577E-08
  -1.51500004E-04    -8.59800764E-08
  -1.51000000E-04    -1.24515211E-07
  -1.50499996E-04    -1.61733084E-07
  -1.50000007E-04    -1.91768947E-07
  -1.49500003E-04    -2.07406046E-07
  -1.49000000E-04    -2.00561800E-07
  -1.48499996E-04    -1.63077019E-07
  -1.48000006E-04    -8.78156854E-08
  -1.47500003E-04     2.99743839E-08
  -1.46999999E-04     1.91120293E-07
  -1.46499995E-04     3.90950987E-07
  -1.46000006E-04     6.17894557E-07
  -1.45500002E-04     8.52482799E-07
  -1.44999998E-04     1.06704454E-06
  -1.44499994E-04     1.22634935E-06
  -1.44000005E-04     1.28945896E-06
  -1.43500001E-04     1.21292908E-06
  -1.42999997E-04     9.55436462E-07
  -1.42499994E-04     4.83677013E-07
  -1.42000004E-04    -2.20737846E-07
  -1.41500001E-04    -1.15398120E-06
  -1.40999997E-04    -2.28299314E-06
  -1.40499993E-04    -3.53976998E-06
  -1.40000004E-04    -4.81801180E-06
  -1.39500000E-04    -5.97328381E-06
  -1.38999996E-04    -6.82774635E-06
  -1.38500007E-04    -7.18031743E-06
  -1.38000003E-04    -6.82270502E-06
  -1.37499999E-04    -5.56122905E-06
  -1.36999995E-04    -3.24361577E-06
  -1.36500006E-04     2.10835267E-07
  -1.36000002E-04     4.78001539E-06
  -1.35499999E-04     1.03102648E-05
  -1.34999995E-04     1.64935136E-05
  -1.34500006E-04     2.28552981E-05
  -1.34000002E-04     2.87571529E-05
  -1.33499998E-04     3.34180586E-05
  -1.32999994E-04     3.59572186E-05
  -1.32500005E-04     3.54599142E-05
  -1.32000001E-04     3.10653741E-05
  -1.31499997E-04     2.20735510E-05
  -1.30999993E-04     8.06421758E-06
  -1.30500004E-04    -1.09803341E-05
  -1.30000000E-04    -3.45617336E-05
  -1.29499997E-04    -6.15746831E-05
  -1.28999993E-04    -9.02538231E-05
  -1.28500003E-04    -1.18175376E-04
  -1.28000000E-04    -1.42324745E-04
  -1.27499996E-04    -1.59242845E-04
  -1.27000007E-04    -1.65254416E-04
  -1.26500003E-04    -1.56776077E-04
  -1.25999999E-04    -1.30696353E-04
  -1.25499995E-04    -8.48004638E-05
  -1.25000006E-04    -1.82184449E-05
  -1.24500002E-04     6.81485326E-05
  -1.23999998E-04     1.71270352E-04
  -1.23499995E-04     2.85744230E-04
  -1.23000005E-04     4.03723621E-04
  -1.22500001E-04     5.15059161E-04
  -1.21999998E-04     6.07696245E-04
  -1.21500001E-04     6.68341178E-04
  -1.20999997E-04     6.83408696E-04
  -1.20500001E-04     6.40205457E-04
  -1.19999997E-04     5.28318691E-04
  -1.19500000E-04     3.41099949E-04
  -1.18999997E-04     7.71522245E-05
  -1.18500000E-04    -2.58337473E-04
  -1.18000004E-04    -6.52559276E-04
  -1.17500000E-04    -1.08449627E-03
  -1.17000003E-04    -1.52496190E-03
  -1.16499999E-04    -1.93736493E-03
  -1.16000003E-04    -2.27930327E-03
  -1.15499999E-04    -2.50502303E-03
  -1.15000003E-04    -2.56867893E-03
  -1.14499999E-04    -2.42832140E-03
  -1.14000002E-04    -2.05036136E-03
  -1.13499998E-04    -1.41424884E-03
  -1.13000002E-04    -5.16986242E-04
  -1.12499998E-04     6.22910971E-04
  -1.12000002E-04     1.96251483E-03
  -1.11499998E-04     3.43306945E-03
  -1.11000001E-04     4.94045112E-03
  -1.10499997E-04     6.36789016E-03
  -1.10000001E-04     7.58110825E-03
  -1.09499997E-04     8.43592361E-03
  -1.09000001E-04     8.78818426E-03
  -1.08499997E-04     8.50560609E-03
  -1.08000000E-04     7.48095196E-03
  -1.07499996E-04     5.64562809E-03
  -1.07000000E-04     2.98282434E-03
  -1.06500003E-04    -4.61166812E-04
  -1.06000000E-04    -4.56844177E-03
  -1.05500003E-04    -9.14521981E-03
  -1.04999999E-04    -1.39227677E-02
  -1.04500003E-04    -1.85645055E-02
  -1.03999999E-04    -2.26796083E-02
  -1.03500002E-04    -2.58435421E-02
  -1.02999998E-04    -2.76248101E-02
  -1.02500002E-04    -2.76171621E-02
  -1.01999998E-04    -2.54756436E-02
  -1.01500002E-04    -2.09544804E-02
  -1.00999998E-04    -1.39440494E-02
  -1.00500001E-04    -4.50422475E-03
  -9.99999975E-05     7.10916286E-03
  -9.95000009E-05     2.04277840E-02
  -9.89999971E-05     3.47675085E-02
  -9.85000006E-05     4.92399968E-02
  -9.79999968E-05     6.27818927E-02
  -9.75000003E-05     7.42016137E-02
  -9.69999965E-05     8.22437108E-02
  -9.64999999E-05     8.56691375E-02
  -9.60000034E-05     8.33483487E-02
  -9.54999996E-05     7.43622482E-02
  -9.50000031E-05     5.81068732E-02
  -9.44999992E-05     3.43921334E-02
  -9.40000027E-05     3.53076123E-03
  -9.34999989E-05    -3.35946605E-02
  -9.30000024E-05    -7.54906312E-02
  -9.24999986E-05   -0.120048180    
  -9.20000020E-05   -0.164578676    
  -9.14999982E-05   -0.205895662    
  -9.10000017E-05   -0.240445152    
  -9.04999979E-05   -0.264481574    
  -9.00000014E-05   -0.274288714    
  -8.94999976E-05   -0.266436249    
  -8.90000010E-05   -0.238060817    
  -8.84999972E-05   -0.187161401    
  -8.80000007E-05   -0.112885863    
  -8.74999969E-05    -1.57959163E-02
  -8.70000003E-05    0.101914503    
  -8.64999965E-05    0.236266717    
  -8.60000000E-05    0.381434858    
  -8.55000035E-05    0.529782891    
  -8.49999997E-05    0.672032714    
  -8.45000031E-05    0.797553837    
  -8.39999993E-05    0.894794941    
  -8.35000028E-05    0.951845884    
  -8.29999990E-05    0.957120895    
  -8.25000025E-05    0.900135815    
  -8.19999987E-05    0.772367358    
  -8.15000021E-05    0.568126082    
  -8.09999983E-05    0.285427451    
  -8.05000018E-05    -7.32247904E-02
  -7.99999980E-05   -0.500164568    
  -7.95000014E-05   -0.982106388    
  -7.89999976E-05    -1.49991584    
  -7.85000011E-05    -2.02869892    
  -7.79999973E-05    -2.53824449    
  -7.75000008E-05    -2.99384308    
  -7.69999970E-05    -3.35752296    
  -7.65000004E-05    -3.58967876    
  -7.59999966E-05    -3.65107250    
  -7.55000001E-05    -3.50517058    
  -7.50000036E-05    -3.12071586    
  -7.44999998E-05    -2.47444749    
  -7.40000032E-05    -1.55383325    
  -7.34999994E-05   -0.359674782    
  -7.30000029E-05     1.09159899    
  -7.24999991E-05     2.76610398    
  -7.20000025E-05     4.61134720    
  -7.14999987E-05     6.55583239    
  -7.10000022E-05     8.50972843    
  -7.04999984E-05     10.3665552    
  -7.00000019E-05     12.0060959    
  -6.94999981E-05     13.2984800    
  -6.90000015E-05     14.1094503    
  -6.84999977E-05     14.3067846    
  -6.80000012E-05     13.7675419    
  -6.74999974E-05     12.3860922    
  -6.70000009E-05     10.0824690    
  -6.64999970E-05     6.81081533    
  -6.60000005E-05     2.56730652    
  -6.54999967E-05    -2.60262394    
  -6.50000002E-05    -8.59857941    
  -6.44999964E-05    -15.2612514    
  -6.39999998E-05    -22.3707924    
  -6.35000033E-05    -29.6478996    
  -6.29999995E-05    -36.7580795    
  -6.25000030E-05    -43.3190842    
  -6.19999992E-05    -48.9118690    
  -6.15000026E-05    -53.0950089    
  -6.09999988E-05    -55.4223289    
  -6.04999987E-05    -55.4631844    
  -5.99999985E-05    -52.8254623    
  -5.94999983E-05    -47.1797943    
  -5.90000018E-05    -38.2846756    
  -5.85000016E-05    -26.0111084    
  -5.80000014E-05    -10.3658648    
  -5.75000013E-05     8.48821926    
  -5.70000011E-05     30.2157040    
  -5.65000009E-05     54.2975159    
  -5.60000008E-05     80.0266495    
  -5.55000006E-05     106.510933    
  -5.50000004E-05     132.684952    
  -5.45000003E-05     157.330475    
  -5.40000001E-05     179.107025    
  -5.34999999E-05     196.591492    
  -5.29999998E-05     208.326645    
  -5.24999996E-05     212.878845    
  -5.19999994E-05     208.901566    
  -5.14999992E-05     195.205002    
  -5.09999991E-05     170.828674    
  -5.04999989E-05     135.114624    
  -4.99999987E-05     87.7777100    
  -4.94999986E-05     28.9728756    
  -4.89999984E-05    -40.6500130    
  -4.84999982E-05    -119.899384    
  -4.80000017E-05    -207.012711    
  -4.75000015E-05    -299.645874    
  -4.70000014E-05    -394.881897    
  -4.65000012E-05    -489.266205    
  -4.60000010E-05    -578.864746    
  -4.55000009E-05    -659.350098    
  -4.50000007E-05    -726.113403    
  -4.45000005E-05    -774.403625    
  -4.40000003E-05    -799.489319    
  -4.35000002E-05    -796.843140    
  -4.30000000E-05    -762.342590    
  -4.24999998E-05    -692.482605    
  -4.19999997E-05    -584.594177    
  -4.14999995E-05    -437.065399    
  -4.09999993E-05    -249.545456    
  -4.04999992E-05    -23.1357479    
  -3.99999990E-05     239.446136    
  -3.94999988E-05     533.740479    
  -3.89999987E-05     853.466736    
  -3.84999985E-05     1190.49719    
  -3.79999983E-05     1534.89502    
  -3.75000018E-05     1875.01599    
  -3.70000016E-05     2197.70215    
  -3.65000014E-05     2488.52783    
  -3.60000013E-05     2732.14429    
  -3.55000011E-05     2912.70312    
  -3.50000009E-05     3014.33789    
  -3.45000008E-05     3021.72437    
  -3.40000006E-05     2920.69775    
  -3.35000004E-05     2698.90356    
  -3.30000003E-05     2346.48193    
  -3.25000001E-05     1856.75635    
  -3.19999999E-05     1226.90027    
  -3.14999997E-05     458.574768    
  -3.09999996E-05    -441.513031    
  -3.04999994E-05    -1461.14355    
  -2.99999992E-05    -2582.23438    
  -2.95000009E-05    -3780.64941    
  -2.90000007E-05    -5026.17920    
  -2.85000006E-05    -6282.72217    
  -2.80000004E-05    -7508.69287    
  -2.75000002E-05    -8657.63672    
  -2.70000000E-05    -9679.14160    
  -2.64999999E-05    -10519.9512    
  -2.59999997E-05    -11125.3330    
  -2.54999995E-05    -11440.7080    
  -2.49999994E-05    -11413.4336    
  -2.44999992E-05    -10994.8340    
  -2.40000008E-05    -10142.3027    
  -2.35000007E-05    -8821.53320    
  -2.30000005E-05    -7008.78711    
  -2.25000003E-05    -4693.06494    
  -2.20000002E-05    -1878.24182    
  -2.15000000E-05     1415.04553    
  -2.09999998E-05     5147.76172    
  -2.04999997E-05     9261.22852    
  -1.99999995E-05     13676.2803    
  -1.94999993E-05     18293.0117    
  -1.89999992E-05     22991.0684    
  -1.85000008E-05     27630.7012    
  -1.80000006E-05     32054.4805    
  -1.75000005E-05     36089.7539    
  -1.70000003E-05     39552.0000    
  -1.65000001E-05     42248.8906    
  -1.60000000E-05     43985.1875    
  -1.54999998E-05     44568.2266    
  -1.49999996E-05     43814.1953    
  -1.45000004E-05     41554.9531    
  -1.40000002E-05     37644.9688    
  -1.35000000E-05     31968.9941    
  -1.29999999E-05     24449.2402    
  -1.24999997E-05     15052.8965    
  -1.20000004E-05     3798.82642    
  -1.15000003E-05    -9235.96582    
  -1.10000001E-05    -23911.1816    
  -1.04999999E-05    -40018.9219    
  -9.99999975E-06    -57280.8672    
  -9.49999958E-06    -75347.2578    
  -9.00000032E-06    -93797.6641    
  -8.50000015E-06    -112143.805    
  -7.99999998E-06    -129834.945    
  -7.49999981E-06    -146265.125    
  -7.00000010E-06    -160783.688    
  -6.49999993E-06    -172707.344    
  -6.00000021E-06    -181335.625    
  -5.50000004E-06    -185967.844    
  -4.99999987E-06    -185922.719    
  -4.50000016E-06    -180559.500    
  -3.99999999E-06    -169300.703    
  -3.50000005E-06    -151656.062    
  -3.00000011E-06    -127246.453    
  -2.49999994E-06    -95828.4062    
  -1.99999999E-06    -57317.4766    
  -1.50000005E-06    -11810.1475    
  -9.99999997E-07     40396.0156    
  -4.99999999E-07     98785.0859    
   0.00000000         162610.188    
   4.99999999E-07     230883.344    
   9.99999997E-07     302372.406    
   1.50000005E-06     375602.875    
   1.99999999E-06     448866.188    
   2.49999994E-06     520234.406    
   3.00000011E-06     587583.062    
   3.50000005E-06     648620.938    
   3.99999999E-06     700927.438    
   4.50000016E-06     741997.375    
   4.99999987E-06     769294.562    
   5.50000004E-06     780307.438    
   6.00000021E-06     772618.688    
   6.49999993E-06     743973.062    
   7.00000010E-06     692351.375    
   7.49999981E-06     616052.000    
   7.99999998E-06     513765.625    
   8.50000015E-06     384659.469    
   9.00000032E-06     228452.453    
   9.49999958E-06     45493.1992    
   9.99999975E-06    -163175.641    
   1.04999999E-05    -395745.844    
   1.10000001E-05    -649599.938    
   1.15000003E-05    -921259.688    
   1.20000004E-05    -1206359.00    
   1.24999997E-05    -1499625.50    
   1.29999999E-05    -1794879.88    
   1.35000000E-05    -2085049.88    
   1.40000002E-05    -2362207.50    
   1.45000004E-05    -2617611.50    
   1.49999996E-05    -2841784.25    
   1.54999998E-05    -3024597.25    
   1.60000000E-05    -3155376.50    
   1.65000001E-05    -3223011.75    
   1.70000003E-05    -3216138.25    
   1.75000005E-05    -3123229.75    
   1.80000006E-05    -2932814.00    
   1.85000008E-05    -2633605.00    
   1.89999992E-05    -2214725.50    
   1.94999993E-05    -1665864.25    
   1.99999995E-05    -977466.312    
   2.04999997E-05    -140936.078    
   2.09999998E-05     851222.312    
   2.15000000E-05     2005220.25    
   2.20000002E-05     3325834.25    
   2.25000003E-05     4816261.00    
   2.30000005E-05     6478016.00    
   2.35000007E-05     8310880.00    
   2.40000008E-05     10312806.0    
   2.44999992E-05     12479873.0    
   2.49999994E-05     14806351.0    
   2.54999995E-05     17284694.0    
   2.59999997E-05     19905636.0    
   2.64999999E-05     22658290.0    
   2.70000000E-05     25530348.0    
   2.75000002E-05     28508198.0    
   2.80000004E-05     31577164.0    
   2.85000006E-05     34721816.0    
   2.90000007E-05     37926208.0    
   2.95000009E-05     41174080.0    
   2.99999992E-05     44449328.0    
   3.04999994E-05     47736336.0    
   3.09999996E-05     51020372.0    
   3.14999997E-05     54287668.0    
   3.19999999E-05     57526088.0    
   3.25000001E-05     60725464.0    
   3.30000003E-05     63877704.0    
   3.35000004E-05     66977368.0    
   3.40000006E-05     70021744.0    
   3.45000008E-05     73011360.0    
   3.50000009E-05     75949984.0    
   3.55000011E-05     78845016.0    
   3.60000013E-05     81707384.0    
   3.65000014E-05     84552040.0    
   3.70000016E-05     87397640.0    
   3.75000018E-05     90266480.0    
   3.79999983E-05     93184920.0    
   3.84999985E-05     96182760.0    
   3.89999987E-05     99293608.0    
   3.94999988E-05     102553856.    
   3.99999990E-05     106003200.    
   4.04999992E-05     109684104.    
   4.09999993E-05     113641200.    
   4.14999995E-05     117921208.    
   4.19999997E-05     122572576.    
   4.24999998E-05     127644280.    
   4.30000000E-05     133186704.    
   4.35000002E-05     139250096.    
   4.40000003E-05     145884736.    
   4.45000005E-05     153139872.    
   4.50000007E-05     161064208.    
   4.55000009E-05     169704608.    
   4.60000010E-05     179106656.    
   4.65000012E-05     189313408.    
   4.70000014E-05     200365888.    
   4.75000015E-05     212301840.    
   4.80000017E-05     225157584.    
   4.84999982E-05     238965184.    
   4.89999984E-05     253756128.    
   4.94999986E-05     269556480.    
   4.99999987E-05     286391840.    
   5.04999989E-05     304284096.    
   5.09999991E-05     323253408.    
   5.14999992E-05     343317888.    
   5.19999994E-05     364495264.    
   5.24999996E-05     386800192.    
   5.29999998E-05     410248768.    
   5.34999999E-05     434855104.    
   5.40000001E-05     460635520.    
   5.45000003E-05     487605568.    
   5.50000004E-05     515784032.    
   5.55000006E-05     545192448.    
   5.60000008E-05     575852416.    
   5.65000009E-05     607791488.    
   5.70000011E-05     641039296.    
   5.75000013E-05     675631552.    
   5.80000014E-05     711606720.    
   5.85000016E-05     749010432.    
   5.90000018E-05     787894720.    
   5.94999983E-05     828313920.    
   5.99999985E-05     870333248.    
   6.04999987E-05     914020288.    
   6.09999988E-05     959452544.    
   6.15000026E-05     1.00671238E+09
   6.19999992E-05     1.05588723E+09
   6.25000030E-05     1.10707699E+09
   6.29999995E-05     1.16038093E+09
   6.35000033E-05     1.21590912E+09
   6.39999998E-05     1.27377382E+09
   6.44999964E-05     1.33409370E+09
   6.50000002E-05     1.39699789E+09
   6.54999967E-05     1.46261133E+09
   6.60000005E-05     1.53106931E+09
   6.64999970E-05     1.60250829E+09
   6.70000009E-05     1.67706867E+09
   6.74999974E-05     1.75489510E+09
   6.80000012E-05     1.83613350E+09
   6.84999977E-05     1.92092954E+09
   6.90000015E-05     2.00942886E+09
   6.94999981E-05     2.10178790E+09
   7.00000019E-05     2.19815168E+09
   7.04999984E-05     2.29867341E+09
   7.10000022E-05     2.40350029E+09
   7.14999987E-05     2.51278259E+09
   7.20000025E-05     2.62666675E+09
   7.24999991E-05     2.74530048E+09
   7.30000029E-05     2.86883507E+09
   7.34999994E-05     2.99741363E+09
   7.40000032E-05     3.13118310E+09
   7.44999998E-05     3.27028173E+09
   7.50000036E-05     3.41486131E+09
   7.55000001E-05     3.56505626E+09
   7.59999966E-05     3.72102042E+09
   7.65000004E-05     3.88288563E+09
   7.69999970E-05     4.05080192E+09
   7.75000008E-05     4.22491597E+09
   7.79999973E-05     4.40537702E+09
   7.85000011E-05     4.59232563E+09
   7.89999976E-05     4.78591181E+09
   7.95000014E-05     4.98630042E+09
   7.99999980E-05     5.19362970E+09
   8.05000018E-05     5.40806349E+09
   8.09999983E-05     5.62977946E+09
   8.15000021E-05     5.85893222E+09
   8.19999987E-05     6.09568666E+09
   8.25000025E-05     6.34022195E+09
   8.29999990E-05     6.59273062E+09
   8.35000028E-05     6.85337702E+09
   8.39999993E-05     7.12235725E+09
   8.45000031E-05     7.39986534E+09
   8.49999997E-05     7.68609280E+09
   8.55000035E-05     7.98124083E+09
   8.60000000E-05     8.28549222E+09
   8.64999965E-05     8.59906765E+09
   8.70000003E-05     8.92217549E+09
   8.74999969E-05     9.25503795E+09
   8.80000007E-05     9.59782093E+09
   8.84999972E-05     9.95077530E+09
   8.90000010E-05     1.03140557E+10
   8.94999976E-05     1.06879171E+10
   9.00000014E-05     1.10725622E+10
   9.04999979E-05     1.14681733E+10
   9.10000017E-05     1.18749389E+10
   9.14999982E-05     1.22930473E+10
   9.20000020E-05     1.27226839E+10
   9.24999986E-05     1.31640197E+10
   9.30000024E-05     1.36172247E+10
   9.34999989E-05     1.40824545E+10
   9.40000027E-05     1.45598669E+10
   9.44999992E-05     1.50495887E+10
   9.50000031E-05     1.55517297E+10
   9.54999996E-05     1.60664095E+10
   9.60000034E-05     1.65937121E+10
   9.64999999E-05     1.71337472E+10
   9.69999965E-05     1.76865915E+10
   9.75000003E-05     1.82523023E+10
   9.79999968E-05     1.88308705E+10
   9.85000006E-05     1.94223800E+10
   9.89999971E-05     2.00268247E+10
   9.95000009E-05     2.06442148E+10
   9.99999975E-05     2.12745646E+10
   1.00500001E-04     2.19178025E+10
   1.00999998E-04     2.25738629E+10
   1.01500002E-04     2.32427295E+10
   1.01999998E-04     2.39243387E+10
   1.02500002E-04     2.46184980E+10
   1.02999998E-04     2.53251789E+10
   1.03500002E-04     2.60442911E+10
   1.03999999E-04     2.67755786E+10
   1.04500003E-04     2.75189187E+10
   1.04999999E-04     2.82742190E+10
   1.05500003E-04     2.90411377E+10
   1.06000000E-04     2.98196193E+10
   1.06500003E-04     3.06092421E+10
   1.07000000E-04     3.14098299E+10
   1.07499996E-04     3.22211267E+10
   1.08000000E-04     3.30427822E+10
   1.08499997E-04     3.38744566E+10
   1.09000001E-04     3.47158282E+10
   1.09499997E-04     3.55665306E+10
   1.10000001E-04     3.64261253E+10
   1.10499997E-04     3.72940268E+10
   1.11000001E-04     3.81700506E+10
   1.11499998E-04     3.90535209E+10
   1.12000002E-04     3.99437865E+10
   1.12499998E-04     4.08404828E+10
   1.13000002E-04     4.17429381E+10
   1.13499998E-04     4.26504970E+10
   1.14000002E-04     4.35625288E+10
   1.14499999E-04     4.44782182E+10
   1.15000003E-04     4.53969388E+10
   1.15499999E-04     4.63178301E+10
   1.16000003E-04     4.72400691E+10
   1.16499999E-04     4.81628447E+10
   1.17000003E-04     4.90850918E+10
   1.17500000E-04     5.00058153E+10
   1.18000004E-04     5.09240812E+10
   1.18500000E-04     5.18389514E+10
   1.18999997E-04     5.27492547E+10
   1.19500000E-04     5.36538399E+10
   1.19999997E-04     5.45515725E+10
   1.20500001E-04     5.54411786E+10
   1.20999997E-04     5.63216056E+10
   1.21500001E-04     5.71914035E+10
   1.21999998E-04     5.80494950E+10
   1.22500001E-04     5.88943483E+10
   1.23000005E-04     5.97245911E+10
   1.23499995E-04     6.05389947E+10
   1.23999998E-04     6.13357978E+10
   1.24500002E-04     6.21136937E+10
   1.25000006E-04     6.28711834E+10
   1.25499995E-04     6.36065300E+10
   1.25999999E-04     6.43183493E+10
   1.26500003E-04     6.50045932E+10
   1.27000007E-04     6.56642540E+10
   1.27499996E-04     6.62953820E+10
   1.28000000E-04     6.68961260E+10
   1.28500003E-04     6.74650399E+10
   1.28999993E-04     6.80002478E+10
   1.29499997E-04     6.84999025E+10
   1.30000000E-04     6.89621811E+10
   1.30500004E-04     6.93854126E+10
   1.30999993E-04     6.97677660E+10
   1.31499997E-04     7.01073572E+10
   1.32000001E-04     7.04017531E+10
   1.32500005E-04     7.06496676E+10
   1.32999994E-04     7.08486513E+10
   1.33499998E-04     7.09974917E+10
   1.34000002E-04     7.10938542E+10
   1.34500006E-04     7.11354941E+10
   1.34999995E-04     7.11207567E+10
   1.35499999E-04     7.10472417E+10
   1.36000002E-04     7.09139907E+10
   1.36500006E-04     7.07180298E+10
   1.36999995E-04     7.04576143E+10
   1.37499999E-04     7.01309010E+10
   1.38000003E-04     6.97359319E+10
   1.38500007E-04     6.92698235E+10
   1.38999996E-04     6.87319450E+10
   1.39500000E-04     6.81197199E+10
   1.40000004E-04     6.74314445E+10
   1.40499993E-04     6.66648371E+10
   1.40999997E-04     6.58188411E+10
   1.41500001E-04     6.48905933E+10
   1.42000004E-04     6.38794752E+10
   1.42499994E-04     6.27825377E+10
   1.42999997E-04     6.15983227E+10
   1.43500001E-04     6.03260150E+10
   1.44000005E-04     5.89632758E+10
   1.44499994E-04     5.75091466E+10
   1.44999998E-04     5.59610470E+10
   1.45500002E-04     5.43183954E+10
   1.46000006E-04     5.25795246E+10
   1.46499995E-04     5.07442831E+10
   1.46999999E-04     4.88096317E+10
   1.47500003E-04     4.67754435E+10
   1.48000006E-04     4.46415790E+10
   1.48499996E-04     4.24050483E+10
   1.49000000E-04     4.00668180E+10
   1.49500003E-04     3.76250900E+10
   1.50000007E-04     3.50787215E+10
   1.50499996E-04     3.24291768E+10
   1.51000000E-04     2.96736174E+10
   1.51500004E-04     2.68133990E+10
   1.51999993E-04     2.38482248E+10
   1.52499997E-04     2.07761060E+10
   1.53000001E-04     1.75993897E+10
   1.53500005E-04     1.43162010E+10
   1.53999994E-04     1.09291192E+10
   1.54499998E-04     7.43673088E+09
   1.55000002E-04     3.83988429E+09
   1.55500005E-04     139503808.    
   1.55999995E-04    -3.66366515E+09
   1.56499998E-04    -7.56905984E+09
   1.57000002E-04    -1.15749274E+10
   1.57500006E-04    -1.56809841E+10
   1.57999995E-04    -1.98851891E+10
   1.58499999E-04    -2.41863332E+10
   1.59000003E-04    -2.85826970E+10
   1.59500007E-04    -3.30719478E+10
   1.59999996E-04    -3.76536515E+10
   1.60500000E-04    -4.23244636E+10
   1.61000004E-04    -4.70816522E+10
   1.61499993E-04    -5.19229071E+10
   1.61999997E-04    -5.68456806E+10
   1.62500000E-04    -6.18482442E+10
   1.63000004E-04    -6.69261496E+10
   1.63499994E-04    -7.20766566E+10
   1.63999997E-04    -7.72977132E+10
   1.64500001E-04    -8.25852559E+10
   1.65000005E-04    -8.79344927E+10
   1.65499994E-04    -9.33427282E+10
   1.65999998E-04    -9.88050964E+10
   1.66500002E-04    -1.04320098E+11
   1.67000006E-04    -1.09879771E+11
   1.67499995E-04    -1.15482763E+11
   1.67999999E-04    -1.21123578E+11
   1.68500002E-04    -1.26797439E+11
   1.69000006E-04    -1.32498178E+11
   1.69499996E-04    -1.38222928E+11
   1.69999999E-04    -1.43964865E+11
   1.70500003E-04    -1.49719597E+11
   1.71000007E-04    -1.55480900E+11
   1.71499996E-04    -1.61244266E+11
   1.72000000E-04    -1.67003324E+11
   1.72500004E-04    -1.72753125E+11
   1.72999993E-04    -1.78485969E+11
   1.73499997E-04    -1.84198873E+11
   1.74000001E-04    -1.89884563E+11
   1.74500005E-04    -1.95535192E+11
   1.74999994E-04    -2.01144648E+11
   1.75499998E-04    -2.06708916E+11
   1.76000001E-04    -2.12219904E+11
   1.76500005E-04    -2.17671090E+11
   1.76999994E-04    -2.23056839E+11
   1.77499998E-04    -2.28367958E+11
   1.78000002E-04    -2.33599123E+11
   1.78500006E-04    -2.38744994E+11
   1.78999995E-04    -2.43796984E+11
   1.79499999E-04    -2.48749375E+11
   1.80000003E-04    -2.53595353E+11
   1.80500007E-04    -2.58325348E+11
   1.80999996E-04    -2.62935003E+11
   1.81500000E-04    -2.67417321E+11
   1.82000003E-04    -2.71766438E+11
   1.82500007E-04    -2.75974586E+11
   1.82999996E-04    -2.80036213E+11
   1.83500000E-04    -2.83942453E+11
   1.84000004E-04    -2.87686099E+11
   1.84499993E-04    -2.91262464E+11
   1.84999997E-04    -2.94665257E+11
   1.85500001E-04    -2.97889694E+11
   1.86000005E-04    -3.00926730E+11
   1.86499994E-04    -3.03771156E+11
   1.86999998E-04    -3.06416681E+11
   1.87500002E-04    -3.08859437E+11
   1.88000005E-04    -3.11091855E+11
   1.88499995E-04    -3.13108627E+11
   1.88999998E-04    -3.14905362E+11
   1.89500002E-04    -3.16474163E+11
   1.90000006E-04    -3.17812244E+11
   1.90499995E-04    -3.18915412E+11
   1.90999999E-04    -3.19777407E+11
   1.91500003E-04    -3.20395215E+11
   1.92000007E-04    -3.20763691E+11
   1.92499996E-04    -3.20879362E+11
   1.93000000E-04    -3.20737444E+11
   1.93500004E-04    -3.20335020E+11
   1.93999993E-04    -3.19668584E+11
   1.94499997E-04    -3.18736400E+11
   1.95000001E-04    -3.17533684E+11
   1.95500004E-04    -3.16058403E+11
   1.95999994E-04    -3.14308952E+11
   1.96499997E-04    -3.12283628E+11
   1.97000001E-04    -3.09980070E+11
   1.97500005E-04    -3.07396739E+11
   1.97999994E-04    -3.04532554E+11
   1.98499998E-04    -3.01388333E+11
   1.99000002E-04    -2.97962537E+11
   1.99500006E-04    -2.94254969E+11
   1.99999995E-04    -2.90266087E+11
   2.00499999E-04    -2.85997597E+11
   2.01000003E-04    -2.81449857E+11
   2.01500006E-04    -2.76623196E+11
   2.01999996E-04    -2.71520317E+11
   2.02499999E-04    -2.66143564E+11
   2.03000003E-04    -2.60494868E+11
   2.03500007E-04    -2.54575690E+11
   2.03999996E-04    -2.48390287E+11
   2.04500000E-04    -2.41941774E+11