  -1.9999999999999998E-004     0.0000000000000000     
  -1.9949999999999997E-004     0.0000000000000000     
  -1.9899999999999999E-004     0.0000000000000000     
  -1.9849999999999997E-004     0.0000000000000000     
  -1.9799999999999999E-004     0.0000000000000000     
  -1.9749999999999998E-004     0.0000000000000000     
  -1.9699999999999999E-004     0.0000000000000000     
  -1.9649999999999998E-004     0.0000000000000000     
  -1.9599999999999999E-004     0.0000000000000000     
  -1.9549999999999998E-004     0.0000000000000000     
  -1.9499999999999997E-004     0.0000000000000000     
  -1.9449999999999998E-004     0.0000000000000000     
  -1.9399999999999997E-004     0.0000000000000000     
  -1.9349999999999999E-004     0.0000000000000000     
  -1.9299999999999997E-004     0.0000000000000000     
  -1.9249999999999999E-004     8.1143729620038534E-027
  -1.9199999999999998E-004    -1.2624643655700163E-025
  -1.9149999999999999E-004     7.1422952811272163E-027
  -1.9099999999999998E-004    -1.8486352731814460E-025
  -1.9050000000000000E-004    -2.0028996601210371E-025
  -1.8999999999999998E-004    -3.1193506986711000E-025
  -1.8949999999999997E-004    -2.9252084022723093E-025
  -1.8899999999999999E-004    -1.8571982852424269E-025
  -1.8849999999999997E-004     3.9201563288918408E-026
  -1.8799999999999999E-004     4.2396703190463689E-025
  -1.8749999999999998E-004     7.8409641658928765E-025
  -1.8699999999999999E-004     1.1509450031786652E-024
  -1.8649999999999998E-004     1.1106178098916485E-024
  -1.8599999999999999E-004     3.4155324650821747E-025
  -1.8549999999999998E-004    -1.0132535789048346E-024
  -1.8500000000000000E-004    -4.4741357783677961E-024
  -1.8449999999999999E-004    -7.4532838208839530E-024
  -1.8399999999999997E-004    -8.4900991822631359E-024
  -1.8349999999999999E-004    -4.5608975072267896E-024
  -1.8299999999999998E-004     8.5593184954880629E-024
  -1.8249999999999999E-004     3.5153687978794342E-023
  -1.8199999999999998E-004     7.8511380004653977E-023
  -1.8149999999999999E-004     1.3791544876979500E-022
  -1.8099999999999998E-004     2.0547170906179951E-022
  -1.8050000000000000E-004     2.6064558349655956E-022
  -1.7999999999999998E-004     2.6444521670818670E-022
  -1.7949999999999997E-004     1.5336674164334220E-022
  -1.7899999999999999E-004    -1.6338489453671893E-022
  -1.7849999999999997E-004    -8.0301008308655649E-022
  -1.7799999999999999E-004    -1.8937255820422205E-021
  -1.7749999999999998E-004    -3.5361735893428420E-021
  -1.7699999999999999E-004    -5.7340492021589771E-021
  -1.7649999999999998E-004    -8.2802591800785035E-021
  -1.7600000000000000E-004    -1.0599665433027212E-020
  -1.7549999999999998E-004    -1.1560842055995193E-020
  -1.7499999999999997E-004    -9.2998506898306604E-021
  -1.7449999999999999E-004    -1.1336362518559496E-021
  -1.7399999999999997E-004     1.6312188139355498E-020
  -1.7349999999999999E-004     4.6596570420130031E-020
  -1.7299999999999998E-004     9.2396178957911043E-020
  -1.7249999999999999E-004     1.5372165537759102E-019
  -1.7199999999999998E-004     2.2536977732836722E-019
  -1.7149999999999999E-004     2.9376764926494751E-019
  -1.7099999999999998E-004     3.3369970062824376E-019
  -1.7049999999999997E-004     3.0585246937508299E-019
  -1.6999999999999999E-004     1.5662825504046101E-019
  -1.6949999999999997E-004    -1.7785733496618687E-019
  -1.6899999999999999E-004    -7.6133759598079265E-019
  -1.6849999999999998E-004    -1.6384835360585236E-018
  -1.6799999999999999E-004    -2.8061743834395076E-018
  -1.6749999999999998E-004    -4.1755607612978547E-018
  -1.6699999999999999E-004    -5.5282654588515260E-018
  -1.6649999999999998E-004    -6.4744878864162610E-018
  -1.6599999999999997E-004    -6.4255755021951968E-018
  -1.6549999999999998E-004    -4.5993150809380073E-018
  -1.6500000000000000E-004    -8.0547808227765395E-020
  -1.6449999999999999E-004     8.0387809156854671E-018
  -1.6399999999999997E-004     2.0418653990630919E-017
  -1.6349999999999999E-004     3.7119267083675794E-017
  -1.6299999999999998E-004     5.7148825205665693E-017
  -1.6249999999999999E-004     7.7953638131148888E-017
  -1.6199999999999998E-004     9.4938407737686760E-017
  -1.6149999999999997E-004     1.0115212577966578E-016
  -1.6099999999999998E-004     8.7332551596909018E-017
  -1.6050000000000000E-004     4.2538871497226200E-017
  -1.5999999999999999E-004    -4.4385453446543253E-017
  -1.5949999999999997E-004    -1.8231807558195977E-016
  -1.5899999999999999E-004    -3.7423181970957754E-016
  -1.5849999999999998E-004    -6.1256082661379907E-016
  -1.5799999999999999E-004    -8.7397328507911908E-016
  -1.5749999999999998E-004    -1.1143734439495918E-015
  -1.5699999999999999E-004    -1.2654366385229050E-015
  -1.5649999999999998E-004    -1.2344044337245447E-015
  -1.5600000000000000E-004    -9.0926212237259908E-016
  -1.5549999999999999E-004    -1.7144218464777743E-016
  -1.5499999999999997E-004     1.0821368289193868E-015
  -1.5449999999999999E-004     2.9068601369905186E-015
  -1.5399999999999998E-004     5.2689865856248570E-015
  -1.5349999999999999E-004     7.9984778157659423E-015
  -1.5299999999999998E-004     1.0742884457293465E-014
  -1.5249999999999999E-004     1.2932903899856264E-014
  -1.5199999999999998E-004     1.3773533679180963E-014
  -1.5150000000000000E-004     1.2277827453410810E-014
  -1.5099999999999998E-004     7.3601580598166052E-015
  -1.5049999999999997E-004    -1.9963929543218075E-015
  -1.4999999999999999E-004    -1.6491858912608551E-014
  -1.4949999999999997E-004    -3.6186561853991769E-014
  -1.4899999999999999E-004    -6.0127852442053493E-014
  -1.4849999999999998E-004    -8.5976270212657620E-014
  -1.4799999999999999E-004    -1.0970425279632278E-013
  -1.4749999999999998E-004    -1.2546829097582282E-013
  -1.4700000000000000E-004    -1.2577109736389891E-013
  -1.4649999999999998E-004    -1.0203640529698987E-013
  -1.4599999999999997E-004    -4.5695301724479604E-014
  -1.4549999999999999E-004     5.0156782330073119E-014
  -1.4500000000000000E-004     1.8856754511109404E-013
  -1.4449999999999999E-004     3.6614513071568184E-013
  -1.4399999999999998E-004     5.7037854073702360E-013
  -1.4349999999999999E-004     7.7732799617199062E-013
  -1.4299999999999998E-004     9.5029294494484267E-013
  -1.4249999999999999E-004     1.0401947661689121E-012
  -1.4199999999999998E-004     9.8841922444321990E-013
  -1.4149999999999997E-004     7.3279208366267505E-013
  -1.4099999999999998E-004     2.1707620023488506E-013
  -1.4050000000000000E-004    -5.9607008153544714E-013
  -1.3999999999999999E-004    -1.7093829086786461E-012
  -1.3949999999999998E-004    -3.0740634906663395E-012
  -1.3899999999999999E-004    -4.5740987686230984E-012
  -1.3850000000000001E-004    -6.0151051631419570E-012
  -1.3799999999999999E-004    -7.1217183529657385E-012
  -1.3749999999999998E-004    -7.5477668907305939E-012
  -1.3699999999999997E-004    -6.9031597841147897E-012
  -1.3649999999999998E-004    -4.8001039927110605E-012
  -1.3600000000000000E-004    -9.1936847227931560E-013
  -1.3549999999999999E-004     4.9061602610101018E-012
  -1.3499999999999997E-004     1.2596978724589520E-011
  -1.3449999999999999E-004     2.1732785748745360E-011
  -1.3400000000000000E-004     3.1474096657614721E-011
  -1.3349999999999999E-004     4.0519049143934254E-011
  -1.3299999999999998E-004     4.7116744767888457E-011
  -1.3249999999999997E-004     4.9158200649950306E-011
  -1.3199999999999998E-004     4.4361372060937781E-011
  -1.3150000000000000E-004     3.0558732125687271E-011
  -1.3099999999999999E-004     6.0831475197970115E-012
  -1.3049999999999997E-004    -2.9770496200890479E-011
  -1.2999999999999999E-004    -7.6248322155863752E-011
  -1.2950000000000000E-004    -1.3066954691511749E-010
  -1.2899999999999999E-004    -1.8806908052777307E-010
  -1.2849999999999998E-004    -2.4104606665388586E-010
  -1.2799999999999997E-004    -2.7992014671973990E-010
  -1.2749999999999998E-004    -2.9328629956213782E-010
  -1.2700000000000000E-004    -2.6903310764875777E-010
  -1.2649999999999998E-004    -1.9584575536808944E-010
  -1.2599999999999997E-004    -6.5150370706955645E-011
  -1.2549999999999999E-004     1.2661979693295210E-010
  -1.2500000000000000E-004     3.7564964337458406E-010
  -1.2449999999999999E-004     6.6855768615117365E-010
  -1.2399999999999998E-004     9.8077323556920713E-010
  -1.2349999999999997E-004     1.2759098374265043E-009
  -1.2299999999999998E-004     1.5065549598202904E-009
  -1.2250000000000000E-004     1.6168662237557651E-009
  -1.2199999999999998E-004     1.5472285211762681E-009
  -1.2149999999999999E-004     1.2410391347759075E-009
  -1.2099999999999999E-004     6.5341854089221646E-010
  -1.2049999999999999E-004    -2.3867644999627826E-010
  -1.1999999999999999E-004    -1.4258277261040071E-009
  -1.1949999999999999E-004    -2.8562485154964693E-009
  -1.1899999999999999E-004    -4.4281208579397598E-009
  -1.1849999999999998E-004    -5.9859592937360740E-009
  -1.1799999999999998E-004    -7.3226749984812139E-009
  -1.1749999999999998E-004    -8.1890094439687683E-009
  -1.1699999999999998E-004    -8.3113919162732714E-009
  -1.1649999999999999E-004    -7.4186956062491153E-009
  -1.1599999999999999E-004    -5.2772278587604711E-009
  -1.1549999999999999E-004    -1.7322157645946779E-009
  -1.1499999999999999E-004     3.2473434539092708E-009
  -1.1449999999999999E-004     9.5250562521177294E-009
  -1.1399999999999999E-004     1.6760319914136193E-008
  -1.1349999999999998E-004     2.4385022263557094E-008
  -1.1299999999999998E-004     3.1600511052285431E-008
  -1.1249999999999998E-004     3.7401477401369118E-008
  -1.1199999999999998E-004     4.0631691447613416E-008
  -1.1149999999999999E-004     4.0074759084227427E-008
  -1.1099999999999999E-004     3.4579303814236330E-008
  -1.1049999999999999E-004     2.3214118402606846E-008
  -1.0999999999999999E-004     5.4440946288277235E-009
  -1.0949999999999999E-004    -1.8687427379727498E-008
  -1.0899999999999999E-004    -4.8389196053866161E-008
  -1.0849999999999998E-004    -8.1987969820821631E-008
  -1.0799999999999998E-004    -1.1685582194806530E-007
  -1.0749999999999998E-004    -1.4942423729107360E-007
  -1.0699999999999999E-004    -1.7530739854259471E-007
  -1.0649999999999999E-004    -1.8955296332995322E-007
  -1.0599999999999999E-004    -1.8702731031851725E-007
  -1.0549999999999999E-004    -1.6293044471707958E-007
  -1.0499999999999999E-004    -1.1342100668461638E-007
  -1.0449999999999999E-004    -3.6312111804936396E-008
  -1.0399999999999998E-004     6.8215143509952316E-008
  -1.0349999999999998E-004     1.9695599773003077E-007
  -1.0299999999999998E-004     3.4316677710844862E-007
  -1.0249999999999998E-004     4.9628604669007997E-007
  -1.0199999999999999E-004     6.4198208520337703E-007
  -1.0149999999999999E-004     7.6261591329861843E-007
  -1.0099999999999999E-004     8.3817262302978441E-007
  -1.0049999999999999E-004     8.4770229561852380E-007
  -9.9999999999999991E-005     7.7124184477439424E-007
  -9.9499999999999993E-005     5.9216196777120213E-007
  -9.8999999999999980E-005     2.9979430439667501E-007
  -9.8499999999999982E-005    -1.0783950138735233E-007
  -9.7999999999999983E-005    -6.2146592340692580E-007
  -9.7499999999999985E-005    -1.2184510191298429E-006
  -9.6999999999999986E-005    -1.8614867351270458E-006
  -9.6499999999999987E-005    -2.4984101833618574E-006
  -9.5999999999999989E-005    -3.0634566119786541E-006
  -9.5499999999999990E-005    -3.4802045117405763E-006
  -9.4999999999999992E-005    -3.6663488400218730E-006
  -9.4499999999999993E-005    -3.5402827298100872E-006
  -9.3999999999999981E-005    -3.0293362532365738E-006
  -9.3499999999999982E-005    -2.0792593525985885E-006
  -9.2999999999999984E-005    -6.6433718650109849E-007
  -9.2499999999999985E-005     1.2026614623249065E-006
  -9.1999999999999987E-005     3.4617244779680820E-006
  -9.1499999999999988E-005     5.9991772703819678E-006
  -9.0999999999999989E-005     8.6447645285261200E-006
  -9.0499999999999991E-005     1.1173430566214518E-005
  -8.9999999999999992E-005     1.3312784139693966E-005
  -8.9499999999999994E-005     1.4756885468478095E-005
  -8.8999999999999981E-005     1.5186743982808071E-005
  -8.8499999999999983E-005     1.4297077012648531E-005
  -8.7999999999999984E-005     1.1828485097662598E-005
  -8.7499999999999986E-005     7.6033150789223371E-006
  -8.6999999999999987E-005     1.5626993791553614E-006
  -8.6499999999999988E-005    -6.1982632119169988E-006
  -8.5999999999999990E-005    -1.5400965619685436E-005
  -8.5499999999999991E-005    -2.5563546756404101E-005
  -8.4999999999999993E-005    -3.5994924334879519E-005
  -8.4499999999999994E-005    -4.5806697943157554E-005
  -8.3999999999999982E-005    -5.3945855100611378E-005
  -8.3499999999999983E-005    -5.9250426408421698E-005
  -8.2999999999999985E-005    -6.0528573293715574E-005
  -8.2499999999999986E-005    -5.6659121419006672E-005
  -8.1999999999999987E-005    -4.6710025196365724E-005
  -8.1499999999999989E-005    -3.0067799397560668E-005
  -8.0999999999999990E-005    -6.5694212661242174E-006
  -8.0499999999999992E-005     2.3374897440485688E-005
  -7.9999999999999993E-005     5.8681227051651490E-005
  -7.9499999999999994E-005     9.7527297184994309E-005
  -7.8999999999999982E-005     1.3733836491644188E-004
  -7.8499999999999984E-005     1.7483634552565330E-004
  -7.7999999999999985E-005     2.0616212027501691E-004
  -7.7499999999999986E-005     2.2707743718738960E-004
  -7.7000000000000001E-005     2.3324710023602457E-004
  -7.6499999999999989E-005     2.2059451910080751E-004
  -7.5999999999999977E-005     1.8571714062022115E-004
  -7.5499999999999992E-005     1.2633861484382197E-004
  -7.4999999999999980E-005     4.1767257356654849E-005
  -7.4499999999999995E-005    -6.6677391544327124E-005
  -7.3999999999999983E-005    -1.9531336080727408E-004
  -7.3499999999999998E-005    -3.3786910399082195E-004
  -7.2999999999999985E-005    -4.8542476274130087E-004
  -7.2500000000000000E-005    -6.2656700582217626E-004
  -7.1999999999999988E-005    -7.4779117339894867E-004
  -7.1499999999999976E-005    -8.3417026820074977E-004
  -7.0999999999999991E-005    -8.7029375771860982E-004
  -7.0499999999999979E-005    -8.4145843990453143E-004
  -6.9999999999999994E-005    -7.3506520815153379E-004
  -6.9499999999999982E-005    -5.4214759405308514E-004
  -6.8999999999999997E-005    -2.5893925701729137E-004
  -6.8499999999999985E-005     1.1164782696108607E-004
  -6.7999999999999999E-005     5.5877202746610493E-004
  -6.7499999999999987E-005     1.0627928759573896E-003
  -6.6999999999999975E-005     1.5949373488417984E-003
  -6.6499999999999990E-005     2.1176459942534288E-003
  -6.5999999999999978E-005     2.5857126240113101E-003
  -6.5499999999999993E-005     2.9482976709104781E-003
  -6.4999999999999981E-005     3.1518458919861728E-003
  -6.4499999999999996E-005     3.1438388147261836E-003
  -6.3999999999999984E-005     2.8772968850583848E-003
  -6.3499999999999999E-005     2.3157837761444084E-003
  -6.2999999999999986E-005     1.4386515305657983E-003
  -6.2500000000000001E-005     2.4613546922183996E-004
  -6.1999999999999989E-005    -1.2361377259304230E-003
  -6.1499999999999977E-005    -2.9536807253255767E-003
  -6.0999999999999992E-005    -4.8212643339517816E-003
  -6.0499999999999980E-005    -6.7230442999035899E-003
  -5.9999999999999995E-005    -8.5151483893425757E-003
  -5.9499999999999983E-005    -1.0031007642538690E-002
  -5.8999999999999998E-005    -1.1089578928255652E-002
  -5.8499999999999985E-005    -1.1506461399381282E-002
  -5.8000000000000000E-005    -1.1107534179283205E-002
  -5.7499999999999988E-005    -9.7447443917358222E-003
  -5.6999999999999976E-005    -7.3130610072930854E-003
  -5.6499999999999991E-005    -3.7677331112537333E-003
  -5.5999999999999979E-005     8.5954177590916213E-004
  -5.5499999999999994E-005     6.4469666132207911E-003
  -5.4999999999999982E-005     1.2772980920248837E-002
  -5.4499999999999997E-005     1.9512248832105672E-002
  -5.3999999999999984E-005     2.6238586081713103E-002
  -5.3499999999999999E-005     3.2436143980152675E-002
  -5.2999999999999987E-005     3.7519561120763781E-002
  -5.2500000000000002E-005     4.0863406394956711E-002
  -5.1999999999999990E-005     4.1840589229514599E-002
  -5.1499999999999978E-005     3.9868664796418145E-002
  -5.0999999999999993E-005     3.4462086001615065E-002
  -5.0499999999999981E-005     2.5288055526812896E-002
  -4.9999999999999996E-005     1.2222196995208011E-002
  -4.9499999999999983E-005    -4.5997238701902038E-003
  -4.8999999999999998E-005    -2.4738696131119134E-002
  -4.8499999999999986E-005    -4.7422601366901927E-002
  -4.8000000000000001E-005    -7.1534469420478836E-002
  -4.7499999999999989E-005    -9.5623054471016405E-002
  -4.6999999999999977E-005   -0.11793949385561503     
  -4.6499999999999992E-005   -0.13650184280178448     
  -4.5999999999999980E-005   -0.14918923144225868     
  -4.5499999999999995E-005   -0.15386371563070650     
  -4.4999999999999983E-005   -0.14851748489650476     
  -4.4499999999999997E-005   -0.13143881437640340     
  -4.3999999999999985E-005   -0.10139037604751519     
  -4.3500000000000000E-005    -5.7788413913263628E-002
  -4.2999999999999988E-005    -8.7209861404803635E-004
  -4.2500000000000003E-005     6.8151987391018104E-002
  -4.1999999999999991E-005    0.14700244707079863     
  -4.1499999999999979E-005    0.23226909541983601     
  -4.0999999999999994E-005    0.31942411897380807     
  -4.0499999999999982E-005    0.40291072824395369     
  -3.9999999999999996E-005    0.47631683015125381     
  -3.9499999999999984E-005    0.53263832342107298     
  -3.8999999999999999E-005    0.56463082482329274     
  -3.8499999999999987E-005    0.56524159555254239     
  -3.8000000000000002E-005    0.52811044493531722     
  -3.7499999999999990E-005    0.44811775518891611     
  -3.6999999999999978E-005    0.32195180394427525     
  -3.6499999999999993E-005    0.14866471446699950     
  -3.5999999999999981E-005    -6.9820096850743474E-002
  -3.5499999999999996E-005   -0.32829380630341209     
  -3.4999999999999983E-005   -0.61798044683995701     
  -3.4499999999999998E-005   -0.92642822658717316     
  -3.3999999999999986E-005    -1.2376136635784853     
  -3.3500000000000001E-005    -1.5322868534507781     
  -3.2999999999999989E-005    -1.7885806695574951     
  -3.2499999999999977E-005    -1.9828866152033899     
  -3.1999999999999992E-005    -2.0910000837866605     
  -3.1499999999999980E-005    -2.0894983809051642     
  -3.0999999999999995E-005    -1.9573201599707568     
  -3.0499999999999982E-005    -1.6774767627360365     
  -2.9999999999999997E-005    -1.2388145832083763     
  -2.9499999999999985E-005   -0.63774992660179330     
  -2.9000000000000000E-005    0.12016311622945131     
  -2.8499999999999988E-005     1.0189250147172662     
  -2.8000000000000003E-005     2.0311758957985315     
  -2.7499999999999991E-005     3.1177853456079325     
  -2.6999999999999979E-005     4.2280732728247807     
  -2.6499999999999994E-005     5.3007222702289285     
  -2.5999999999999981E-005     6.2654722514951198     
  -2.5499999999999996E-005     7.0456343794706937     
  -2.4999999999999984E-005     7.5613517122265517     
  -2.4499999999999999E-005     7.7336561239517918     
  -2.3999999999999987E-005     7.4891119130454262     
  -2.3500000000000002E-005     6.7649551671704575     
  -2.2999999999999990E-005     5.5144881387762608     
  -2.2499999999999978E-005     3.7124689459755138     
  -2.1999999999999993E-005     1.3602346757260744     
  -2.1499999999999980E-005    -1.5098144655062278     
  -2.0999999999999995E-005    -4.8306964846704830     
  -2.0499999999999983E-005    -8.4986327386082774     
  -1.9999999999999998E-005    -12.372462666899251     
  -1.9499999999999986E-005    -16.275037404404532     
  -1.9000000000000001E-005    -19.996725354054259     
  -1.8499999999999989E-005    -23.301266546270032     
  -1.8000000000000004E-005    -25.934034181699438     
  -1.7499999999999992E-005    -27.632572770581827     
  -1.6999999999999980E-005    -28.139293828070961     
  -1.6499999999999994E-005    -27.215975382257014     
  -1.5999999999999982E-005    -24.659542682634985     
  -1.5499999999999997E-005    -20.318643934403511     
  -1.4999999999999985E-005    -14.110126542637426     
  -1.4500000000000000E-005    -6.0346384328458402     
  -1.3999999999999988E-005     3.8095346903255169     
  -1.3500000000000003E-005     15.215538524427231     
  -1.2999999999999991E-005     27.860694594863723     
  -1.2499999999999979E-005     41.304187158873148     
  -1.1999999999999994E-005     54.990102881177272     
  -1.1499999999999981E-005     68.256878606490190     
  -1.0999999999999996E-005     80.353739033012445     
  -1.0499999999999984E-005     90.463812278368948     
  -9.9999999999999991E-006     97.734379900554345     
  -9.4999999999999870E-006     101.31369345550287     
  -9.0000000000000019E-006     100.39343312599019     
  -8.4999999999999898E-006     94.255526543288866     
  -7.9999999999999776E-006     82.322129070548797     
  -7.4999999999999926E-006     64.206122819370520     
  -6.9999999999999804E-006     39.760670653543528     
  -6.4999999999999954E-006     9.1244344201539249     
  -5.9999999999999832E-006    -27.239784473408548     
  -5.4999999999999982E-006    -68.516116483448585     
  -4.9999999999999860E-006    -113.51887665366027     
  -4.5000000000000010E-006    -160.69116470328035     
  -3.9999999999999888E-006    -208.12030684013578     
  -3.5000000000000038E-006    -253.57292184702089     
  -2.9999999999999916E-006    -294.54995513965355     
  -2.4999999999999795E-006    -328.36293018361710     
  -1.9999999999999944E-006    -352.22972513762983     
  -1.4999999999999823E-006    -363.39028569823336     
  -9.9999999999999720E-007    -359.23769695745835     
  -4.9999999999998505E-007    -337.46206369195960     
   0.0000000000000000         -296.20307474045262     
   5.0000000000001215E-007    -234.20404973893022     
   9.9999999999999720E-007    -150.96220214491058     
   1.5000000000000094E-006    -46.866337906550129     
   2.0000000000000215E-006     76.683997254415942     
   2.5000000000000066E-006     217.18778483672816     
   3.0000000000000187E-006     370.98740492987048     
   3.5000000000000038E-006     533.25587616331916     
   4.0000000000000159E-006     698.03573157458266     
   4.5000000000000010E-006     858.33145406316407     
   5.0000000000000131E-006     1006.2608019870656     
   5.4999999999999982E-006     1133.2688305397114     
   6.0000000000000103E-006     1230.4002119714169     
   6.4999999999999954E-006     1288.6294371028318     
   7.0000000000000075E-006     1299.2396963777703     
   7.5000000000000197E-006     1254.2469103790620     
   8.0000000000000047E-006     1146.8482854609274     
   8.5000000000000169E-006     971.89031529615988     
   9.0000000000000019E-006     726.32997397399572     
   9.5000000000000141E-006     409.67408198485981     
   9.9999999999999991E-006     24.374900241895595     
   1.0500000000000011E-005    -423.84177983028485     
   1.0999999999999996E-005    -925.73683835276370     
   1.1500000000000008E-005    -1468.4317794972433     
   1.2000000000000021E-005    -2035.4122763840828     
   1.2500000000000006E-005    -2606.6789592963351     
   1.3000000000000018E-005    -3159.0681173309076     
   1.3500000000000003E-005    -3666.7396754892052     
   1.4000000000000015E-005    -4101.8410207404650     
   1.4500000000000000E-005    -4435.3425682547149     
   1.5000000000000012E-005    -4638.0438151685430     
   1.5499999999999997E-005    -4681.7136932286794     
   1.6000000000000009E-005    -4540.3553348061350     
   1.6499999999999994E-005    -4191.5583699492126     
   1.7000000000000007E-005    -3617.8890335092474     
   1.7500000000000019E-005    -2808.2783498540430     
   1.8000000000000004E-005    -1759.3563096524481     
   1.8500000000000016E-005    -476.66032862313978     
   1.9000000000000001E-005     1024.3241035914778     
   1.9500000000000013E-005     2717.3673556259760     
   1.9999999999999998E-005     4565.0142324005565     
   2.0500000000000010E-005     6518.4340024346748     
   2.0999999999999995E-005     8517.7057153049973     
   2.1500000000000008E-005     10492.539574451250     
   2.2000000000000020E-005     12363.492524707368     
   2.2500000000000005E-005     14043.669817487891     
   2.3000000000000017E-005     15440.942495883195     
   2.3500000000000002E-005     16460.642950879082     
   2.4000000000000014E-005     17008.673348542805     
   2.4499999999999999E-005     16995.072871405646     
   2.5000000000000011E-005     16337.827326891449     
   2.5499999999999996E-005     14966.927005306801     
   2.6000000000000009E-005     12828.521647633706     
   2.6500000000000021E-005     9889.0062934835150     
   2.7000000000000006E-005     6138.9876754425995     
   2.7500000000000018E-005     1596.8024248240708     
   2.8000000000000003E-005    -3688.3626625853649     
   2.8500000000000015E-005    -9634.1083808697495     
   2.9000000000000000E-005    -16123.294575833750     
   2.9500000000000012E-005    -23003.445108016698     
   2.9999999999999997E-005    -30087.418089798990     
   3.0500000000000010E-005    -37155.133334723185     
   3.0999999999999995E-005    -43956.872524123231     
   3.1500000000000007E-005    -50217.757022474922     
   3.2000000000000019E-005    -55643.820443197881     
   3.2500000000000004E-005    -59929.255571151494     
   3.3000000000000016E-005    -62765.132734959625     
   3.3500000000000001E-005    -63849.173941068577     
   3.4000000000000013E-005    -62896.626806465450     
   3.4499999999999998E-005    -59651.728480936697     
   3.5000000000000010E-005    -53899.735743819387     
   3.5499999999999996E-005    -45479.164997090302     
   3.6000000000000008E-005    -34293.605524525039     
   3.6500000000000020E-005    -20323.181270291381     
   3.7000000000000005E-005    -3634.5911327805115     
   3.7500000000000017E-005     15609.809833663239     
   3.8000000000000002E-005     37145.446542657235     
   3.8500000000000014E-005     60600.830541149095     
   3.8999999999999999E-005     85495.920834762015     
   3.9500000000000011E-005     111243.22364298749     
   3.9999999999999996E-005     137152.94377525052     
   4.0500000000000009E-005     162440.81566213569     
   4.0999999999999994E-005     186240.66494773890     
   4.1500000000000006E-005     207620.24637477368     
   4.2000000000000018E-005     225600.91104162973     
   4.2500000000000003E-005     239181.15207201912     
   4.3000000000000015E-005     247362.99326554252     
   4.3500000000000000E-005     249181.85923841392     
   4.4000000000000012E-005     243738.43909416415     
   4.4499999999999997E-005     230232.28469014686     
   4.5000000000000010E-005     207996.33674228549     
   4.5500000000000022E-005     176531.92275259670     
   4.5999999999999980E-005     135542.47626588031     
   4.6499999999999992E-005     84965.309061548032     
   4.7000000000000004E-005     25000.677890344145     
   4.7500000000000016E-005    -43863.170180915258     
   4.8000000000000028E-005    -120830.51466195920     
   4.8499999999999986E-005    -204783.76055626484     
   4.8999999999999998E-005    -294277.99277858419     
   4.9500000000000011E-005    -387541.66196891578     
   5.0000000000000023E-005    -482487.36006379069     
   5.0499999999999981E-005    -576731.33246163477     
   5.0999999999999993E-005    -667622.49511812266     
   5.1500000000000005E-005    -752283.08432937355     
   5.2000000000000017E-005    -827656.85447102971     
   5.2500000000000029E-005    -890568.23959652660     
   5.2999999999999987E-005    -937791.50578533846     
   5.3499999999999999E-005    -966126.24127493089     
   5.4000000000000012E-005    -972481.09829973313     
   5.4500000000000024E-005    -953964.47747286514     
   5.4999999999999982E-005    -907977.22416481026     
   5.5499999999999994E-005    -832310.94217349892     
   5.6000000000000006E-005    -725242.69504835689     
   5.6500000000000018E-005    -585632.72718244791     
   5.7000000000000030E-005    -413015.40016252839     
   5.7499999999999988E-005    -207683.60698824766     
   5.8000000000000000E-005     29231.004965645843     
   5.8500000000000012E-005     295696.77930007386     
   5.9000000000000025E-005     588724.84404853429     
   5.9499999999999983E-005     904332.69783650083     
   5.9999999999999995E-005     1237527.0929666855     
   6.0500000000000007E-005     1582292.1714485832     
   6.1000000000000019E-005     1931621.4395924271     
   6.1500000000000031E-005     2277543.3821775592     
   6.1999999999999989E-005     2611187.8492245497     
   6.2500000000000001E-005     2922875.7481542891     
   6.3000000000000013E-005     3202205.7221593997     
   6.3500000000000026E-005     3438188.2292430988     
   6.3999999999999984E-005     3619387.9596519293     
   6.4499999999999996E-005     3734084.5245181760     
   6.5000000000000008E-005     3770442.7916757138     
   6.5500000000000020E-005     3716695.2490320513     
   6.6000000000000032E-005     3561354.4353641206     
   6.6499999999999990E-005     3293395.3435078859     
   6.7000000000000002E-005     2902471.5338468095     
   6.7500000000000014E-005     2379104.1215928919     
   6.8000000000000027E-005     1714894.3428780138     
   6.8499999999999985E-005     902667.77400829410     
   6.8999999999999997E-005    -63305.633491259534     
   6.9500000000000009E-005    -1187211.3041073391     
   7.0000000000000021E-005    -2471519.1658164952     
   7.0499999999999979E-005    -3916937.6935691433     
   7.0999999999999991E-005    -5522286.7258218843     
   7.1500000000000003E-005    -7284514.2801226219     
   7.2000000000000015E-005    -9198679.9732764438     