  -1.9999999999999998E-004     0.0000000000000000     
  -1.9949999999999997E-004     0.0000000000000000     
  -1.9899999999999999E-004     0.0000000000000000     
  -1.9849999999999997E-004     0.0000000000000000     
  -1.9799999999999999E-004     0.0000000000000000     
  -1.9749999999999998E-004     0.0000000000000000     
  -1.9699999999999999E-004     0.0000000000000000     
  -1.9649999999999998E-004     0.0000000000000000     
  -1.9599999999999999E-004     0.0000000000000000     
  -1.9549999999999998E-004     0.0000000000000000     
  -1.9499999999999997E-004     0.0000000000000000     
  -1.9449999999999998E-004     0.0000000000000000     
  -1.9399999999999997E-004     0.0000000000000000     
  -1.9349999999999999E-004     0.0000000000000000     
  -1.9299999999999997E-004     0.0000000000000000     
  -1.9249999999999999E-004     0.0000000000000000     
  -1.9199999999999998E-004     0.0000000000000000     
  -1.9149999999999999E-004     0.0000000000000000     
  -1.9099999999999998E-004     1.7109732488117278E-026
  -1.9050000000000000E-004     3.0871378292649274E-026
  -1.8999999999999998E-004     6.1447876108419287E-026
  -1.8949999999999997E-004     7.5121823425456826E-026
  -1.8899999999999999E-004     1.0403184368929530E-026
  -1.8849999999999997E-004    -7.4270450543994646E-026
  -1.8799999999999999E-004    -1.6047781072932989E-025
  -1.8749999999999998E-004    -4.9483340617683726E-025
  -1.8699999999999999E-004    -9.0774689130889087E-025
  -1.8649999999999998E-004    -1.3811204841056083E-024
  -1.8599999999999999E-004    -2.1430914080142132E-024
  -1.8549999999999998E-004    -2.9039859366864797E-024
  -1.8500000000000000E-004    -4.1111702493102645E-024
  -1.8449999999999999E-004    -4.9186593137056357E-024
  -1.8399999999999997E-004    -5.4172588455307010E-024
  -1.8349999999999999E-004    -2.9629236250580343E-024
  -1.8299999999999998E-004     5.9206030370516502E-024
  -1.8249999999999999E-004     2.6073181437001682E-023
  -1.8199999999999998E-004     6.5941684547349016E-023
  -1.8149999999999999E-004     1.3394580045403923E-022
  -1.8099999999999998E-004     2.3683464931144401E-022
  -1.8050000000000000E-004     3.7267350740198310E-022
  -1.7999999999999998E-004     5.2332891742104696E-022
  -1.7949999999999997E-004     6.4246919986027442E-022
  -1.7899999999999999E-004     6.4345998658304903E-022
  -1.7849999999999997E-004     3.8968763400573705E-022
  -1.7799999999999999E-004    -3.0875630808248717E-022
  -1.7749999999999998E-004    -1.6810169781379985E-021
  -1.7699999999999999E-004    -3.9587424273717980E-021
  -1.7649999999999998E-004    -7.3054402995074641E-021
  -1.7600000000000000E-004    -1.1705242853648860E-020
  -1.7549999999999998E-004    -1.6806985623140673E-020
  -1.7499999999999997E-004    -2.1730050738723752E-020
  -1.7449999999999999E-004    -2.4849697950420481E-020
  -1.7399999999999997E-004    -2.3598707109311672E-020
  -1.7349999999999999E-004    -1.4349152701057385E-020
  -1.7299999999999998E-004     7.5325389528613145E-021
  -1.7249999999999999E-004     4.7329747956151214E-020
  -1.7199999999999998E-004     1.1015807053206203E-019
  -1.7149999999999999E-004     1.9950981207469063E-019
  -1.7099999999999998E-004     3.1499934329265610E-019
  -1.7049999999999997E-004     4.4921850671267601E-019
  -1.6999999999999999E-004     5.8376856654411475E-019
  -1.6949999999999997E-004     6.8479996377044503E-019
  -1.6899999999999999E-004     6.9877762864287139E-019
  -1.6849999999999998E-004     5.4973206512331457E-019
  -1.6799999999999999E-004     1.3980820478405868E-019
  -1.6749999999999998E-004    -6.4441347548303119E-019
  -1.6699999999999999E-004    -1.9169581002430801E-018
  -1.6649999999999998E-004    -3.7658307613878439E-018
  -1.6599999999999997E-004    -6.2122382992241287E-018
  -1.6549999999999998E-004    -9.1544594855693172E-018
  -1.6500000000000000E-004    -1.2297770456057969E-017
  -1.6449999999999999E-004    -1.5075724092787044E-017
  -1.6399999999999997E-004    -1.6573656850044544E-017
  -1.6349999999999999E-004    -1.5472592937278776E-017
  -1.6299999999999998E-004    -1.0039943874536976E-017
  -1.6249999999999999E-004     1.7968526659214521E-018
  -1.6199999999999998E-004     2.2249230909331239E-017
  -1.6149999999999997E-004     5.3288632583840561E-017
  -1.6099999999999998E-004     9.6039022029335010E-017
  -1.6050000000000000E-004     1.4990378154524063E-016
  -1.5999999999999999E-004     2.1141797972730840E-016
  -1.5949999999999997E-004     2.7287639046898448E-016
  -1.5899999999999999E-004     3.2087273258849745E-016
  -1.5849999999999998E-004     3.3502016333446489E-016
  -1.5799999999999999E-004     2.8728708901496015E-016
  -1.5749999999999998E-004     1.4256527564888612E-016
  -1.5699999999999999E-004    -1.3870739470877429E-016
  -1.5649999999999998E-004    -5.9495641880297917E-016
  -1.5600000000000000E-004    -1.2539914832272120E-015
  -1.5549999999999999E-004    -2.1190127812207954E-015
  -1.5499999999999997E-004    -3.1500257807001283E-015
  -1.5449999999999999E-004    -4.2417981382963089E-015
  -1.5399999999999998E-004    -5.2009861093970137E-015
  -1.5349999999999999E-004    -5.7272114990919075E-015
  -1.5299999999999998E-004    -5.4052984677459869E-015
  -1.5249999999999999E-004    -3.7181084584132381E-015
  -1.5199999999999998E-004    -9.1264212417191110E-017
  -1.5150000000000000E-004     6.0193020326921790E-015
  -1.5099999999999998E-004     1.4987936426845136E-014
  -1.5049999999999997E-004     2.6825818037866607E-014
  -1.4999999999999999E-004     4.0941087484114187E-014
  -1.4949999999999997E-004     5.5876765488236862E-014
  -1.4899999999999999E-004     6.9068923290511749E-014
  -1.4849999999999998E-004     7.6690721203141669E-014
  -1.4799999999999999E-004     7.3668769444438331E-014
  -1.4749999999999998E-004     5.3970540382530505E-014
  -1.4700000000000000E-004     1.1267158997634120E-014
  -1.4649999999999998E-004    -5.9949708457438441E-014
  -1.4599999999999997E-004    -1.6276381866654522E-013
  -1.4549999999999999E-004    -2.9578906800621762E-013
  -1.4500000000000000E-004    -4.5085414338621816E-013
  -1.4449999999999999E-004    -6.1073101298780457E-013
  -1.4399999999999998E-004    -7.4738190310402249E-013
  -1.4349999999999999E-004    -8.2136183065387813E-013
  -1.4299999999999998E-004    -7.8310614839302070E-013
  -1.4249999999999999E-004    -5.7688002049199650E-013
  -1.4199999999999998E-004    -1.4801226456225137E-013
  -1.4149999999999997E-004     5.4622726289517657E-013
  -1.4099999999999998E-004     1.5223363798133673E-012
  -1.4050000000000000E-004     2.7537082934567637E-012
  -1.3999999999999999E-004     4.1531457069920065E-012
  -1.3949999999999998E-004     5.5575717382697747E-012
  -1.3899999999999999E-004     6.7188912286854565E-012
  -1.3850000000000001E-004     7.3056035094315136E-012
  -1.3799999999999999E-004     6.9202312149498733E-012
  -1.3749999999999998E-004     5.1368128546490441E-012
  -1.3699999999999997E-004     1.5616418495179608E-012
  -1.3649999999999998E-004    -4.0826763971464717E-012
  -1.3600000000000000E-004    -1.1853553912825676E-011
  -1.3549999999999999E-004    -2.1473859918454383E-011
  -1.3499999999999997E-004    -3.2221539086685035E-011
  -1.3449999999999999E-004    -4.2843451918951577E-011
  -1.3400000000000000E-004    -5.1519523144954784E-011
  -1.3349999999999999E-004    -5.5905111062432496E-011
  -1.3299999999999998E-004    -5.3279439473860070E-011
  -1.3249999999999997E-004    -4.0821359562402331E-011
  -1.3199999999999998E-004    -1.6023291998795503E-011
  -1.3150000000000000E-004     2.2765320633771706E-011
  -1.3099999999999999E-004     7.5697858815524926E-011
  -1.3049999999999997E-004     1.4075467949093782E-010
  -1.2999999999999999E-004     2.1312482169965192E-010
  -1.2950000000000000E-004     2.8476679231818903E-010
  -1.2899999999999999E-004     3.4429166364403320E-010
  -1.2849999999999998E-004     3.7731633373335834E-010
  -1.2799999999999997E-004     3.6742521894947824E-010
  -1.2749999999999998E-004     2.9783397462361552E-010
  -1.2700000000000000E-004     1.5378319939980144E-010
  -1.2649999999999998E-004    -7.4414175206402802E-011
  -1.2599999999999997E-004    -3.8787566150516500E-010
  -1.2549999999999999E-004    -7.7554743410004861E-010
  -1.2500000000000000E-004    -1.2109951270289917E-009
  -1.2449999999999999E-004    -1.6502130102468131E-009
  -1.2399999999999998E-004    -2.0311559430991388E-009
  -1.2349999999999997E-004    -2.2757137142904415E-009
  -1.2299999999999998E-004    -2.2947485806225688E-009
  -1.2250000000000000E-004    -1.9966273710918698E-009
  -1.2199999999999998E-004    -1.2992713954540681E-009
  -1.2149999999999999E-004    -1.4535462108023380E-010
  -1.2099999999999999E-004     1.4803904410232780E-009
  -1.2049999999999999E-004     3.5334320716612378E-009
  -1.1999999999999999E-004     5.8935398066479449E-009
  -1.1949999999999999E-004     8.3536626178267363E-009
  -1.1899999999999999E-004     1.0616654135457667E-008
  -1.1849999999999998E-004     1.2303205275854370E-008
  -1.1799999999999998E-004     1.2973662173264106E-008
  -1.1749999999999998E-004     1.2165586344530497E-008
  -1.1699999999999998E-004     9.4475288526076116E-009
  -1.1649999999999999E-004     4.4870238781969320E-009
  -1.1599999999999999E-004    -2.8709513067247037E-009
  -1.1549999999999999E-004    -1.2522369294488495E-008
  -1.1499999999999999E-004    -2.4028730344875416E-008
  -1.1449999999999999E-004    -3.6559728271682169E-008
  -1.1399999999999999E-004    -4.8867552335525633E-008
  -1.1349999999999998E-004    -5.9306074039917413E-008
  -1.1299999999999998E-004    -6.5907276217210619E-008
  -1.1249999999999998E-004    -6.6523418209134023E-008
  -1.1199999999999998E-004    -5.9037957294194843E-008
  -1.1149999999999999E-004    -4.1640369578852532E-008
  -1.1099999999999999E-004    -1.3150876720989829E-008
  -1.1049999999999999E-004     2.6629848807016724E-008
  -1.0999999999999999E-004     7.6581132583561713E-008
  -1.0949999999999999E-004     1.3397857959794445E-007
  -1.0899999999999999E-004     1.9431603409695806E-007
  -1.0849999999999998E-004     2.5128873469252337E-007
  -1.0799999999999998E-004     2.9698756758010187E-007
  -1.0749999999999998E-004     3.2234446026428920E-007
  -1.0699999999999999E-004     3.1785009464267177E-007
  -1.0649999999999999E-004     2.7454148653250813E-007
  -1.0599999999999999E-004     1.8521915558242448E-007
  -1.0549999999999999E-004     4.5824909380580700E-008
  -1.0499999999999999E-004    -1.4314490458886326E-007
  -1.0449999999999999E-004    -3.7532980626984394E-007
  -1.0399999999999998E-004    -6.3748673372971484E-007
  -1.0349999999999998E-004    -9.0896917641354678E-007
  -1.0299999999999998E-004    -1.1618844155932802E-006
  -1.0249999999999998E-004    -1.3621240361460526E-006
  -1.0199999999999999E-004    -1.4713783777432484E-006
  -1.0149999999999999E-004    -1.4501960755069723E-006
  -1.0099999999999999E-004    -1.2620241580574061E-006
  -1.0049999999999999E-004    -8.7807186677929267E-007
  -9.9999999999999991E-005    -2.8266260442300247E-007
  -9.9499999999999993E-005     5.2134747704905734E-007
  -9.8999999999999980E-005     1.5076869127181935E-006
  -9.8499999999999982E-005     2.6229512582231806E-006
  -9.7999999999999983E-005     3.7848009846466435E-006
  -9.7499999999999985E-005     4.8827426608526175E-006
  -9.6999999999999986E-005     5.7821075362497404E-006
  -9.6499999999999987E-005     6.3316363221393987E-006
  -9.5999999999999989E-005     6.3748209686730627E-006
  -9.5499999999999990E-005     5.7647791774888189E-006
  -9.4999999999999992E-005     4.3820728395790158E-006
  -9.4499999999999993E-005     2.1543302420635157E-006
  -9.3999999999999981E-005    -9.2380670732821767E-007
  -9.3499999999999982E-005    -4.7724227709945112E-006
  -9.2999999999999984E-005    -9.2119782108751176E-006
  -9.2499999999999985E-005    -1.3955265764546818E-005
  -9.1999999999999987E-005    -1.8608155444955026E-005
  -9.1499999999999988E-005    -2.2681092403022817E-005
  -9.0999999999999989E-005    -2.5612978844072503E-005
  -9.0499999999999991E-005    -2.6808060552200510E-005
  -8.9999999999999992E-005    -2.5685439650097180E-005
  -8.9499999999999994E-005    -2.1739416723573194E-005
  -8.8999999999999981E-005    -1.4607617894543934E-005
  -8.8499999999999983E-005    -4.1420237790081919E-006
  -8.7999999999999984E-005     9.5230039768296859E-006
  -8.7499999999999986E-005     2.5912933706567350E-005
  -8.6999999999999987E-005     4.4173312697296190E-005
  -8.6499999999999988E-005     6.3056142851274023E-005
  -8.5999999999999990E-005     8.0939884588259852E-005
  -8.5499999999999991E-005     9.5888749370316018E-005
  -8.4999999999999993E-005     1.0575540577080028E-004
  -8.4499999999999994E-005     1.0832774582117940E-004
  -8.3999999999999982E-005     1.0151592240635368E-004
  -8.3499999999999983E-005     8.3573471252974761E-005
  -8.2999999999999985E-005     5.3338168684942299E-005
  -8.2499999999999986E-005     1.0478002175713906E-005
  -8.1999999999999987E-005    -4.4280695779467315E-005
  -8.1499999999999989E-005    -1.0896462000995510E-004
  -8.0999999999999990E-005    -1.8023435414901085E-004
  -8.0499999999999992E-005    -2.5335465201360377E-004
  -7.9999999999999993E-005    -3.2228377015820889E-004
  -7.9499999999999994E-005    -3.7989468035772310E-004
  -7.8999999999999982E-005    -4.1834278349286714E-004
  -7.8499999999999984E-005    -4.2957955745778602E-004
  -7.7999999999999985E-005    -4.0600013090342715E-004
  -7.7499999999999986E-005    -3.4120088439257268E-004
  -7.7000000000000001E-005    -2.3080496320988981E-004
  -7.6499999999999989E-005    -7.3304421810117218E-005
  -7.5999999999999977E-005     1.2915259130588606E-004
  -7.5499999999999992E-005     3.7010187181543068E-004
  -7.4999999999999980E-005     6.3832103325406873E-004
  -7.4499999999999995E-005     9.1767798734058905E-004
  -7.3999999999999983E-005     1.1873585907294258E-003
  -7.3499999999999998E-005     1.4225280304893026E-003
  -7.2999999999999985E-005     1.5954668228173774E-003
  -7.2500000000000000E-005     1.6771953810362631E-003
  -7.1999999999999988E-005     1.6395595048949512E-003
  -7.1499999999999976E-005     1.4577053673264580E-003
  -7.0999999999999991E-005     1.1128304707103600E-003
  -7.0499999999999979E-005     5.9504601386067249E-004
  -6.9999999999999994E-005    -9.3836709321877630E-005
  -6.9499999999999982E-005    -9.3786705496067045E-004
  -6.8999999999999997E-005    -1.9050916930574415E-003
  -6.8499999999999985E-005    -2.9465444213249629E-003
  -6.7999999999999999E-005    -3.9963882699612383E-003
  -6.7499999999999987E-005    -4.9733574632379752E-003
  -6.6999999999999975E-005    -5.7837606333529289E-003
  -6.6499999999999990E-005    -6.3260439479866232E-003
  -6.5999999999999978E-005    -6.4969650501545129E-003
  -6.5499999999999993E-005    -6.1991915269058477E-003
  -6.4999999999999981E-005    -5.3500533216801196E-003
  -6.4499999999999996E-005    -3.8910395617126870E-003
  -6.3999999999999984E-005    -1.7974426925182095E-003
  -6.3499999999999999E-005     9.1251956982104688E-004
  -6.2999999999999986E-005     4.1698984176798187E-003
  -6.2500000000000001E-005     7.8493914159752324E-003
  -6.1999999999999989E-005     1.1766743634279243E-002
  -6.1499999999999977E-005     1.5680047922268531E-002
  -6.0999999999999992E-005     1.9295421355793433E-002
  -6.0499999999999980E-005     2.2277872662373837E-002
  -5.9999999999999995E-005     2.4267319774354458E-002
  -5.9499999999999983E-005     2.4899679905833100E-002
  -5.8999999999999998E-005     2.3832647414378853E-002
  -5.8499999999999985E-005     2.0775073440716524E-002
  -5.8000000000000000E-005     1.5518631836667940E-002
  -5.7499999999999988E-005     7.9699646518660381E-003
  -5.6999999999999976E-005    -1.8189515014450542E-003
  -5.6499999999999991E-005    -1.3624673944066313E-002
  -5.5999999999999979E-005    -2.7033014797850110E-002
  -5.5499999999999994E-005    -4.1429454404823179E-002
  -5.4999999999999982E-005    -5.6001648123723421E-002
  -5.4499999999999997E-005    -6.9756391558698172E-002
  -5.3999999999999984E-005    -8.1552196541315125E-002
  -5.3499999999999999E-005    -9.0149105624022272E-002
  -5.2999999999999987E-005    -9.4274470828660306E-002
  -5.2500000000000002E-005    -9.2704281918778261E-002
  -5.1999999999999990E-005    -8.4356866428173014E-002
  -5.1499999999999978E-005    -6.8394993312556232E-002
  -5.0999999999999993E-005    -4.4331394765882548E-002
  -5.0499999999999981E-005    -1.2130885476669065E-002
  -4.9999999999999996E-005     2.7698067025950464E-002
  -4.9499999999999983E-005     7.4031269335487995E-002
  -4.8999999999999998E-005    0.12508248430378233     
  -4.8499999999999986E-005    0.17839402629068998     
  -4.8000000000000001E-005    0.23086854800614920     
  -4.7499999999999989E-005    0.27884935183358206     
  -4.6999999999999977E-005    0.31825222605695969     
  -4.6499999999999992E-005    0.34475053439095293     
  -4.5999999999999980E-005    0.35400913540205442     
  -4.5499999999999995E-005    0.34196443803959070     
  -4.4999999999999983E-005    0.30513711347828509     
  -4.4499999999999997E-005    0.24096702059297648     
  -4.3999999999999985E-005    0.14814998013856659     
  -4.3500000000000000E-005     2.6957946977744656E-002
  -4.2999999999999988E-005   -0.12048296285216387     
  -4.2500000000000003E-005   -0.28997789929746870     
  -4.1999999999999991E-005   -0.47514155165523508     
  -4.1499999999999979E-005   -0.66738924489246831     
  -4.0999999999999994E-005   -0.85606223505861501     
  -4.0499999999999982E-005    -1.0287053104204225     
  -3.9999999999999996E-005    -1.1715020736628150     
  -3.9499999999999984E-005    -1.2698714788973295     
  -3.8999999999999999E-005    -1.3092198533617352     
  -3.8499999999999987E-005    -1.2758219012419558     
  -3.8000000000000002E-005    -1.1578091177838132     
  -3.7499999999999990E-005   -0.94621864952677393     
  -3.6999999999999978E-005   -0.63605152544773069     
  -3.6499999999999993E-005   -0.22728358031785950     
  -3.5999999999999981E-005    0.27424571593559938     
  -3.5499999999999996E-005    0.85613626602612236     
  -3.4999999999999983E-005     1.4989871348023835     
  -3.4499999999999998E-005     2.1762941499649417     
  -3.3999999999999986E-005     2.8547520959732751     
  -3.3500000000000001E-005     3.4949734345942125     
  -3.2999999999999989E-005     4.0527051810418957     
  -3.2499999999999977E-005     4.4805224855677857     
  -3.1999999999999992E-005     4.7299722118833731     
  -3.1499999999999980E-005     4.7541553359696671     
  -3.0999999999999995E-005     4.5106408429399067     
  -3.0499999999999982E-005     3.9646188971106993     
  -2.9999999999999997E-005     3.0921448349247016     
  -2.9499999999999985E-005     1.8833193654522056     
  -2.9000000000000000E-005    0.34522352996490074     
  -2.8499999999999988E-005    -1.4956194653386246     
  -2.8000000000000003E-005    -3.5914182088306545     
  -2.7499999999999991E-005    -5.8721657765438264     
  -2.6999999999999979E-005    -8.2457321644359567     
  -2.6499999999999994E-005    -10.599167672218689     
  -2.5999999999999981E-005    -12.801313942271550     
  -2.5499999999999996E-005    -14.706803161037422     
  -2.4999999999999984E-005    -16.161512819121807     
  -2.4499999999999999E-005    -17.009181309878198     
  -2.3999999999999987E-005    -17.099383725615802     
  -2.3500000000000002E-005    -16.296263106281607     
  -2.2999999999999990E-005    -14.488033890791007     
  -2.2499999999999978E-005    -11.596578334535421     
  -2.1999999999999993E-005    -7.5869114704706488     
  -2.1499999999999980E-005    -2.4758620701110443     
  -2.0999999999999995E-005     3.6605703102653511     
  -2.0499999999999983E-005     10.681634746733065     
  -1.9999999999999998E-005     18.378750062752388     
  -1.9499999999999986E-005     26.475278859260641     
  -1.9000000000000001E-005     34.629631765354418     
  -1.8499999999999989E-005     42.442057058525016     
  -1.8000000000000004E-005     49.465420415255977     
  -1.7499999999999992E-005     55.219583323130813     
  -1.6999999999999980E-005     59.210008326750760     
  -1.6499999999999994E-005     60.949272729208069     
  -1.5999999999999982E-005     59.981857405452224     
  -1.5499999999999997E-005     55.910814969696823     
  -1.4999999999999985E-005     48.425604515906123     
  -1.4500000000000000E-005     37.329983607834073     
  -1.3999999999999988E-005     22.568502360163571     
  -1.3500000000000003E-005     4.2503076652611629     
  -1.2999999999999991E-005    -17.331290520864627     
  -1.2499999999999979E-005    -41.684778258910306     
  -1.1999999999999994E-005    -68.113753718782405     
  -1.1499999999999981E-005    -95.718224715951223     
  -1.0999999999999996E-005    -123.40581682446575     
  -1.0499999999999984E-005    -149.91279098396379     
  -9.9999999999999991E-006    -173.83581634389449     
  -9.4999999999999870E-006    -193.67462627858194     
  -9.0000000000000019E-006    -207.88461523491324     
  -8.4999999999999898E-006    -214.93915302576733     
  -7.9999999999999776E-006    -213.39935655830229     
  -7.4999999999999926E-006    -201.98967559713711     
  -6.9999999999999804E-006    -179.67796480573554     
  -6.4999999999999954E-006    -145.75441833042481     
  -5.9999999999999832E-006    -99.908505756321858     
  -5.4999999999999982E-006    -42.300051744450549     
  -4.9999999999999860E-006     26.380855450649261     
  -4.5000000000000010E-006     104.86803695848754     
  -3.9999999999999888E-006     191.29011025961145     
  -3.5000000000000038E-006     283.16406364295528     
  -2.9999999999999916E-006     377.41191059329907     
  -2.4999999999999795E-006     470.40532108040651     
  -1.9999999999999944E-006     558.03737118156278     
  -1.4999999999999823E-006     635.82413349718956     
  -9.9999999999999720E-007     699.03529808009944     
  -4.9999999999998505E-007     742.85210896063654     
   0.0000000000000000          762.54775221103989     
   5.0000000000001215E-007     753.69218973936972     
   9.9999999999999720E-007     712.36805706529458     
   1.5000000000000094E-006     635.39791541233228     
   2.0000000000000215E-006     520.57277027248665     
   2.5000000000000066E-006     366.86783423481580     
   3.0000000000000187E-006     174.64954008986700     
   3.5000000000000038E-006    -54.152126073180284     
   4.0000000000000159E-006    -315.90218631257392     
   4.5000000000000010E-006    -605.16970586404000     
   5.0000000000000131E-006    -914.69230815368576     
   5.4999999999999982E-006    -1235.4014194828128     
   6.0000000000000103E-006    -1556.5240843626480     
   6.4999999999999954E-006    -1865.7554225533281     
   7.0000000000000075E-006    -2149.5142084174167     
   7.5000000000000197E-006    -2393.2785545674901     
   8.0000000000000047E-006    -2581.9911031207444     
   8.5000000000000169E-006    -2700.5513994243884     
   9.0000000000000019E-006    -2734.3544238849686     
   9.5000000000000141E-006    -2669.8919885775381     
   9.9999999999999991E-006    -2495.3901398383477     
   1.0500000000000011E-005    -2201.4600016179729     
   1.0999999999999996E-005    -1781.7504315550448     
   1.1500000000000008E-005    -1233.5789032177054     
   1.2000000000000021E-005    -558.50643581227655     
   1.2500000000000006E-005     237.16019133750743     
   1.3000000000000018E-005     1141.9662726693916     
   1.3500000000000003E-005     2139.0324533323078     
   1.4000000000000015E-005     3205.9385136238752     
   1.4500000000000000E-005     4314.7711384444729     
   1.5000000000000012E-005     5432.3764976189750     
   1.5499999999999997E-005     6520.8014126673097     
   1.6000000000000009E-005     7537.9747102237807     
   1.6499999999999994E-005     8438.5933849945941     
   1.7000000000000007E-005     9175.2251068171427     
   1.7500000000000019E-005     9699.6381294757211     
   1.8000000000000004E-005     9964.2795851802694     
   1.8500000000000016E-005     9923.9476074388112     
   1.9000000000000001E-005     9537.5925537892381     
   1.9500000000000013E-005     8770.1497844690402     
   1.9999999999999998E-005     7594.4909922676288     
   2.0500000000000010E-005     5993.2577095972938     
   2.0999999999999995E-005     3960.6819549576594     
   2.1500000000000008E-005     1504.2234705678795     
   2.2000000000000020E-005    -1354.0119117090974     
   2.2500000000000005E-005    -4576.1319171080168     
   2.3000000000000017E-005    -8107.6935275249780     
   2.3500000000000002E-005    -11877.332696903106     
   2.4000000000000014E-005    -15796.878691787382     
   2.4499999999999999E-005    -19762.024948696690     
   2.5000000000000011E-005    -23653.529164370793     
   2.5499999999999996E-005    -27339.022119002751     
   2.6000000000000009E-005    -30675.438567847079     
   2.6500000000000021E-005    -33511.994457505956     
   2.7000000000000006E-005    -35693.852789173783     
   2.7500000000000018E-005    -37066.140901718129     
   2.8000000000000003E-005    -37478.671085660586     
   2.8500000000000015E-005    -36790.842518839658     
   2.9000000000000000E-005    -34876.993555312474     
   2.9500000000000012E-005    -31631.811114859076     
   2.9999999999999997E-005    -26975.890571224976     
   3.0500000000000010E-005    -20860.986383681880     
   3.0999999999999995E-005    -13275.270871831382     
   3.1500000000000007E-005    -4247.8226053988747     
   3.2000000000000019E-005     6147.2394391328471     
   3.2500000000000004E-005     17787.570808699202     
   3.3000000000000016E-005     30500.492406283265     
   3.3500000000000001E-005     44061.576528763806     
   3.4000000000000013E-005     58195.244537236613     
   3.4499999999999998E-005     72576.060286516426     
   3.5000000000000010E-005     86831.834047978438     
   3.5499999999999996E-005     100548.60341951028     
   3.6000000000000008E-005     113276.64398868484     
   3.6500000000000020E-005     124538.63286514813     
   3.7000000000000005E-005     133838.95867599547     
   3.7500000000000017E-005     140675.00619917447     
   3.8000000000000002E-005     144549.31068932061     
   3.8500000000000014E-005     144983.23620308816     
   3.8999999999999999E-005     141531.31015112079     
   3.9500000000000011E-005     133796.79100617373     
   3.9999999999999996E-005     121446.77760676993     
   4.0500000000000009E-005     104228.19514193530     
   4.0999999999999994E-005     81982.891327319274     
   4.1500000000000006E-005     54661.909684542370     
   4.2000000000000018E-005     22339.454232467979     
   4.2500000000000003E-005    -14775.959327292934     
   4.3000000000000015E-005    -56331.558400844078     
   4.3500000000000000E-005    -101822.67382031599     
   4.4000000000000012E-005    -150588.45855533594     
   4.4499999999999997E-005    -201811.16100502960     
   4.5000000000000010E-005    -254516.88721195859     
   4.5500000000000022E-005    -307582.64670729940     
   4.5999999999999980E-005    -359745.60491671984     
   4.6499999999999992E-005    -409616.29055394523     
   4.7000000000000004E-005    -455698.19972508011     
   4.7500000000000016E-005    -496407.88985962927     
   4.8000000000000028E-005    -530102.26526881231     
   4.8499999999999986E-005    -555107.21766512259     
   4.8999999999999998E-005    -569750.98011121014     
   4.9500000000000011E-005    -572399.47845917917     
   5.0000000000000023E-005    -561495.77307501191     
   5.0499999999999981E-005    -535599.87409047864     
   5.0999999999999993E-005    -493428.16967352462     
   5.1500000000000005E-005    -433899.10012526921     
   5.2000000000000017E-005    -356172.24328015192     
   5.2500000000000029E-005    -259688.32682122369     
   5.2999999999999987E-005    -144210.85209243806     
   5.3499999999999999E-005    -9859.0925198453097     
   5.4000000000000012E-005     142860.19351003732     
   5.4500000000000024E-005     313020.78111192241     
   5.4999999999999982E-005     499258.93432627397     
   5.5499999999999994E-005     699756.36062925623     
   5.6000000000000006E-005     912226.48504121997     
   5.6500000000000018E-005     1133915.4904205478     
   5.7000000000000030E-005     1361603.6851993485     
   5.7499999999999988E-005     1591621.3490100130     
   5.8000000000000000E-005     1819868.5427854729     
   5.8500000000000012E-005     2041837.0019544293     
   5.9000000000000025E-005     2252656.0409447839     
   5.9499999999999983E-005     2447128.3874265198     
   5.9999999999999995E-005     2619781.5566302305     
   6.0500000000000007E-005     2764937.9907304449     
   6.1000000000000019E-005     2876752.7608989635     
   6.1500000000000031E-005     2949300.3221641462     
   6.1999999999999989E-005     2976650.0331125101     
   6.2500000000000001E-005     2952927.5182373831     
   6.3000000000000013E-005     2872388.2075861963     
   6.3500000000000026E-005     2729506.8667576453     
   6.3999999999999984E-005     2519048.7130946610     
   6.4499999999999996E-005     2236136.7351025073     
   6.5000000000000008E-005     1876325.5261835146     
   6.5500000000000020E-005     1435663.0568690430     
   6.6000000000000032E-005     910748.89853238454     
   6.6499999999999990E-005     298793.35830467404     
   6.7000000000000002E-005    -402378.60389641154     
   6.7500000000000014E-005    -1194231.9937988580     
   6.8000000000000027E-005    -2077552.7616645987     
   6.8499999999999985E-005    -3052421.8960655555     
   6.8999999999999997E-005    -4118223.2841995256     
   6.9500000000000009E-005    -5273619.4698205348     
   7.0000000000000021E-005    -6516655.2923570490     
   7.0499999999999979E-005    -7844703.8855803311     
   7.0999999999999991E-005    -9254601.8605339900     
   7.1500000000000003E-005    -10742633.580497563     
   7.2000000000000015E-005    -12304683.888076348     