  -1.99999995E-04     0.00000000    
  -1.99500006E-04     0.00000000    
  -1.99000002E-04     0.00000000    
  -1.98499998E-04     0.00000000    
  -1.97999994E-04    -1.53817355E-14
  -1.97500005E-04    -1.11900272E-11
  -1.97000001E-04    -1.08325286E-10
  -1.96499997E-04    -5.59738700E-10
  -1.95999994E-04    -2.03190131E-09
  -1.95500004E-04    -5.76762194E-09
  -1.95000001E-04    -1.35003013E-08
  -1.94499997E-04    -2.67658660E-08
  -1.93999993E-04    -4.53169271E-08
  -1.93500004E-04    -6.46326299E-08
  -1.93000000E-04    -7.30839034E-08
  -1.92499996E-04    -5.00617006E-08
  -1.92000007E-04     3.29475398E-08
  -1.91500003E-04     2.06136775E-07
  -1.90999999E-04     4.88444471E-07
  -1.90499995E-04     8.68152711E-07
  -1.90000006E-04     1.28019178E-06
  -1.89500002E-04     1.58690534E-06
  -1.88999998E-04     1.57229135E-06
  -1.88499995E-04     9.61284059E-07
  -1.88000005E-04    -5.26000633E-07
  -1.87500002E-04    -3.08108974E-06
  -1.86999998E-04    -6.68171015E-06
  -1.86499994E-04    -1.09548291E-05
  -1.86000005E-04    -1.50640781E-05
  -1.85500001E-04    -1.76693593E-05
  -1.84999997E-04    -1.70103631E-05
  -1.84499993E-04    -1.11566660E-05
  -1.84000004E-04     1.55760745E-06
  -1.83500000E-04     2.19380818E-05
  -1.82999996E-04     4.92495965E-05
  -1.82500007E-04     8.05845775E-05
  -1.82000003E-04     1.10460896E-04
  -1.81500000E-04     1.30853703E-04
  -1.80999996E-04     1.31849258E-04
  -1.80500007E-04     1.03043094E-04
  -1.80000003E-04     3.56840646E-05
  -1.79499999E-04    -7.45993893E-05
  -1.78999995E-04    -2.24848074E-04
  -1.78500006E-04    -4.02139907E-04
  -1.78000002E-04    -5.81961183E-04
  -1.77499998E-04    -7.28316430E-04
  -1.76999994E-04    -7.96226726E-04
  -1.76500005E-04    -7.37028953E-04
  -1.76000001E-04    -5.06479060E-04
  -1.75499998E-04    -7.51302068E-05
  -1.74999994E-04     5.60174172E-04
  -1.74500005E-04     1.36545196E-03
  -1.74000001E-04     2.26161443E-03
  -1.73499997E-04     3.12185660E-03
  -1.72999993E-04     3.77671537E-03
  -1.72500004E-04     4.02852567E-03
  -1.72000000E-04     3.67589551E-03
  -1.71499996E-04     2.54731299E-03
  -1.71000007E-04     5.41123154E-04
  -1.70500003E-04    -2.33279075E-03
  -1.69999999E-04    -5.91604039E-03
  -1.69499996E-04    -9.87705309E-03
  -1.69000006E-04    -1.37065919E-02
  -1.68500002E-04    -1.67404301E-02
  -1.67999999E-04    -1.82139054E-02
  -1.67499995E-04    -1.73494387E-02
  -1.67000006E-04    -1.34733086E-02
  -1.66500002E-04    -6.15233136E-03
  -1.65999998E-04     4.66436474E-03
  -1.65499994E-04     1.85183231E-02
  -1.65000005E-04     3.43525782E-02
  -1.64500001E-04     5.04837669E-02
  -1.63999997E-04     6.46570623E-02
  -1.63499994E-04     7.41983652E-02
  -1.63000004E-04     7.62691796E-02
  -1.62500000E-04     6.82161823E-02
  -1.61999997E-04     4.79923896E-02
  -1.61499993E-04     1.46121876E-02
  -1.61000004E-04    -3.14126089E-02
  -1.60500000E-04    -8.77177268E-02
  -1.59999996E-04   -0.149880037    
  -1.59500007E-04   -0.211423278    
  -1.59000003E-04   -0.264090091    
  -1.58499999E-04   -0.298411012    
  -1.57999995E-04   -0.304574937    
  -1.57500006E-04   -0.273567587    
  -1.57000002E-04   -0.198506400    
  -1.56499998E-04    -7.60574341E-02
  -1.55999995E-04     9.22123641E-02
  -1.55500005E-04    0.298726052    
  -1.55000002E-04    0.529217482    
  -1.54499998E-04    0.762669384    
  -1.53999994E-04    0.972023964    
  -1.53500005E-04     1.12577474    
  -1.53000001E-04     1.19047046    
  -1.52499997E-04     1.13407528    
  -1.51999993E-04    0.930002153    
  -1.51500004E-04    0.561540246    
  -1.51000000E-04     2.62680724E-02
  -1.50499996E-04   -0.660054266    
  -1.50000007E-04    -1.46065545    
  -1.49500003E-04    -2.31658173    
  -1.49000000E-04    -3.14770412    
  -1.48499996E-04    -3.85631061    
  -1.48000006E-04    -4.33351278    
  -1.47500003E-04    -4.46840715    
  -1.46999999E-04    -4.15964699    
  -1.46499995E-04    -3.32869124    
  -1.46000006E-04    -1.93366647    
  -1.45500002E-04     1.75211076E-02
  -1.44999998E-04     2.45646238    
  -1.44499994E-04     5.24757481    
  -1.44000005E-04     8.18712616    
  -1.43500001E-04     11.0093164    
  -1.42999997E-04     13.4002151    
  -1.42499994E-04     15.0198298    
  -1.42000004E-04     15.5315523    
  -1.41500001E-04     14.6374416    
  -1.40999997E-04     12.1167479    
  -1.40499993E-04     7.86432219    
  -1.40000004E-04     1.92477345    
  -1.39500000E-04    -5.48186827    
  -1.38999996E-04    -13.9474916    
  -1.38500007E-04    -22.8797741    
  -1.38000003E-04    -31.5254135    
  -1.37499999E-04    -39.0138512    
  -1.36999995E-04    -44.4206200    
  -1.36500006E-04    -46.8476067    
  -1.36000002E-04    -45.5148392    
  -1.35499999E-04    -39.8568153    
  -1.34999995E-04    -29.6143017    
  -1.34500006E-04    -14.9120207    
  -1.34000002E-04     3.68818259    
  -1.33499998E-04     25.1674690    
  -1.32999994E-04     48.0709839    
  -1.32500005E-04     70.5744095    
  -1.32000001E-04     90.5958633    
  -1.31499997E-04     105.950600    
  -1.30999993E-04     114.539238    
  -1.30500004E-04     114.557060    
  -1.30000000E-04     104.707497    
  -1.29499997E-04     84.4000549    
  -1.28999993E-04     53.9122429    
  -1.28500003E-04     14.4940357    
  -1.28000000E-04    -31.6018085    
  -1.27499996E-04    -81.1784210    
  -1.27000007E-04    -130.248764    
  -1.26500003E-04    -174.284485    
  -1.25999999E-04    -208.550278    
  -1.25499995E-04    -228.505280    
  -1.25000006E-04    -230.244308    
  -1.24500002E-04    -210.944839    
  -1.23999998E-04    -169.281601    
  -1.23499995E-04    -105.766205    
  -1.23000005E-04    -22.9735413    
  -1.22500001E-04     74.3802948    
  -1.21999998E-04     179.535568    
  -1.21500001E-04     283.975067    
  -1.20999997E-04     377.899536    
  -1.20500001E-04     450.877563    
  -1.19999997E-04     492.637848    
  -1.19500000E-04     493.955200    
  -1.18999997E-04     447.574219    
  -1.18500000E-04     349.095520    
  -1.18000004E-04     197.757751    
  -1.17500000E-04    -2.96541619    
  -1.17000003E-04    -245.012238    
  -1.16499999E-04    -515.687439    
  -1.16000003E-04    -797.952271    
  -1.15499999E-04    -1071.07178    
  -1.15000003E-04    -1311.61145    
  -1.14499999E-04    -1494.74451    
  -1.14000002E-04    -1595.81567    
  -1.13499998E-04    -1592.07812    
  -1.13000002E-04    -1464.50708    
  -1.12499998E-04    -1199.57922    
  -1.12000002E-04    -790.898682    
  -1.11499998E-04    -240.553757    
  -1.11000001E-04     439.884155    
  -1.10499997E-04     1228.84033    
  -1.10000001E-04     2094.73535    
  -1.09499997E-04     2996.54590    
  -1.09000001E-04     3884.96802    
  -1.08499997E-04     4704.12305    
  -1.08000000E-04     5393.79004    
  -1.07499996E-04     5892.09912    
  -1.07000000E-04     6138.54199    
  -1.06500003E-04     6077.24609    
  -1.06000000E-04     5660.34131    
  -1.05500003E-04     4851.30420    
  -1.04999999E-04     3628.14233    
  -1.04500003E-04     1986.26880    
  -1.03999999E-04    -59.0561638    
  -1.03500002E-04    -2470.81470    
  -1.02999998E-04    -5189.03467    
  -1.02500002E-04    -8130.31592    
  -1.01999998E-04    -11188.2715    
  -1.01500002E-04    -14234.8613    
  -1.00999998E-04    -17122.8008    
  -1.00500001E-04    -19688.9785    
  -9.99999975E-05    -21758.9961    
  -9.95000009E-05    -23152.7891    
  -9.89999971E-05    -23691.3516    
  -9.85000006E-05    -23204.4277    
  -9.79999968E-05    -21539.1133    
  -9.75000003E-05    -18569.2520    
  -9.69999965E-05    -14205.2363    
  -9.64999999E-05    -8404.06152    
  -9.60000034E-05    -1179.30725    
  -9.54999996E-05     7389.69238    
  -9.50000031E-05     17149.5898    
  -9.44999992E-05     27866.6309    
  -9.40000027E-05     39222.4219    
  -9.34999989E-05     50812.8125    
  -9.30000024E-05     62150.3008    
  -9.24999986E-05     72670.6406    
  -9.20000020E-05     81744.0938    
  -9.14999982E-05     88691.9922    
  -9.10000017E-05     92808.3750    
  -9.04999979E-05     93386.9766    
  -9.00000014E-05     89753.4297    
  -8.94999976E-05     81301.6953    
  -8.90000010E-05     67534.1797    
  -8.84999972E-05     48104.0859    
  -8.80000007E-05     22858.5449    
  -8.74999969E-05    -8119.60742    
  -8.70000003E-05    -44473.2852    
  -8.64999965E-05    -85538.7578    
  -8.60000000E-05    -130321.469    
  -8.55000035E-05    -177482.672    
  -8.49999997E-05    -225340.250    
  -8.45000031E-05    -271884.469    
  -8.39999993E-05    -314812.219    
  -8.35000028E-05    -351579.594    
  -8.29999990E-05    -379474.656    
  -8.25000025E-05    -395708.969    
  -8.19999987E-05    -397528.812    
  -8.15000021E-05    -382340.938    
  -8.09999983E-05    -347853.312    
  -8.05000018E-05    -292223.625    
  -7.99999980E-05    -214212.625    
  -7.95000014E-05    -113333.922    
  -7.89999976E-05     10003.8643    
  -7.85000011E-05     154372.719    
  -7.79999973E-05     317223.031    
  -7.75000008E-05     494816.406    
  -7.69999970E-05     682192.562    
  -7.65000004E-05     873186.688    
  -7.59999966E-05     1060497.38    
  -7.55000001E-05     1235805.12    
  -7.50000036E-05     1389957.88    
  -7.44999998E-05     1513207.25    
  -7.40000032E-05     1595507.12    
  -7.34999994E-05     1626865.12    
  -7.30000029E-05     1597738.12    
  -7.24999991E-05     1499470.50    
  -7.20000025E-05     1324756.88    
  -7.14999987E-05     1068116.88    
  -7.10000022E-05     726374.312    
  -7.04999984E-05     299107.062    
  -7.00000019E-05    -210927.406    
  -6.94999981E-05    -797431.812    
  -6.90000015E-05    -1450275.12    
  -6.84999977E-05    -2155298.25    
  -6.80000012E-05    -2894213.50    
  -6.74999974E-05    -3644642.75    
  -6.70000009E-05    -4380265.00    
  -6.64999970E-05    -5071129.00    
  -6.60000005E-05    -5684082.00    
  -6.54999967E-05    -6183360.50    
  -6.50000002E-05    -6531300.50    
  -6.44999964E-05    -6689175.50    
  -6.39999998E-05    -6618146.50    
  -6.35000033E-05    -6280272.50    
  -6.29999995E-05    -5639622.00    
  -6.25000030E-05    -4663364.50    
  -6.19999992E-05    -3322888.00    
  -6.15000026E-05    -1594885.50    
  -6.09999988E-05     537685.375    
  -6.04999987E-05     3084673.75    
  -5.99999985E-05     6048095.00    
  -5.94999983E-05     9421446.00    
  -5.90000018E-05     13189501.0    
  -5.85000016E-05     17328090.0    
  -5.80000014E-05     21804368.0    
  -5.75000013E-05     26577036.0    
  -5.70000011E-05     31597168.0    
  -5.65000009E-05     36809124.0    
  -5.60000008E-05     42151624.0    
  -5.55000006E-05     47559320.0    
  -5.50000004E-05     52964200.0    
  -5.45000003E-05     58297396.0    
  -5.40000001E-05     63491240.0    
  -5.34999999E-05     68480832.0    
  -5.29999998E-05     73206304.0    
  -5.24999996E-05     77614624.0    
  -5.19999994E-05     81661248.0    
  -5.14999992E-05     85311920.0    
  -5.09999991E-05     88544264.0    
  -5.04999989E-05     91348552.0    
  -4.99999987E-05     93728928.0    
  -4.94999986E-05     95703896.0    
  -4.89999984E-05     97306472.0    
  -4.84999982E-05     98584048.0    
  -4.80000017E-05     99597920.0    
  -4.75000015E-05     100422176.    
  -4.70000014E-05     101143088.    
  -4.65000012E-05     101856608.    
  -4.60000010E-05     102667216.    
  -4.55000009E-05     103685648.    
  -4.50000007E-05     105026944.    
  -4.45000005E-05     106806896.    
  -4.40000003E-05     109141280.    
  -4.35000002E-05     112142312.    
  -4.30000000E-05     115915336.    
  -4.24999998E-05     120560008.    
  -4.19999997E-05     126163816.    
  -4.14999995E-05     132804448.    
  -4.09999993E-05     140545232.    
  -4.04999992E-05     149436400.    
  -3.99999990E-05     159513056.    
  -3.94999988E-05     170794688.    
  -3.89999987E-05     183287440.    
  -3.84999985E-05     196982048.    
  -3.79999983E-05     211857056.    
  -3.75000018E-05     227879184.    
  -3.70000016E-05     245004752.    
  -3.65000014E-05     263183568.    
  -3.60000013E-05     282358720.    
  -3.55000011E-05     302472800.    
  -3.50000009E-05     323466496.    
  -3.45000008E-05     345282912.    
  -3.40000006E-05     367870240.    
  -3.35000004E-05     391187488.    
  -3.30000003E-05     415202816.    
  -3.25000001E-05     439896576.    
  -3.19999999E-05     465261920.    
  -3.14999997E-05     491307936.    
  -3.09999996E-05     518062624.    
  -3.04999994E-05     545570176.    
  -2.99999992E-05     573893376.    
  -2.95000009E-05     603111360.    
  -2.90000007E-05     633320192.    
  -2.85000006E-05     664631488.    
  -2.80000004E-05     697170688.    
  -2.75000002E-05     731079360.    
  -2.70000000E-05     766507392.    
  -2.64999999E-05     803604288.    
  -2.59999997E-05     842534976.    
  -2.54999995E-05     883467200.    
  -2.49999994E-05     926564864.    
  -2.44999992E-05     971989248.    
  -2.40000008E-05     1.01989978E+09
  -2.35000007E-05     1.07045184E+09
  -2.30000005E-05     1.12379021E+09
  -2.25000003E-05     1.18005056E+09
  -2.20000002E-05     1.23935424E+09
  -2.15000000E-05     1.30182438E+09
  -2.09999998E-05     1.36755981E+09
  -2.04999997E-05     1.43665510E+09
  -1.99999995E-05     1.50919885E+09
  -1.94999993E-05     1.58526080E+09
  -1.89999992E-05     1.66491098E+09
  -1.85000008E-05     1.74821517E+09
  -1.80000006E-05     1.83523085E+09
  -1.75000005E-05     1.92600678E+09
  -1.70000003E-05     2.02062106E+09
  -1.65000001E-05     2.11912730E+09
  -1.60000000E-05     2.22160102E+09
  -1.54999998E-05     2.32811802E+09
  -1.49999996E-05     2.43877402E+09
  -1.45000004E-05     2.55366554E+09
  -1.40000002E-05     2.67290598E+09
  -1.35000000E-05     2.79662413E+09
  -1.29999999E-05     2.92498099E+09
  -1.24999997E-05     3.05812378E+09
  -1.20000004E-05     3.19624448E+09
  -1.15000003E-05     3.33953510E+09
  -1.10000001E-05     3.48821888E+09
  -1.04999999E-05     3.64250496E+09
  -9.99999975E-06     3.80263629E+09
  -9.49999958E-06     3.96887578E+09
  -9.00000032E-06     4.14146176E+09
  -8.50000015E-06     4.32067021E+09
  -7.99999998E-06     4.50674739E+09
  -7.49999981E-06     4.69997824E+09
  -7.00000010E-06     4.90062234E+09
  -6.49999993E-06     5.10894387E+09
  -6.00000021E-06     5.32521574E+09
  -5.50000004E-06     5.54965862E+09
  -4.99999987E-06     5.78253824E+09
  -4.50000016E-06     6.02409114E+09
  -3.99999999E-06     6.27452058E+09
  -3.50000005E-06     6.53405645E+09
  -3.00000011E-06     6.80290099E+09
  -2.49999994E-06     7.08126618E+09
  -1.99999999E-06     7.36932710E+09
  -1.50000005E-06     7.66731674E+09
  -9.99999997E-07     7.97530470E+09
  -4.99999999E-07     8.29362534E+09
   0.00000000         8.62232576E+09
   4.99999999E-07     8.96169574E+09
   9.99999997E-07     9.31185357E+09
   1.50000005E-06     9.67299789E+09
   1.99999999E-06     1.00452946E+10
   2.49999994E-06     1.04289536E+10
   3.00000011E-06     1.08241879E+10
   3.50000005E-06     1.12311757E+10
   3.99999999E-06     1.16502047E+10
   4.50000016E-06     1.20814653E+10
   4.99999987E-06     1.25251471E+10
   5.50000004E-06     1.29815767E+10
   6.00000021E-06     1.34510141E+10
   6.49999993E-06     1.39336888E+10
   7.00000010E-06     1.44299602E+10
   7.49999981E-06     1.49399255E+10
   7.99999998E-06     1.54639452E+10
   8.50000015E-06     1.60022733E+10
   9.00000032E-06     1.65551227E+10
   9.49999958E-06     1.71227986E+10
   9.99999975E-06     1.77054904E+10
   1.04999999E-05     1.83035126E+10
   1.10000001E-05     1.89168456E+10
   1.15000003E-05     1.95458273E+10
   1.20000004E-05     2.01906340E+10
   1.24999997E-05     2.08512819E+10
   1.29999999E-05     2.15279022E+10
   1.35000000E-05     2.22207181E+10
   1.40000002E-05     2.29295063E+10
   1.45000004E-05     2.36546253E+10
   1.49999996E-05     2.43959542E+10
   1.54999998E-05     2.51534541E+10
   1.60000000E-05     2.59270205E+10
   1.65000001E-05     2.67166884E+10
   1.70000003E-05     2.75223859E+10
   1.75000005E-05     2.83440660E+10
   1.80000006E-05     2.91814748E+10
   1.85000008E-05     3.00345057E+10
   1.89999992E-05     3.09028516E+10
   1.94999993E-05     3.17865779E+10
   1.99999995E-05     3.26853612E+10
   2.04999997E-05     3.35990784E+10
   2.09999998E-05     3.45273016E+10
   2.15000000E-05     3.54700902E+10
   2.20000002E-05     3.64267807E+10
   2.25000003E-05     3.73976596E+10
   2.30000005E-05     3.83820268E+10
   2.35000007E-05     3.93796157E+10
   2.40000008E-05     4.03904143E+10
   2.44999992E-05     4.14136771E+10
   2.49999994E-05     4.24493261E+10
   2.54999995E-05     4.34962801E+10
   2.59999997E-05     4.45548380E+10
   2.64999999E-05     4.56242790E+10
   2.70000000E-05     4.67037716E+10
   2.75000002E-05     4.77929841E+10
   2.80000004E-05     4.88912732E+10
   2.85000006E-05     4.99980493E+10
   2.90000007E-05     5.11124439E+10
   2.95000009E-05     5.22339123E+10
   2.99999992E-05     5.33616026E+10
   3.04999994E-05     5.44950641E+10
   3.09999996E-05     5.56329779E+10
   3.14999997E-05     5.67738696E+10
   3.19999999E-05     5.79177472E+10
   3.25000001E-05     5.90631649E+10
   3.30000003E-05     6.02089923E+10
   3.35000004E-05     6.13531607E+10
   3.40000006E-05     6.24951296E+10
   3.45000008E-05     6.36332032E+10
   3.50000009E-05     6.47670129E+10
   3.55000011E-05     6.58942935E+10
   3.60000013E-05     6.70141112E+10
   3.65000014E-05     6.81243238E+10
   3.70000016E-05     6.92238008E+10
   3.75000018E-05     7.03113544E+10
   3.79999983E-05     7.13840968E+10
   3.84999985E-05     7.24418068E+10
   3.89999987E-05     7.34822973E+10
   3.94999988E-05     7.45030615E+10
   3.99999990E-05     7.55040092E+10
   4.04999992E-05     7.64813722E+10
   4.09999993E-05     7.74347653E+10
   4.14999995E-05     7.83620669E+10
   4.19999997E-05     7.92620483E+10
   4.24999998E-05     8.01307197E+10
   4.30000000E-05     8.09673769E+10
   4.35000002E-05     8.17695867E+10
   4.40000003E-05     8.25340641E+10
   4.45000005E-05     8.32605307E+10
   4.50000007E-05     8.39472169E+10
   4.55000009E-05     8.45900677E+10
   4.60000010E-05     8.51885343E+10
   4.65000012E-05     8.57392579E+10
   4.70000014E-05     8.62393876E+10
   4.75000015E-05     8.66882028E+10
   4.80000017E-05     8.70838436E+10
   4.84999982E-05     8.74220175E+10
   4.89999984E-05     8.77023396E+10
   4.94999986E-05     8.79206236E+10
   4.99999987E-05     8.80761487E+10
   5.04999989E-05     8.81662607E+10
   5.09999991E-05     8.81864540E+10
   5.14999992E-05     8.81355080E+10
   5.19999994E-05     8.80112517E+10
   5.24999996E-05     8.78110228E+10
   5.29999998E-05     8.75323146E+10
   5.34999999E-05     8.71708508E+10
   5.40000001E-05     8.67260826E+10
   5.45000003E-05     8.61955932E+10
   5.50000004E-05     8.55762043E+10
   5.55000006E-05     8.48669983E+10
   5.60000008E-05     8.40629535E+10
   5.65000009E-05     8.31623987E+10
   5.70000011E-05     8.21657272E+10
   5.75000013E-05     8.10670735E+10
   5.80000014E-05     7.98648893E+10
   5.85000016E-05     7.85599775E+10
   5.90000018E-05     7.71491512E+10
   5.94999983E-05     7.56291420E+10
   5.99999985E-05     7.40014408E+10
   6.04999987E-05     7.22603213E+10
   6.09999988E-05     7.04018760E+10
   6.15000026E-05     6.84255027E+10
   6.19999992E-05     6.63313572E+10
   6.25000030E-05     6.41166049E+10
   6.29999995E-05     6.17833103E+10
   6.35000033E-05     5.93251942E+10
   6.39999998E-05     5.67417364E+10
   6.44999964E-05     5.40323963E+10
   6.50000002E-05     5.11948227E+10
   6.54999967E-05     4.82331279E+10
   6.60000005E-05     4.51394028E+10
   6.64999970E-05     4.19180585E+10
   6.70000009E-05     3.85668710E+10
   6.74999974E-05     3.50831821E+10
   6.80000012E-05     3.14696561E+10
   6.84999977E-05     2.77260636E+10
   6.90000015E-05     2.38508892E+10
   6.94999981E-05     1.98473298E+10
   7.00000019E-05     1.57094226E+10
   7.04999984E-05     1.14424422E+10
   7.10000022E-05     7.04428083E+09
   7.14999987E-05     2.51673958E+09
   7.20000025E-05    -2.14114867E+09
   7.24999991E-05    -6.93068902E+09
   7.30000029E-05    -1.18406062E+10
   7.34999994E-05    -1.68761518E+10
   7.40000032E-05    -2.20336681E+10
   7.44999998E-05    -2.73125724E+10
   7.50000036E-05    -3.27091978E+10
   7.55000001E-05    -3.82246584E+10
   7.59999966E-05    -4.38555566E+10
   7.65000004E-05    -4.95965676E+10
   7.69999970E-05    -5.54490552E+10
   7.75000008E-05    -6.14107259E+10
   7.79999973E-05    -6.74780774E+10
   7.85000011E-05    -7.36440156E+10
   7.89999976E-05    -7.99057920E+10
   7.95000014E-05    -8.62607278E+10
   7.99999980E-05    -9.27038669E+10
   8.05000018E-05    -9.92264192E+10
   8.09999983E-05    -1.05830105E+11
   8.15000021E-05    -1.12508035E+11
   8.19999987E-05    -1.19256039E+11
   8.25000025E-05    -1.26076617E+11
   8.29999990E-05    -1.32959060E+11
   8.35000028E-05    -1.39897766E+11
   8.39999993E-05    -1.46891588E+11
   8.45000031E-05    -1.53926222E+11
   8.49999997E-05    -1.61002586E+11
   8.55000035E-05    -1.68111669E+11
   8.60000000E-05    -1.75243788E+11
   8.64999965E-05    -1.82393881E+11
   8.70000003E-05    -1.89556146E+11
   8.74999969E-05    -1.96723917E+11
   8.80000007E-05    -2.03892163E+11
   8.84999972E-05    -2.11046302E+11
   8.90000010E-05    -2.18190447E+11
   8.94999976E-05    -2.25308246E+11
   9.00000014E-05    -2.32398750E+11
   9.04999979E-05    -2.39450227E+11
   9.10000017E-05    -2.46454944E+11
   9.14999982E-05    -2.53405725E+11
   9.20000020E-05    -2.60300390E+11
   9.24999986E-05    -2.67121721E+11
   9.30000024E-05    -2.73865605E+11
   9.34999989E-05    -2.80524882E+11
   9.40000027E-05    -2.87093359E+11
   9.44999992E-05    -2.93554979E+11
   9.50000031E-05    -2.99901780E+11
   9.54999996E-05    -3.06132681E+11
   9.60000034E-05    -3.12233165E+11
   9.64999999E-05    -3.18195597E+11
   9.69999965E-05    -3.24013916E+11
   9.75000003E-05    -3.29679340E+11
   9.79999968E-05    -3.35182954E+11
   9.85000006E-05    -3.40519584E+11
   9.89999971E-05    -3.45675661E+11
   9.95000009E-05    -3.50640570E+11
   9.99999975E-05    -3.55412214E+11
   1.00500001E-04    -3.59976600E+11
   1.00999998E-04    -3.64335497E+11
   1.01500002E-04    -3.68474161E+11
   1.01999998E-04    -3.72389085E+11
   1.02500002E-04    -3.76068178E+11
   1.02999998E-04    -3.79505443E+11
   1.03500002E-04    -3.82692950E+11
   1.03999999E-04    -3.85620771E+11
   1.04500003E-04    -3.88285727E+11
   1.04999999E-04    -3.90678053E+11
   1.05500003E-04    -3.92786706E+11
   1.06000000E-04    -3.94610049E+11
   1.06500003E-04    -3.96141887E+11
   1.07000000E-04    -3.97378716E+11
   1.07499996E-04    -3.98310310E+11
   1.08000000E-04    -3.98941422E+11
   1.08499997E-04    -3.99264514E+11
   1.09000001E-04    -3.99269855E+11
   1.09499997E-04    -3.98957281E+11
   1.10000001E-04    -3.98317847E+11
   1.10499997E-04    -3.97346505E+11
   1.11000001E-04    -3.96039553E+11
   1.11499998E-04    -3.94395419E+11
   1.12000002E-04    -3.92407122E+11
   1.12499998E-04    -3.90074597E+11
   1.13000002E-04    -3.87396960E+11
   1.13499998E-04    -3.84370639E+11
   1.14000002E-04    -3.80996485E+11
   1.14499999E-04    -3.77271681E+11
   1.15000003E-04    -3.73197406E+11
   1.15499999E-04    -3.68773005E+11
   1.16000003E-04    -3.64000313E+11
   1.16499999E-04    -3.58875890E+11
   1.17000003E-04    -3.53404027E+11
   1.17500000E-04    -3.47584987E+11
   1.18000004E-04    -3.41421359E+11
   1.18500000E-04    -3.34914421E+11
   1.18999997E-04    -3.28066630E+11
   1.19500000E-04    -3.20881623E+11
   1.19999997E-04    -3.13363366E+11
   1.20500001E-04    -3.05516249E+11
   1.20999997E-04    -2.97339847E+11
   1.21500001E-04    -2.88842875E+11
   1.21999998E-04    -2.80028054E+11
   1.22500001E-04    -2.70900281E+11
   1.23000005E-04    -2.61466538E+11
   1.23499995E-04    -2.51732771E+11
   1.23999998E-04    -2.41707778E+11
   1.24500002E-04    -2.31397523E+11
   1.25000006E-04    -2.20811919E+11
   1.25499995E-04    -2.09958650E+11
   1.25999999E-04    -1.98847873E+11
   1.26500003E-04    -1.87488666E+11
   1.27000007E-04    -1.75890711E+11
   1.27499996E-04    -1.64061299E+11
   1.28000000E-04    -1.52008458E+11
   1.28500003E-04    -1.39743052E+11
   1.28999993E-04    -1.27272501E+11
   1.29499997E-04    -1.14607751E+11
   1.30000000E-04    -1.01758697E+11
   1.30500004E-04    -8.87371530E+10
   1.30999993E-04    -7.55554877E+10
   1.31499997E-04    -6.22249902E+10
   1.32000001E-04    -4.87627080E+10
   1.32500005E-04    -3.51822397E+10
   1.32999994E-04    -2.14952571E+10
   1.33499998E-04    -7.71829146E+09
   1.34000002E-04     6.14082509E+09
   1.34500006E-04     2.00665477E+10
   1.34999995E-04     3.40471972E+10
   1.35499999E-04     4.80725115E+10
   1.36000002E-04     6.21293814E+10
   1.36500006E-04     7.62044826E+10
   1.36999995E-04     9.02836879E+10
   1.37499999E-04     1.04353448E+11
   1.38000003E-04     1.18397116E+11
   1.38500007E-04     1.32404330E+11
   1.38999996E-04     1.46354455E+11
   1.39500000E-04     1.60235176E+11
   1.40000004E-04     1.74031978E+11
   1.40499993E-04     1.87733524E+11
   1.40999997E-04     2.01328869E+11
   1.41500001E-04     2.14798631E+11
   1.42000004E-04     2.28134912E+11
   1.42499994E-04     2.41319182E+11
   1.42999997E-04     2.54348149E+11
   1.43500001E-04     2.67204968E+11
   1.44000005E-04     2.79871980E+11
   1.44499994E-04     2.92339515E+11
   1.44999998E-04     3.04595075E+11
   1.45500002E-04     3.16618277E+11
   1.46000006E-04     3.28404206E+11
   1.46499995E-04     3.39940213E+11
   1.46999999E-04     3.51213552E+11
   1.47500003E-04     3.62217505E+11
   1.48000006E-04     3.72932248E+11
   1.48499996E-04     3.83354864E+11
   1.49000000E-04     3.93471459E+11
   1.49500003E-04     4.03274138E+11
   1.50000007E-04     4.12757852E+11
   1.50499996E-04     4.21909168E+11
   1.51000000E-04     4.30717403E+11
   1.51500004E-04     4.39178756E+11
   1.51999993E-04     4.47279071E+11
   1.52499997E-04     4.55010615E+11
   1.53000001E-04     4.62372897E+11
   1.53500005E-04     4.69351465E+11
   1.53999994E-04     4.75946680E+11
   1.54499998E-04     4.82148385E+11
   1.55000002E-04     4.87950418E+11
   1.55500005E-04     4.93354222E+11
   1.55999995E-04     4.98345640E+11
   1.56499998E-04     5.02922543E+11
   1.57000002E-04     5.07088732E+11
   1.57500006E-04     5.10841061E+11
   1.57999995E-04     5.14175566E+11
   1.58499999E-04     5.17090443E+11
   1.59000003E-04     5.19586218E+11
   1.59500007E-04     5.21661448E+11
   1.59999996E-04     5.23309810E+11
   1.60500000E-04     5.24530680E+11
   1.61000004E-04     5.25328253E+11
   1.61499993E-04     5.25707182E+11
   1.61999997E-04     5.25668155E+11
   1.62500000E-04     5.25210452E+11
   1.63000004E-04     5.24334989E+11
   1.63499994E-04     5.23040981E+11
   1.63999997E-04     5.21336553E+11
   1.64500001E-04     5.19225016E+11
   1.65000005E-04     5.16709482E+11
   1.65499994E-04     5.13805156E+11
   1.65999998E-04     5.10504010E+11
   1.66500002E-04     5.06810958E+11
   1.67000006E-04     5.02742745E+11
   1.67499995E-04     4.98297373E+11
   1.67999999E-04     4.93478248E+11
   1.68500002E-04     4.88300249E+11
   1.69000006E-04     4.82772091E+11
   1.69499996E-04     4.76900098E+11
   1.69999999E-04     4.70693380E+11
   1.70500003E-04     4.64154657E+11
   1.71000007E-04     4.57296806E+11
   1.71499996E-04     4.50127167E+11
   1.72000000E-04     4.42646921E+11
   1.72500004E-04     4.34880020E+11
   1.72999993E-04     4.26834756E+11
   1.73499997E-04     4.18512667E+11
   1.74000001E-04     4.09922175E+11
   1.74500005E-04     4.01086513E+11
   1.74999994E-04     3.92015184E+11
   1.75499998E-04     3.82714544E+11
   1.76000001E-04     3.73204386E+11
   1.76500005E-04     3.63485626E+11
   1.76999994E-04     3.53575305E+11
   1.77499998E-04     3.43478862E+11
   1.78000002E-04     3.33217497E+11
   1.78500006E-04     3.22793636E+11
   1.78999995E-04     3.12219140E+11
   1.79499999E-04     3.01506789E+11
   1.80000003E-04     2.90673164E+11
   1.80500007E-04     2.79724196E+11
   1.80999996E-04     2.68665176E+11
   1.81500000E-04     2.57517994E+11
   1.82000003E-04     2.46292218E+11
   1.82500007E-04     2.34999185E+11
   1.82999996E-04     2.23655428E+11
   1.83500000E-04     2.12271137E+11
   1.84000004E-04     2.00858010E+11
   1.84499993E-04     1.89429252E+11
   1.84999997E-04     1.77991434E+11
   1.85500001E-04     1.66558401E+11
   1.86000005E-04     1.55139113E+11
   1.86499994E-04     1.43741108E+11
   1.86999998E-04     1.32385546E+11
   1.87500002E-04     1.21072288E+11
   1.88000005E-04     1.09815357E+11
   1.88499995E-04     9.86247741E+10
   1.88999998E-04     8.75113759E+10
   1.89500002E-04     7.64887859E+10
   1.90000006E-04     6.55601254E+10
   1.90499995E-04     5.47414262E+10
   1.90999999E-04     4.40356127E+10
   1.91500003E-04     3.34583685E+10
   1.92000007E-04     2.30130913E+10
   1.92499996E-04     1.27074632E+10
   1.93000000E-04     2.54869350E+09
   1.93500004E-04    -7.45914982E+09
   1.93999993E-04    -1.73112730E+10
   1.94499997E-04    -2.69877064E+10
   1.95000001E-04    -3.64878479E+10
   1.95500004E-04    -4.58075054E+10
   1.95999994E-04    -5.49368873E+10
   1.96499997E-04    -6.38722007E+10
   1.97000001E-04    -7.26073590E+10
   1.97500005E-04    -8.11351572E+10
   1.97999994E-04    -8.94570168E+10
   1.98499998E-04    -9.75635005E+10
   1.99000002E-04    -1.05452052E+11
   1.99500006E-04    -1.13119863E+11
   1.99999995E-04    -1.20565318E+11
   2.00499999E-04    -1.27784542E+11
   2.01000003E-04    -1.34773809E+11
   2.01500006E-04    -1.41528613E+11
   2.01999996E-04    -1.48047118E+11
   2.02499999E-04    -1.54326303E+11
   2.03000003E-04    -1.60363839E+11
   2.03500007E-04    -1.66159892E+11
   2.03999996E-04    -1.71713118E+11
   2.04500000E-04    -1.77023353E+11