  -1.9999999999999998E-004     0.0000000000000000     
  -1.9949999999999997E-004     0.0000000000000000     
  -1.9899999999999999E-004     0.0000000000000000     
  -1.9849999999999997E-004     0.0000000000000000     
  -1.9799999999999999E-004     0.0000000000000000     
  -1.9749999999999998E-004     0.0000000000000000     
  -1.9699999999999999E-004     0.0000000000000000     
  -1.9649999999999998E-004    -1.3285255582757562E-017
  -1.9599999999999999E-004    -1.7715800864063239E-016
  -1.9549999999999998E-004    -1.2372309166675516E-015
  -1.9499999999999997E-004    -6.0019277684378910E-015
  -1.9449999999999998E-004    -2.2634355688156316E-014
  -1.9399999999999997E-004    -7.0401249676501216E-014
  -1.9349999999999999E-004    -1.8703651915539957E-013
  -1.9299999999999997E-004    -4.3363617641559342E-013
  -1.9249999999999999E-004    -8.8821464880721825E-013
  -1.9199999999999998E-004    -1.6144892813934780E-012
  -1.9149999999999999E-004    -2.5918605248502275E-012
  -1.9099999999999998E-004    -3.6010075023722692E-012
  -1.9050000000000000E-004    -4.0817580734125126E-012
  -1.8999999999999998E-004    -3.0163733509583129E-012
  -1.8949999999999997E-004     1.0638611153588538E-012
  -1.8899999999999999E-004     9.8161678776147084E-012
  -1.8849999999999997E-004     2.4436809323428687E-011
  -1.8799999999999999E-004     4.4563473906879006E-011
  -1.8749999999999998E-004     6.6830004450644527E-011
  -1.8699999999999999E-004     8.3430937014786830E-011
  -1.8649999999999998E-004     8.1361031180360940E-011
  -1.8599999999999999E-004     4.3268017330294804E-011
  -1.8549999999999998E-004    -4.9051379027880900E-011
  -1.8500000000000000E-004    -2.0773786746853634E-010
  -1.8449999999999999E-004    -4.2850904297322489E-010
  -1.8399999999999997E-004    -6.7814070684571088E-010
  -1.8349999999999999E-004    -8.8284376975226692E-010
  -1.8299999999999998E-004    -9.2253161548981146E-010
  -1.8249999999999999E-004    -6.3748045171765387E-010
  -1.8199999999999998E-004     1.4567292010612206E-010
  -1.8149999999999999E-004     1.5633300515232008E-009
  -1.8099999999999998E-004     3.6385961886385956E-009
  -1.8050000000000000E-004     6.1855144473091730E-009
  -1.7999999999999998E-004     8.7097424188765102E-009
  -1.7949999999999997E-004     1.0333111923114922E-008
  -1.7899999999999999E-004     9.7794379124039439E-009
  -1.7849999999999997E-004     5.4653096894132817E-009
  -1.7799999999999999E-004    -4.2619928481056511E-009
  -1.7749999999999998E-004    -2.0711116564827394E-008
  -1.7699999999999999E-004    -4.4256069758587376E-008
  -1.7649999999999998E-004    -7.3610295471733156E-008
  -1.7600000000000000E-004    -1.0506056608433100E-007
  -1.7549999999999998E-004    -1.3182130794473592E-007
  -1.7499999999999997E-004    -1.4372211618126184E-007
  -1.7449999999999999E-004    -1.2749138456075172E-007
  -1.7399999999999997E-004    -6.7896951154432764E-008
  -1.7349999999999999E-004     5.0031476047718911E-008
  -1.7299999999999998E-004     2.3758856243471475E-007
  -1.7249999999999999E-004     4.9785419991608753E-007
  -1.7199999999999998E-004     8.2036373348528790E-007
  -1.7149999999999999E-004     1.1756176110694023E-006
  -1.7099999999999998E-004     1.5104170352199999E-006
  -1.7049999999999997E-004     1.7453179456867394E-006
  -1.6999999999999999E-004     1.7757161081478790E-006
  -1.6949999999999997E-004     1.4781216679610209E-006
  -1.6899999999999999E-004     7.2300525806196461E-007
  -1.6849999999999998E-004    -6.0496085031818729E-007
  -1.6799999999999999E-004    -2.5793194090010160E-006
  -1.6749999999999998E-004    -5.1982561851417464E-006
  -1.6699999999999999E-004    -8.3479278093669496E-006
  -1.6649999999999998E-004    -1.1767497495108644E-005
  -1.6599999999999997E-004    -1.5022221299807356E-005
  -1.6549999999999998E-004    -1.7492733411806856E-005
  -1.6500000000000000E-004    -1.8388849935248728E-005
  -1.6449999999999999E-004    -1.6796654626866671E-005
  -1.6399999999999997E-004    -1.1765141594460434E-005
  -1.6349999999999999E-004    -2.4358901317062685E-006
  -1.6299999999999998E-004     1.1786738451450249E-005
  -1.6249999999999999E-004     3.1033367486468934E-005
  -1.6199999999999998E-004     5.4753060123971254E-005
  -1.6149999999999997E-004     8.1507904946902533E-005
  -1.6099999999999998E-004     1.0881291442250683E-004
  -1.6050000000000000E-004     1.3306115474629739E-004
  -1.5999999999999999E-004     1.4957587356633737E-004
  -1.5949999999999997E-004     1.5283065514408261E-004
  -1.5899999999999999E-004     1.3686646260270996E-004
  -1.5849999999999998E-004     9.5921811180295114E-005
  -1.5799999999999999E-004     2.5266276031563924E-005
  -1.5749999999999998E-004    -7.7801095879861894E-005
  -1.5699999999999999E-004    -2.1286177058859766E-004
  -1.5649999999999998E-004    -3.7530312975677933E-004
  -1.5600000000000000E-004    -5.5540029284565316E-004
  -1.5549999999999999E-004    -7.3771891484766773E-004
  -1.5499999999999997E-004    -9.0101514624206839E-004
  -1.5449999999999999E-004    -1.0188015010793722E-003
  -1.5399999999999998E-004    -1.0607187969066002E-003
  -1.5349999999999999E-004    -9.9479576509992171E-004
  -1.5299999999999998E-004    -7.9061425439245700E-004
  -1.5249999999999999E-004    -4.2327065531451598E-004
  -1.5199999999999998E-004     1.2206383787423278E-004
  -1.5150000000000000E-004     8.4533396660591269E-004
  -1.5099999999999998E-004     1.7269803839042872E-003
  -1.5049999999999997E-004     2.7240938182562973E-003
  -1.4999999999999999E-004     3.7679360773057134E-003
  -1.4949999999999997E-004     4.7634919867435687E-003
  -1.4899999999999999E-004     5.5916618467513031E-003
  -1.4849999999999998E-004     6.1145238636695440E-003
  -1.4799999999999999E-004     6.1840075982135334E-003
  -1.4749999999999998E-004     5.6539612745600733E-003
  -1.4700000000000000E-004     4.3952688262443758E-003
  -1.4649999999999998E-004     2.3133518430117884E-003
  -1.4599999999999997E-004    -6.3312427059572518E-004
  -1.4549999999999999E-004    -4.4137766017435685E-003
  -1.4500000000000000E-004    -8.9102015316670554E-003
  -1.4449999999999999E-004    -1.3903805869307079E-002
  -1.4399999999999998E-004    -1.9070038207654860E-002
  -1.4349999999999999E-004    -2.3981064322737541E-002
  -1.4299999999999998E-004    -2.8118569899011257E-002
  -1.4249999999999999E-004    -3.0898013016013116E-002
  -1.4199999999999998E-004    -3.1704670828469103E-002
  -1.4149999999999997E-004    -2.9940990135874451E-002
  -1.4099999999999998E-004    -2.5083385557718024E-002
  -1.4050000000000000E-004    -1.6745820432568066E-002
  -1.3999999999999999E-004    -4.7457946465042384E-003
  -1.3949999999999998E-004     1.0832459387659102E-002
  -1.3899999999999999E-004     2.9583533759879377E-002
  -1.3850000000000001E-004     5.0741650797571702E-002
  -1.3799999999999999E-004     7.3163374968134937E-002
  -1.3749999999999998E-004     9.5337945937609803E-002
  -1.3699999999999997E-004    0.11542986582037734     
  -1.3649999999999998E-004    0.13135621939951223     
  -1.3600000000000000E-004    0.14089993700529191     
  -1.3549999999999999E-004    0.14185492649805662     
  -1.3499999999999997E-004    0.13219921338313234     
  -1.3449999999999999E-004    0.11028566252165072     
  -1.3400000000000000E-004     7.5039961596340521E-002
  -1.3349999999999999E-004     2.6150523962251013E-002
  -1.3299999999999998E-004    -3.5763401524934596E-002
  -1.3249999999999997E-004   -0.10902369442405568     
  -1.3199999999999998E-004   -0.19081890707369736     
  -1.3150000000000000E-004   -0.27719711007426906     
  -1.3099999999999999E-004   -0.36313791020238606     
  -1.3049999999999997E-004   -0.44270590543798893     
  -1.2999999999999999E-004   -0.50929066759266983     
  -1.2950000000000000E-004   -0.55592423071024377     
  -1.2899999999999999E-004   -0.57566913685283050     
  -1.2849999999999998E-004   -0.56205771715311936     
  -1.2799999999999997E-004   -0.50956279432905638     
  -1.2749999999999998E-004   -0.41407928501703517     
  -1.2700000000000000E-004   -0.27338293424066662     
  -1.2649999999999998E-004    -8.7546271807480786E-002
  -1.2599999999999997E-004    0.14071998860505153     
  -1.2549999999999999E-004    0.40581765353382382     
  -1.2500000000000000E-004    0.69913382811639191     
  -1.2449999999999999E-004     1.0090420088671208     
  -1.2399999999999998E-004     1.3210507559711868     
  -1.2349999999999997E-004     1.6181078184588285     
  -1.2299999999999998E-004     1.8810526927701048     
  -1.2250000000000000E-004     2.0892331302892293     
  -1.2199999999999998E-004     2.2212658081107302     
  -1.2149999999999999E-004     2.2559426749496296     
  -1.2099999999999999E-004     2.1732655392945812     
  -1.2049999999999999E-004     1.9555999355452696     
  -1.1999999999999999E-004     1.5889139627547051     
  -1.1949999999999999E-004     1.0640910130439556     
  -1.1899999999999999E-004    0.37825261552597239     
  -1.1849999999999998E-004   -0.46392938337679235     
  -1.1799999999999998E-004    -1.4490159278624373     
  -1.1749999999999998E-004    -2.5537495515151423     
  -1.1699999999999998E-004    -3.7442597994745963     
  -1.1649999999999999E-004    -4.9756210153048457     
  -1.1599999999999999E-004    -6.1918794276955751     
  -1.1549999999999999E-004    -7.3266762849351759     
  -1.1499999999999999E-004    -8.3045404966829501     
  -1.1449999999999999E-004    -9.0429682628854273     
  -1.1399999999999999E-004    -9.4553595135750967     
  -1.1349999999999998E-004    -9.4547748482270464     
  -1.1299999999999998E-004    -8.9586021107481706     
  -1.1249999999999998E-004    -7.8938853404533305     
  -1.1199999999999998E-004    -6.2032942849041319     
  -1.1149999999999999E-004    -3.8514177937139165     
  -1.1099999999999999E-004   -0.83108409969846830     
  -1.1049999999999999E-004     2.8306600124698527     
  -1.0999999999999999E-004     7.0673151650843682     
  -1.0949999999999999E-004     11.769005491837541     
  -1.0899999999999999E-004     16.780189814729695     
  -1.0849999999999998E-004     21.899623805480182     
  -1.0799999999999998E-004     26.882825790555025     
  -1.0749999999999998E-004     31.447421170395906     
  -1.0699999999999999E-004     35.281584169318421     
  -1.0649999999999999E-004     38.055501158256384     
  -1.0599999999999999E-004     39.435745639411799     
  -1.0549999999999999E-004     39.102196575238459     
  -1.0499999999999999E-004     36.767029741683238     
  -1.0449999999999999E-004     32.194786619594247     
  -1.0399999999999998E-004     25.222940624986244     
  -1.0349999999999998E-004     15.781503507476733     
  -1.0299999999999998E-004     3.9109173197889540     
  -1.0249999999999998E-004    -10.223252449922718     
  -1.0199999999999999E-004    -26.319914434376813     
  -1.0149999999999999E-004    -43.937229770657957     
  -1.0099999999999999E-004    -62.493691080745776     
  -1.0049999999999999E-004    -81.276034615843372     
  -9.9999999999999991E-005    -99.454386906821924     
  -9.9499999999999993E-005    -116.10469711892466     
  -9.8999999999999980E-005    -130.23814550012247     
  -9.8499999999999982E-005    -140.83695267306021     
  -9.7999999999999983E-005    -146.89531224562649     
  -9.7499999999999985E-005    -147.46467368839123     
  -9.6999999999999986E-005    -141.70140740002338     
  -9.6499999999999987E-005    -128.91474107514074     
  -9.5999999999999989E-005    -108.61389871641948     
  -9.5499999999999990E-005    -80.552065648176992     
  -9.4999999999999992E-005    -44.764741624396791     
  -9.4499999999999993E-005    -1.6017425194667538     
  -9.3999999999999981E-005     48.249751775832067     
  -9.3499999999999982E-005     103.75269548362709     
  -9.2999999999999984E-005     163.51747564388333     
  -9.2499999999999985E-005     225.81282922206680     
  -9.1999999999999987E-005     288.58829185187210     
  -9.1499999999999988E-005     349.50975345986052     
  -9.0999999999999989E-005     406.00786934946473     
  -9.0499999999999991E-005     455.33808402004456     
  -8.9999999999999992E-005     494.65340878840084     
  -8.9499999999999994E-005     521.08594933054917     
  -8.8999999999999981E-005     531.84010462893298     
  -8.8499999999999983E-005     524.29111751780897     
  -8.7999999999999984E-005     496.09223136951346     
  -8.7499999999999986E-005     445.28576167441400     
  -8.6999999999999987E-005     370.41339873186456     
  -8.6499999999999988E-005     270.62937821109898     
  -8.5999999999999990E-005     145.80921152768451     
  -8.5499999999999991E-005    -3.3503809670205378     
  -8.4999999999999993E-005    -175.23903848889964     
  -8.4499999999999994E-005    -367.25740213412132     
  -8.3999999999999982E-005    -575.75905779987704     
  -8.3499999999999983E-005    -796.01633786077934     
  -8.2999999999999985E-005    -1022.2158752881414     
  -8.2499999999999986E-005    -1247.4827084924839     
  -8.1999999999999987E-005    -1463.9487251821763     
  -8.1499999999999989E-005    -1662.8580835633306     
  -8.0999999999999990E-005    -1834.7181881510364     
  -8.0499999999999992E-005    -1969.4993006674313     
  -7.9999999999999993E-005    -2056.8875137343912     
  -7.9499999999999994E-005    -2086.5747287304671     
  -7.8999999999999982E-005    -2048.6113776471898     
  -7.8499999999999984E-005    -1933.7858902415192     
  -7.7999999999999985E-005    -1734.0551139209779     
  -7.7499999999999986E-005    -1442.9889406614182     
  -7.7000000000000001E-005    -1056.2382540866261     
  -7.6499999999999989E-005    -572.00346824832172     
  -7.5999999999999977E-005     8.5121625087063535     
  -7.5499999999999992E-005     680.67943959228865     
  -7.4999999999999980E-005     1436.0749445063561     
  -7.4499999999999995E-005     2262.1794035805942     
  -7.3999999999999983E-005     3142.1767254787183     
  -7.3499999999999998E-005     4054.8574824457273     
  -7.2999999999999985E-005     4974.6694717531427     
  -7.2500000000000000E-005     5871.9069627221988     
  -7.1999999999999988E-005     6713.0796852613057     
  -7.1499999999999976E-005     7461.4427362701681     
  -7.0999999999999991E-005     8077.7440315358672     
  -7.0499999999999979E-005     8521.1104520353074     
  -6.9999999999999994E-005     8750.1749095655632     
  -6.9499999999999982E-005     8724.3299137307531     
  -6.8999999999999997E-005     8405.1561658637402     
  -6.8499999999999985E-005     7757.9912830629492     
  -6.7999999999999999E-005     6753.5668486143313     
  -6.7499999999999987E-005     5369.7448318755014     
  -6.6999999999999975E-005     3593.2468828418205     
  -6.6499999999999990E-005     1421.3206009372068     
  -6.5999999999999978E-005    -1136.6181445223292     
  -6.5499999999999993E-005    -4057.5730263967130     
  -6.4999999999999981E-005    -7303.7153779584023     
  -6.4499999999999996E-005    -10821.479920710088     
  -6.3999999999999984E-005    -14540.922571901669     
  -6.3499999999999999E-005    -18375.577648807419     
  -6.2999999999999986E-005    -22222.740197736512     
  -6.2500000000000001E-005    -25964.283978825410     
  -6.1999999999999989E-005    -29468.036558447548     
  -6.1499999999999977E-005    -32589.801938981283     
  -6.0999999999999992E-005    -35175.920434688633     
  -6.0499999999999980E-005    -37066.573059480812     
  -5.9999999999999995E-005    -38099.582187708751     
  -5.9499999999999983E-005    -38114.893523887113     
  -5.8999999999999998E-005    -36959.522311412300     
  -5.8499999999999985E-005    -34493.049676925380     
  -5.8000000000000000E-005    -30593.322152134784     
  -5.7499999999999988E-005    -25162.589483943982     
  -5.6999999999999976E-005    -18133.611747576651     
  -5.6499999999999991E-005    -9475.7637320337017     
  -5.5999999999999979E-005     799.13638004141285     
  -5.5499999999999994E-005     12631.368450690246     
  -5.4999999999999982E-005     25908.520967265373     
  -5.4499999999999997E-005     40461.603344077659     
  -5.3999999999999984E-005     56062.107820460798     
  -5.3499999999999999E-005     72420.502512110746     
  -5.2999999999999987E-005     89186.077810999413     
  -5.2500000000000002E-005     105948.48896393608     
  -5.1999999999999990E-005     122241.18182221787     
  -5.1499999999999978E-005     137546.66622386908     
  -5.0999999999999993E-005     151303.92298956166     
  -5.0499999999999981E-005     162917.75616873492     
  -4.9999999999999996E-005     171770.55574599697     
  -4.9499999999999983E-005     177235.44795540531     
  -4.8999999999999998E-005     178692.09076676302     
  -4.8499999999999986E-005     175543.57982765647     
  -4.8000000000000001E-005     167235.07317001303     
  -4.7499999999999989E-005     153273.61050197799     
  -4.6999999999999977E-005     133248.76331403776     
  -4.6499999999999992E-005     106853.07427203620     
  -4.5999999999999980E-005     73903.246542636654     
  -4.5499999999999995E-005     34359.811352423829     
  -4.4999999999999983E-005    -11653.647406161312     
  -4.4499999999999997E-005    -63833.958102290489     
  -4.3999999999999985E-005    -121683.46026927147     
  -4.3500000000000000E-005    -184498.44124435959     
  -4.2999999999999988E-005    -251362.15814799425     
  -4.2500000000000003E-005    -321140.44080755353     
  -4.1999999999999991E-005    -392482.49376047496     
  -4.1499999999999979E-005    -463828.90150113887     
  -4.0999999999999994E-005    -533422.95864683529     
  -4.0499999999999982E-005    -599328.55976178905     
  -3.9999999999999996E-005    -659454.60806629458     
  -3.9499999999999984E-005    -711586.46462294343     
  -3.8999999999999999E-005    -753421.87854549591     
  -3.8499999999999987E-005    -782614.34566666512     
  -3.8000000000000002E-005    -796822.85839997500     
  -3.7499999999999990E-005    -793764.41193726624     
  -3.6999999999999978E-005    -771273.65682379180     
  -3.6499999999999993E-005    -727365.20848311239     
  -3.5999999999999981E-005    -660300.58490367350     
  -3.5499999999999996E-005    -568653.18980670476     
  -3.4999999999999983E-005    -451378.73560965317     
  -3.4499999999999998E-005    -307883.02300111228     
  -3.3999999999999986E-005    -138087.43296556181     
  -3.3500000000000001E-005     57511.157825749775     
  -3.2999999999999989E-005     277780.95830787759     
  -3.2499999999999977E-005     520899.91535792616     
  -3.1999999999999992E-005     784320.74524151604     
  -3.1499999999999980E-005     1064727.0081763819     
  -3.0999999999999995E-005     1358020.3578969010     
  -3.0499999999999982E-005     1659301.0831076500     
  -2.9999999999999997E-005     1962871.8768547787     
  -2.9499999999999985E-005     2262247.0742430557     
  -2.9000000000000000E-005     2550189.9105027057     
  -2.8499999999999988E-005     2818751.2162087676     
  -2.8000000000000003E-005     3059334.1445770808     
  -2.7499999999999991E-005     3262758.2881470798     
  -2.6999999999999979E-005     3419344.3973876876     
  -2.6499999999999994E-005     3519036.6694034343     
  -2.5999999999999981E-005     3551491.1784093198     
  -2.5499999999999996E-005     3506228.3360764356     
  -2.4999999999999984E-005     3372734.5966182109     
  -2.4499999999999999E-005     3140637.1716491417     
  -2.3999999999999987E-005     2799834.9363932731     
  -2.3500000000000002E-005     2340660.7911461815     
  -2.2999999999999990E-005     1754012.0610501494     
  -2.2499999999999978E-005     1031545.7829117808     
  -2.1999999999999993E-005     165769.65300806949     
  -2.1499999999999980E-005    -849771.87748802523     
  -2.0999999999999995E-005    -2020387.9440223579     
  -2.0499999999999983E-005    -3350135.1950657349     
  -1.9999999999999998E-005    -4841689.8241283149     
  -1.9499999999999986E-005    -6496316.5347913746     
  -1.9000000000000001E-005    -8313769.1162179671     
  -1.8499999999999989E-005    -10292248.107197510     
  -1.8000000000000004E-005    -12428429.892157406     
  -1.7499999999999992E-005    -14717445.341754954     
  -1.6999999999999980E-005    -17152938.366778713     
  -1.6499999999999994E-005    -19727120.412910786     
  -1.5999999999999982E-005    -22430908.291328438     
  -1.5499999999999997E-005    -25254051.668221064     
  -1.4999999999999985E-005    -28185213.690534931     
  -1.4500000000000000E-005    -31212270.172074180     
  -1.3999999999999988E-005    -34322405.550551549     
  -1.3500000000000003E-005    -37502375.540058926     
  -1.2999999999999991E-005    -40738909.535583824     
  -1.2499999999999979E-005    -44018644.149793610     
  -1.1999999999999994E-005    -47328761.504590198     
  -1.1499999999999981E-005    -50657037.771479920     
  -1.0999999999999996E-005    -53992268.494998053     
  -1.0499999999999984E-005    -57324457.658608779     
  -9.9999999999999991E-006    -60645215.674837872     
  -9.4999999999999870E-006    -63948017.903409004     
  -9.0000000000000019E-006    -67228375.826530397     
  -8.4999999999999898E-006    -70484289.513642430     
  -7.9999999999999776E-006    -73716378.266315341     
  -7.4999999999999926E-006    -76927930.355821699     
  -6.9999999999999804E-006    -80125309.532032639     
  -6.4999999999999954E-006    -83317957.204677135     
  -5.9999999999999832E-006    -86518697.509044617     
  -5.4999999999999982E-006    -89743583.557782188     
  -4.9999999999999860E-006    -93012060.423836797     
  -4.5000000000000010E-006    -96346863.033392161     
  -3.9999999999999888E-006    -99774048.768201903     
  -3.5000000000000038E-006    -103322870.62368616     
  -2.9999999999999916E-006    -107025386.47866137     
  -2.4999999999999795E-006    -110917199.30475950     
  -1.9999999999999944E-006    -115035990.35165541     
  -1.4999999999999823E-006    -119422078.06851201     
  -9.9999999999999720E-007    -124117604.66384844     
  -4.9999999999998505E-007    -129167184.29326156     
   0.0000000000000000         -134616105.04734015     
   5.0000000000001215E-007    -140511663.42232960     
   9.9999999999999720E-007    -146901330.14421684     
   1.5000000000000094E-006    -153833909.25240788     
   2.0000000000000215E-006    -161356843.16644454     
   2.5000000000000066E-006    -169519023.56297207     
   3.0000000000000187E-006    -178367782.05766445     
   3.5000000000000038E-006    -187949785.95608625     
   4.0000000000000159E-006    -198310561.96545133     
   4.5000000000000010E-006    -209494174.91604647     
   5.0000000000000131E-006    -221543544.53402862     
   5.4999999999999982E-006    -234499235.51356360     
   6.0000000000000103E-006    -248400645.21543962     
   6.4999999999999954E-006    -263283526.01042342     
   7.0000000000000075E-006    -279183624.65017402     
   7.5000000000000197E-006    -296134239.53321528     
   8.0000000000000047E-006    -314166526.21561360     
   8.5000000000000169E-006    -333309200.39789915     
   9.0000000000000019E-006    -353590966.58457744     
   9.5000000000000141E-006    -375036990.94692987     
   9.9999999999999991E-006    -397673782.54970843     
   1.0500000000000011E-005    -421525784.27328420     
   1.0999999999999996E-005    -446617754.69431341     
   1.1500000000000008E-005    -472974749.44507331     
   1.2000000000000021E-005    -500622600.05535895     
   1.2500000000000006E-005    -529584850.31334239     
   1.3000000000000018E-005    -559891760.73989344     
   1.3500000000000003E-005    -591572272.34484720     
   1.4000000000000015E-005    -624658130.03894758     
   1.4500000000000000E-005    -659185030.98803520     
   1.5000000000000012E-005    -695193516.68422914     
   1.5499999999999997E-005    -732724581.65449154     
   1.6000000000000009E-005    -771824129.94566333     
   1.6499999999999994E-005    -812546931.10798287     
   1.7000000000000007E-005    -854946496.81056428     
   1.7500000000000019E-005    -899086221.53956163     
   1.8000000000000004E-005    -945034425.32760084     
   1.8500000000000016E-005    -992863003.69940877     
   1.9000000000000001E-005    -1042655950.1039594     
   1.9500000000000013E-005    -1094495812.1987104     
   1.9999999999999998E-005    -1148476564.6924391     
   2.0500000000000010E-005    -1204699957.4235258     
   2.0999999999999995E-005    -1263268775.0332003     
   2.1500000000000008E-005    -1324292195.4330091     
   2.2000000000000020E-005    -1387890466.3626790     
   2.2500000000000005E-005    -1454186394.5793297     
   2.3000000000000017E-005    -1523306425.8486071     
   2.3500000000000002E-005    -1595381262.1385906     
   2.4000000000000014E-005    -1670558524.6390171     
   2.4499999999999999E-005    -1748975607.0824230     
   2.5000000000000011E-005    -1830781774.4729602     
   2.5499999999999996E-005    -1916122717.6217277     
   2.6000000000000009E-005    -2005157689.7811537     
   2.6500000000000021E-005    -2098039624.6139679     
   2.7000000000000006E-005    -2194924070.2501545     
   2.7500000000000018E-005    -2295980213.5125203     
   2.8000000000000003E-005    -2401364578.1952543     
   2.8500000000000015E-005    -2511244702.6087170     
   2.9000000000000000E-005    -2625789165.3854508     
   2.9500000000000012E-005    -2745149858.6426497     
   2.9999999999999997E-005    -2869504209.1670489     
   3.0500000000000010E-005    -2999019566.8702426     
   3.0999999999999995E-005    -3133864129.0144730     
   3.1500000000000007E-005    -3274186459.7526937     
   3.2000000000000019E-005    -3420155414.6430697     
   3.2500000000000004E-005    -3571942553.1242027     
   3.3000000000000016E-005    -3729708469.4556370     
   3.3500000000000001E-005    -3893629433.1565032     
   3.4000000000000013E-005    -4063845011.0596294     
   3.4499999999999998E-005    -4240532761.7627044     
   3.5000000000000010E-005    -4423859245.8635530     
   3.5499999999999996E-005    -4613984735.6330843     
   3.6000000000000008E-005    -4811083935.4623680     
   3.6500000000000020E-005    -5015314160.8228722     
   3.7000000000000005E-005    -5226864250.6592560     
   3.7500000000000017E-005    -5445905363.7627068     
   3.8000000000000002E-005    -5672589671.7698593     
   3.8500000000000014E-005    -5907110536.5486584     
   3.8999999999999999E-005    -6149638783.3641224     
   3.9500000000000011E-005    -6400357383.4362411     
   3.9999999999999996E-005    -6659466135.2176418     
   4.0500000000000009E-005    -6927129724.5653114     
   4.0999999999999994E-005    -7203577714.1481876     
   4.1500000000000006E-005    -7488961840.5972643     
   4.2000000000000018E-005    -7783524240.8940792     
   4.2500000000000003E-005    -8087461790.2455568     
   4.3000000000000015E-005    -8400963353.2425480     
   4.3500000000000000E-005    -8724264970.0529404     
   4.4000000000000012E-005    -9057584300.8120880     
   4.4499999999999997E-005    -9401097440.0094833     
   4.5000000000000010E-005    -9755082681.8830624     
   4.5500000000000022E-005    -10119739695.156076     
   4.5999999999999980E-005    -10495278644.199158     
   4.6499999999999992E-005    -10881953105.307865     
   4.7000000000000004E-005    -11279987549.095839     
   4.7500000000000016E-005    -11689610322.337383     
   4.8000000000000028E-005    -12111018772.131872     
   4.8499999999999986E-005    -12544439547.052982     
   4.8999999999999998E-005    -12990084850.609905     
   4.9500000000000011E-005    -13448141240.335686     
   5.0000000000000023E-005    -13918810502.821159     
   5.0499999999999981E-005    -14402345899.149103     
   5.0999999999999993E-005    -14898781491.619488     
   5.1500000000000005E-005    -15408532058.307301     
   5.2000000000000017E-005    -15931520128.905703     
   5.2500000000000029E-005    -16468062784.693695     
   5.2999999999999987E-005    -17018277188.146282     
   5.3499999999999999E-005    -17582238547.970631     
   5.4000000000000012E-005    -18160103655.263233     
   5.4500000000000024E-005    -18751983241.686630     
   5.4999999999999982E-005    -19357919566.887436     
   5.5499999999999994E-005    -19977912427.133492     
   5.6000000000000006E-005    -20612287358.542961     
   5.6500000000000018E-005    -21260915188.632820     
   5.7000000000000030E-005    -21923821459.426567     
   5.7499999999999988E-005    -22600910805.361214     
   5.8000000000000000E-005    -23292318312.342258     
   5.8500000000000012E-005    -23998106018.648140     
   5.9000000000000025E-005    -24717994426.885384     
   5.9499999999999983E-005    -25452121116.085464     
   5.9999999999999995E-005    -26200269741.257736     
   6.0500000000000007E-005    -26962502555.486729     
   6.1000000000000019E-005    -27738318115.927219     
   6.1500000000000031E-005    -28527960087.355804     
   6.1999999999999989E-005    -29331097275.844360     
   6.2500000000000001E-005    -30147626357.312611     
   6.3000000000000013E-005    -30977248942.051163     
   6.3500000000000026E-005    -31819703852.680222     
   6.3999999999999984E-005    -32674991397.919209     
   6.4499999999999996E-005    -33542652867.075226     
   6.5000000000000008E-005    -34422454033.136520     
   6.5500000000000020E-005    -35314041592.662140     
   6.6000000000000032E-005    -36217174027.751999     
   6.6499999999999990E-005    -37131443248.752373     
   6.7000000000000002E-005    -38056277605.728195     
   6.7500000000000014E-005    -38991485270.236183     
   6.8000000000000027E-005    -39936435148.203011     
   6.8499999999999985E-005    -40890569227.534195     
   6.8999999999999997E-005    -41853792376.650459     
   6.9500000000000009E-005    -42824901437.528030     
   7.0000000000000021E-005    -43803713808.646957     
   7.0499999999999979E-005    -44789609769.312790     
   7.0999999999999991E-005    -45781826590.254532     
   7.1500000000000003E-005    -46779643523.394035     
   7.2000000000000015E-005    -47782576613.233070     