  -1.99999995E-04     0.00000000    
  -1.99500006E-04     0.00000000    
  -1.99000002E-04     0.00000000    
  -1.98499998E-04     0.00000000    
  -1.97999994E-04     0.00000000    
  -1.97500005E-04     0.00000000    
  -1.97000001E-04     0.00000000    
  -1.96499997E-04     0.00000000    
  -1.95999994E-04     0.00000000    
  -1.95500004E-04     0.00000000    
  -1.95000001E-04     0.00000000    
  -1.94499997E-04     0.00000000    
  -1.93999993E-04     0.00000000    
  -1.93500004E-04     0.00000000    
  -1.93000000E-04     0.00000000    
  -1.92499996E-04     0.00000000    
  -1.92000007E-04     0.00000000    
  -1.91500003E-04     0.00000000    
  -1.90999999E-04    -2.38825235E-26
  -1.90499995E-04    -9.63881160E-26
  -1.90000006E-04    -6.45782306E-26
  -1.89500002E-04    -7.02958883E-27
  -1.88999998E-04    -3.89002845E-28
  -1.88499995E-04     7.44602419E-26
  -1.88000005E-04     1.89656990E-25
  -1.87500002E-04     4.35855314E-25
  -1.86999998E-04     8.32472094E-25
  -1.86499994E-04     1.42498562E-24
  -1.86000005E-04     2.10607659E-24
  -1.85500001E-04     3.32478760E-24
  -1.84999997E-04     4.33322202E-24
  -1.84499993E-04     5.22515983E-24
  -1.84000004E-04     5.52701233E-24
  -1.83500000E-04     2.53534807E-24
  -1.82999996E-04    -6.22943578E-24
  -1.82500007E-04    -2.63877428E-23
  -1.82000003E-04    -6.64010162E-23
  -1.81500000E-04    -1.34422075E-22
  -1.80999996E-04    -2.37384377E-22
  -1.80500007E-04    -3.72738469E-22
  -1.80000003E-04    -5.23342694E-22
  -1.79499999E-04    -6.42249251E-22
  -1.78999995E-04    -6.43407778E-22
  -1.78500006E-04    -3.90084271E-22
  -1.78000002E-04     3.08663274E-22
  -1.77499998E-04     1.68090472E-21
  -1.76999994E-04     3.95854633E-21
  -1.76500005E-04     7.30518419E-21
  -1.76000001E-04     1.17051283E-20
  -1.75499998E-04     1.68068189E-20
  -1.74999994E-04     2.17300492E-20
  -1.74500005E-04     2.48498336E-20
  -1.74000001E-04     2.35990024E-20
  -1.73499997E-04     1.43495803E-20
  -1.72999993E-04    -7.53194961E-21
  -1.72500004E-04    -4.73293036E-20
  -1.72000000E-04    -1.10157904E-19
  -1.71499996E-04    -1.99509682E-19
  -1.71000007E-04    -3.14998933E-19
  -1.70500003E-04    -4.49218785E-19
  -1.69999999E-04    -5.83770103E-19
  -1.69499996E-04    -6.84800495E-19
  -1.69000006E-04    -6.98779227E-19
  -1.68500002E-04    -5.49733068E-19
  -1.67999999E-04    -1.39806319E-19
  -1.67499995E-04     6.44419296E-19
  -1.67000006E-04     1.91696067E-18
  -1.66500002E-04     3.76584231E-18
  -1.65999998E-04     6.21225213E-18
  -1.65499994E-04     9.15446740E-18
  -1.65000005E-04     1.22977719E-17
  -1.64500001E-04     1.50757091E-17
  -1.63999997E-04     1.65736488E-17
  -1.63499994E-04     1.54725854E-17
  -1.63000004E-04     1.00399320E-17
  -1.62500000E-04    -1.79690409E-18
  -1.61999997E-04    -2.22492560E-17
  -1.61499993E-04    -5.32887485E-17
  -1.61000004E-04    -9.60390440E-17
  -1.60500000E-04    -1.49903696E-16
  -1.59999996E-04    -2.11417783E-16
  -1.59500007E-04    -2.72876217E-16
  -1.59000003E-04    -3.20872492E-16
  -1.58499999E-04    -3.35020351E-16
  -1.57999995E-04    -2.87286471E-16
  -1.57500006E-04    -1.42565015E-16
  -1.57000002E-04     1.38706648E-16
  -1.56499998E-04     5.94952713E-16
  -1.55999995E-04     1.25399014E-15
  -1.55500005E-04     2.11901089E-15
  -1.55000002E-04     3.15002617E-15
  -1.54499998E-04     4.24179997E-15
  -1.53999994E-04     5.20098982E-15
  -1.53500005E-04     5.72721624E-15
  -1.53000001E-04     5.40529035E-15
  -1.52499997E-04     3.71811168E-15
  -1.51999993E-04     9.12649744E-17
  -1.51500004E-04    -6.01928760E-15
  -1.51000000E-04    -1.49879177E-14
  -1.50499996E-04    -2.68258180E-14
  -1.50000007E-04    -4.09410698E-14
  -1.49500003E-04    -5.58767713E-14
  -1.49000000E-04    -6.90689503E-14
  -1.48499996E-04    -7.66906815E-14
  -1.48000006E-04    -7.36686645E-14
  -1.47500003E-04    -5.39707202E-14
  -1.46999999E-04    -1.12674660E-14
  -1.46499995E-04     5.99496039E-14
  -1.46000006E-04     1.62763886E-13
  -1.45500002E-04     2.95788974E-13
  -1.44999998E-04     4.50854198E-13
  -1.44499994E-04     6.10731246E-13
  -1.44000005E-04     7.47382787E-13
  -1.43500001E-04     8.21362130E-13
  -1.42999997E-04     7.83106761E-13
  -1.42499994E-04     5.76882021E-13
  -1.42000004E-04     1.48014779E-13
  -1.41500001E-04    -5.46227397E-13
  -1.40999997E-04    -1.52233749E-12
  -1.40499993E-04    -2.75370807E-12
  -1.40000004E-04    -4.15314658E-12
  -1.39500000E-04    -5.55757523E-12
  -1.38999996E-04    -6.71889454E-12
  -1.38500007E-04    -7.30560838E-12
  -1.38000003E-04    -6.92023782E-12
  -1.37499999E-04    -5.13681545E-12
  -1.36999995E-04    -1.56165196E-12
  -1.36500006E-04     4.08267213E-12
  -1.36000002E-04     1.18535433E-11
  -1.35499999E-04     2.14738644E-11
  -1.34999995E-04     3.22215449E-11
  -1.34500006E-04     4.28434718E-11
  -1.34000002E-04     5.15195386E-11
  -1.33499998E-04     5.59051624E-11
  -1.32999994E-04     5.32794885E-11
  -1.32500005E-04     4.08213290E-11
  -1.32000001E-04     1.60232504E-11
  -1.31499997E-04    -2.27653070E-11
  -1.30999993E-04    -7.56978993E-11
  -1.30500004E-04    -1.40754575E-10
  -1.30000000E-04    -2.13124671E-10
  -1.29499997E-04    -2.84766738E-10
  -1.28999993E-04    -3.44291762E-10
  -1.28500003E-04    -3.77316428E-10
  -1.28000000E-04    -3.67425340E-10
  -1.27499996E-04    -2.97834230E-10
  -1.27000007E-04    -1.53783486E-10
  -1.26500003E-04     7.44139680E-11
  -1.25999999E-04     3.87875648E-10
  -1.25499995E-04     7.75547682E-10
  -1.25000006E-04     1.21099530E-09
  -1.24500002E-04     1.65021286E-09
  -1.23999998E-04     2.03115547E-09
  -1.23499995E-04     2.27571317E-09
  -1.23000005E-04     2.29474950E-09
  -1.22500001E-04     1.99662642E-09
  -1.21999998E-04     1.29927102E-09
  -1.21500001E-04     1.45355214E-10
  -1.20999997E-04    -1.48038604E-09
  -1.20500001E-04    -3.53342311E-09
  -1.19999997E-04    -5.89353633E-09
  -1.19500000E-04    -8.35366176E-09
  -1.18999997E-04    -1.06166542E-08
  -1.18500000E-04    -1.23032118E-08
  -1.18000004E-04    -1.29736666E-08
  -1.17500000E-04    -1.21655876E-08
  -1.17000003E-04    -9.44752720E-09
  -1.16499999E-04    -4.48703696E-09
  -1.16000003E-04     2.87094215E-09
  -1.15499999E-04     1.25223787E-08
  -1.15000003E-04     2.40287239E-08
  -1.14499999E-04     3.65597366E-08
  -1.14000002E-04     4.88675482E-08
  -1.13499998E-04     5.93060676E-08
  -1.13000002E-04     6.59072583E-08
  -1.12499998E-04     6.65234410E-08
  -1.12000002E-04     5.90379692E-08
  -1.11499998E-04     4.16403125E-08
  -1.11000001E-04     1.31508529E-08
  -1.10499997E-04    -2.66297704E-08
  -1.10000001E-04    -7.65810881E-08
  -1.09499997E-04    -1.33978517E-07
  -1.09000001E-04    -1.94316016E-07
  -1.08499997E-04    -2.51288668E-07
  -1.08000000E-04    -2.96987508E-07
  -1.07499996E-04    -3.22344306E-07
  -1.07000000E-04    -3.17849896E-07
  -1.06500003E-04    -2.74541577E-07
  -1.06000000E-04    -1.85219506E-07
  -1.05500003E-04    -4.58247662E-08
  -1.04999999E-04     1.43144945E-07
  -1.04500003E-04     3.75329194E-07
  -1.03999999E-04     6.37486664E-07
  -1.03500002E-04     9.08968673E-07
  -1.02999998E-04     1.16188392E-06
  -1.02500002E-04     1.36212338E-06
  -1.01999998E-04     1.47137769E-06
  -1.01500002E-04     1.45019555E-06
  -1.00999998E-04     1.26202337E-06
  -1.00500001E-04     8.78071603E-07
  -9.99999975E-05     2.82664331E-07
  -9.95000009E-05    -5.21347147E-07
  -9.89999971E-05    -1.50768597E-06
  -9.85000006E-05    -2.62294861E-06
  -9.79999968E-05    -3.78479785E-06
  -9.75000003E-05    -4.88273963E-06
  -9.69999965E-05    -5.78210438E-06
  -9.64999999E-05    -6.33163336E-06
  -9.60000034E-05    -6.37481753E-06
  -9.54999996E-05    -5.76477714E-06
  -9.50000031E-05    -4.38207235E-06
  -9.44999992E-05    -2.15433215E-06
  -9.40000027E-05     9.23801906E-07
  -9.34999989E-05     4.77241383E-06
  -9.30000024E-05     9.21197079E-06
  -9.24999986E-05     1.39552585E-05
  -9.20000020E-05     1.86081452E-05
  -9.14999982E-05     2.26810862E-05
  -9.10000017E-05     2.56129733E-05
  -9.04999979E-05     2.68080585E-05
  -9.00000014E-05     2.56854401E-05
  -8.94999976E-05     2.17394099E-05
  -8.90000010E-05     1.46076081E-05
  -8.84999972E-05     4.14200349E-06
  -8.80000007E-05    -9.52298979E-06
  -8.74999969E-05    -2.59128956E-05
  -8.70000003E-05    -4.41732773E-05
  -8.64999965E-05    -6.30561335E-05
  -8.60000000E-05    -8.09398771E-05
  -8.55000035E-05    -9.58887322E-05
  -8.49999997E-05    -1.05755375E-04
  -8.45000031E-05    -1.08327680E-04
  -8.39999993E-05    -1.01515936E-04
  -8.35000028E-05    -8.35734827E-05
  -8.29999990E-05    -5.33381899E-05
  -8.25000025E-05    -1.04778483E-05
  -8.19999987E-05     4.42805758E-05
  -8.15000021E-05     1.08964581E-04
  -8.09999983E-05     1.80234332E-04
  -8.05000018E-05     2.53354694E-04
  -7.99999980E-05     3.22283857E-04
  -7.95000014E-05     3.79894715E-04
  -7.89999976E-05     4.18342795E-04
  -7.85000011E-05     4.29579435E-04
  -7.79999973E-05     4.05999890E-04
  -7.75000008E-05     3.41200939E-04
  -7.69999970E-05     2.30804886E-04
  -7.65000004E-05     7.33045163E-05
  -7.59999966E-05    -1.29152599E-04
  -7.55000001E-05    -3.70101770E-04
  -7.50000036E-05    -6.38320984E-04
  -7.44999998E-05    -9.17677593E-04
  -7.40000032E-05    -1.18735887E-03
  -7.34999994E-05    -1.42252864E-03
  -7.30000029E-05    -1.59546733E-03
  -7.24999991E-05    -1.67719543E-03
  -7.20000025E-05    -1.63955952E-03
  -7.14999987E-05    -1.45770505E-03
  -7.10000022E-05    -1.11282966E-03
  -7.04999984E-05    -5.95046906E-04
  -7.00000019E-05     9.38360827E-05
  -6.94999981E-05     9.37868375E-04
  -6.90000015E-05     1.90509169E-03
  -6.84999977E-05     2.94654444E-03
  -6.80000012E-05     3.99638899E-03
  -6.74999974E-05     4.97335894E-03
  -6.70000009E-05     5.78375952E-03
  -6.64999970E-05     6.32604305E-03
  -6.60000005E-05     6.49696449E-03
  -6.54999967E-05     6.19918946E-03
  -6.50000002E-05     5.35005052E-03
  -6.44999964E-05     3.89103941E-03
  -6.39999998E-05     1.79743930E-03
  -6.35000033E-05    -9.12522373E-04
  -6.29999995E-05    -4.16990230E-03
  -6.25000030E-05    -7.84939900E-03
  -6.19999992E-05    -1.17667587E-02
  -6.15000026E-05    -1.56800486E-02
  -6.09999988E-05    -1.92954168E-02
  -6.04999987E-05    -2.22778637E-02
  -5.99999985E-05    -2.42673159E-02
  -5.94999983E-05    -2.48996727E-02
  -5.90000018E-05    -2.38326341E-02
  -5.85000016E-05    -2.07750555E-02
  -5.80000014E-05    -1.55186122E-02
  -5.75000013E-05    -7.96994660E-03
  -5.70000011E-05     1.81896472E-03
  -5.65000009E-05     1.36246923E-02
  -5.60000008E-05     2.70330105E-02
  -5.55000006E-05     4.14294600E-02
  -5.50000004E-05     5.60016632E-02
  -5.45000003E-05     6.97563514E-02
  -5.40000001E-05     8.15521702E-02
  -5.34999999E-05     9.01490524E-02
  -5.29999998E-05     9.42744091E-02
  -5.24999996E-05     9.27042291E-02
  -5.19999994E-05     8.43567997E-02
  -5.14999992E-05     6.83949068E-02
  -5.09999991E-05     4.43313383E-02
  -5.04999989E-05     1.21309059E-02
  -4.99999987E-05    -2.76981182E-02
  -4.94999986E-05    -7.40312487E-02
  -4.89999984E-05   -0.125082418    
  -4.84999982E-05   -0.178393990    
  -4.80000017E-05   -0.230868489    
  -4.75000015E-05   -0.278849155    
  -4.70000014E-05   -0.318252087    
  -4.65000012E-05   -0.344750375    
  -4.60000010E-05   -0.354008913    
  -4.55000009E-05   -0.341964126    
  -4.50000007E-05   -0.305136919    
  -4.45000005E-05   -0.240966856    
  -4.40000003E-05   -0.148149878    
  -4.35000002E-05    -2.69577354E-02
  -4.30000000E-05    0.120482691    
  -4.24999998E-05    0.289977640    
  -4.19999997E-05    0.475141257    
  -4.14999995E-05    0.667388678    
  -4.09999993E-05    0.856061757    
  -4.04999992E-05     1.02870500    
  -3.99999990E-05     1.17150128    
  -3.94999988E-05     1.26987052    
  -3.89999987E-05     1.30921924    
  -3.84999985E-05     1.27582133    
  -3.79999983E-05     1.15780866    
  -3.75000018E-05    0.946218431    
  -3.70000016E-05    0.636051536    
  -3.65000014E-05    0.227283910    
  -3.60000013E-05   -0.274245352    
  -3.55000011E-05   -0.856135309    
  -3.50000009E-05    -1.49898505    
  -3.45000008E-05    -2.17629361    
  -3.40000006E-05    -2.85475063    
  -3.35000004E-05    -3.49497128    
  -3.30000003E-05    -4.05270338    
  -3.25000001E-05    -4.48052025    
  -3.19999999E-05    -4.72996998    
  -3.14999997E-05    -4.75415421    
  -3.09999996E-05    -4.51064014    
  -3.04999994E-05    -3.96461868    
  -2.99999992E-05    -3.09214449    
  -2.95000009E-05    -1.88332045    
  -2.90000007E-05   -0.345225543    
  -2.85000006E-05     1.49561751    
  -2.80000004E-05     3.59141302    
  -2.75000002E-05     5.87215900    
  -2.70000000E-05     8.24572754    
  -2.64999999E-05     10.5991611    
  -2.59999997E-05     12.8013010    
  -2.54999995E-05     14.7068014    
  -2.49999994E-05     16.1615047    
  -2.44999992E-05     17.0091724    
  -2.40000008E-05     17.0993748    
  -2.35000007E-05     16.2962646    
  -2.30000005E-05     14.4880390    
  -2.25000003E-05     11.5965843    
  -2.20000002E-05     7.58692455    
  -2.15000000E-05     2.47587514    
  -2.09999998E-05    -3.66054416    
  -2.04999997E-05    -10.6816139    
  -1.99999995E-05    -18.3787212    
  -1.94999993E-05    -26.4752674    
  -1.89999992E-05    -34.6296196    
  -1.85000008E-05    -42.4420395    
  -1.80000006E-05    -49.4653893    
  -1.75000005E-05    -55.2195549    
  -1.70000003E-05    -59.2099838    
  -1.65000001E-05    -60.9492683    
  -1.60000000E-05    -59.9818459    
  -1.54999998E-05    -55.9108238    
  -1.49999996E-05    -48.4256325    
  -1.45000004E-05    -37.3300552    
  -1.40000002E-05    -22.5685692    
  -1.35000000E-05    -4.25038004    
  -1.29999999E-05     17.3312130    
  -1.24999997E-05     41.6847076    
  -1.20000004E-05     68.1136551    
  -1.15000003E-05     95.7181854    
  -1.10000001E-05     123.405807    
  -1.04999999E-05     149.912796    
  -9.99999975E-06     173.835846    
  -9.49999958E-06     193.674622    
  -9.00000032E-06     207.884628    
  -8.50000015E-06     214.939224    
  -7.99999998E-06     213.399307    
  -7.49999981E-06     201.989777    
  -7.00000010E-06     179.678101    
  -6.49999993E-06     145.754486    
  -6.00000021E-06     99.9086304    
  -5.50000004E-06     42.3002434    
  -4.99999987E-06    -26.3807411    
  -4.50000016E-06    -104.867889    
  -3.99999999E-06    -191.289963    
  -3.50000005E-06    -283.163818    
  -3.00000011E-06    -377.411713    
  -2.49999994E-06    -470.405212    
  -1.99999999E-06    -558.037109    
  -1.50000005E-06    -635.824036    
  -9.99999997E-07    -699.035461    
  -4.99999999E-07    -742.852173    
   0.00000000        -762.547852    
   4.99999999E-07    -753.692139    
   9.99999997E-07    -712.368103    
   1.50000005E-06    -635.398499    
   1.99999999E-06    -520.573059    
   2.49999994E-06    -366.868286    
   3.00000011E-06    -174.650116    
   3.50000005E-06     54.1513710    
   3.99999999E-06     315.901245    
   4.50000016E-06     605.168701    
   4.99999987E-06     914.690674    
   5.50000004E-06     1235.40002    
   6.00000021E-06     1556.52295    
   6.49999993E-06     1865.75391    
   7.00000010E-06     2149.51343    
   7.49999981E-06     2393.27734    
   7.99999998E-06     2581.98999    
   8.50000015E-06     2700.55054    
   9.00000032E-06     2734.35449    
   9.49999958E-06     2669.89331    
   9.99999975E-06     2495.39209    
   1.04999999E-05     2201.46240    
   1.10000001E-05     1781.75500    
   1.15000003E-05     1233.58313    
   1.20000004E-05     558.511230    
   1.24999997E-05    -237.155991    
   1.29999999E-05    -1141.96033    
   1.35000000E-05    -2139.02881    
   1.40000002E-05    -3205.93604    
   1.45000004E-05    -4314.76953    
   1.49999996E-05    -5432.37402    
   1.54999998E-05    -6520.79980    
   1.60000000E-05    -7537.97314    
   1.65000001E-05    -8438.59473    
   1.70000003E-05    -9175.23047    
   1.75000005E-05    -9699.64453    
   1.80000006E-05    -9964.28125    
   1.85000008E-05    -9923.95508    
   1.89999992E-05    -9537.60059    
   1.94999993E-05    -8770.16504    
   1.99999995E-05    -7594.50146    
   2.04999997E-05    -5993.27441    
   2.09999998E-05    -3960.69824    
   2.15000000E-05    -1504.23999    
   2.20000002E-05     1353.99304    
   2.25000003E-05     4576.12207    
   2.30000005E-05     8107.68945    
   2.35000007E-05     11877.3232    
   2.40000008E-05     15796.8760    
   2.44999992E-05     19762.0234    
   2.49999994E-05     23653.5410    
   2.54999995E-05     27339.0527    
   2.59999997E-05     30675.4746    
   2.64999999E-05     33512.0508    
   2.70000000E-05     35693.9023    
   2.75000002E-05     37066.2031    
   2.80000004E-05     37478.7266    
   2.85000006E-05     36790.8984    
   2.90000007E-05     34877.0547    
   2.95000009E-05     31631.8594    
   2.99999992E-05     26975.9062    
   3.04999994E-05     20861.0254    
   3.09999996E-05     13275.2920    
   3.14999997E-05     4247.81787    
   3.19999999E-05    -6147.24756    
   3.25000001E-05    -17787.6230    
   3.30000003E-05    -30500.5332    
   3.35000004E-05    -44061.6797    
   3.40000006E-05    -58195.3594    
   3.45000008E-05    -72576.1719    
   3.50000009E-05    -86831.9531    
   3.55000011E-05    -100548.719    
   3.60000013E-05    -113276.758    
   3.65000014E-05    -124538.797    
   3.70000016E-05    -133839.125    
   3.75000018E-05    -140675.203    
   3.79999983E-05    -144549.469    
   3.84999985E-05    -144983.375    
   3.89999987E-05    -141531.500    
   3.94999988E-05    -133797.000    
   3.99999990E-05    -121446.992    
   4.04999992E-05    -104228.383    
   4.09999993E-05    -81983.0078    
   4.14999995E-05    -54661.9883    
   4.19999997E-05    -22339.3926    
   4.24999998E-05     14776.1289    
   4.30000000E-05     56331.7148    
   4.35000002E-05     101822.922    
   4.40000003E-05     150588.984    
   4.45000005E-05     201811.781    
   4.50000007E-05     254517.688    
   4.55000009E-05     307583.750    
   4.60000010E-05     359746.594    
   4.65000012E-05     409617.344    
   4.70000014E-05     455699.375    
   4.75000015E-05     496409.312    
   4.80000017E-05     530103.375    
   4.84999982E-05     555108.250    
   4.89999984E-05     569751.812    
   4.94999986E-05     572400.000    
   4.99999987E-05     561495.688    
   5.04999989E-05     535599.125    
   5.09999991E-05     493427.031    
   5.14999992E-05     433898.188    
   5.19999994E-05     356170.188    
   5.24999996E-05     259686.141    
   5.29999998E-05     144208.484    
   5.34999999E-05     9856.45215    
   5.40000001E-05    -142862.766    
   5.45000003E-05    -313023.375    
   5.50000004E-05    -499263.156    
   5.55000006E-05    -699759.438    
   5.60000008E-05    -912230.000    
   5.65000009E-05    -1133917.62    
   5.70000011E-05    -1361607.62    
   5.75000013E-05    -1591623.88    
   5.80000014E-05    -1819870.38    
   5.85000016E-05    -2041837.38    
   5.90000018E-05    -2252656.75    
   5.94999983E-05    -2447127.00    
   5.99999985E-05    -2619783.75    
   6.04999987E-05    -2764936.25    
   6.09999988E-05    -2876748.00    
   6.15000026E-05    -2949297.25    
   6.19999992E-05    -2976648.00    
   6.25000030E-05    -2952920.75    
   6.29999995E-05    -2872375.75    
   6.35000033E-05    -2729494.00    
   6.39999998E-05    -2519039.25    
   6.44999964E-05    -2236127.75    
   6.50000002E-05    -1876318.38    
   6.54999967E-05    -1435654.62    
   6.60000005E-05    -910740.188    
   6.64999970E-05    -298776.000    
   6.70000009E-05     402387.938    
   6.74999974E-05     1194242.38    
   6.80000012E-05     2077567.12    
   6.84999977E-05     3052437.75    
   6.90000015E-05     4118223.50    
   6.94999981E-05     5273622.50    
   7.00000019E-05     6516650.00    
   7.04999984E-05     7844694.50    
   7.10000022E-05     9254594.00    
   7.14999987E-05     10742627.0    
   7.20000025E-05     12304674.0    
   7.24999991E-05     13936231.0    
   7.30000029E-05     15632556.0    
   7.34999994E-05     17388672.0    
   7.40000032E-05     19199632.0    
   7.44999998E-05     21060434.0    
   7.50000036E-05     22966298.0    
   7.55000001E-05     24912738.0    
   7.59999966E-05     26895582.0    
   7.65000004E-05     28911216.0    
   7.69999970E-05     30956696.0    
   7.75000008E-05     33029692.0    
   7.79999973E-05     35128800.0    
   7.85000011E-05     37253480.0    
   7.89999976E-05     39404232.0    
   7.95000014E-05     41582664.0    
   7.99999980E-05     43791420.0    
   8.05000018E-05     46034524.0    
   8.09999983E-05     48317100.0    
   8.15000021E-05     50645672.0    
   8.19999987E-05     53027988.0    
   8.25000025E-05     55473068.0    
   8.29999990E-05     57991392.0    
   8.35000028E-05     60594520.0    
   8.39999993E-05     63295404.0    
   8.45000031E-05     66108228.0    
   8.49999997E-05     69048224.0    
   8.55000035E-05     72131896.0    
   8.60000000E-05     75376568.0    
   8.64999965E-05     78800880.0    
   8.70000003E-05     82424032.0    
   8.74999969E-05     86266408.0    
   8.80000007E-05     90348912.0    
   8.84999972E-05     94693256.0    
   8.90000010E-05     99321584.0    
   8.94999976E-05     104257256.    
   9.00000014E-05     109523304.    
   9.04999979E-05     115143640.    
   9.10000017E-05     121142376.    
   9.14999982E-05     127544200.    
   9.20000020E-05     134373728.    
   9.24999986E-05     141656240.    
   9.30000024E-05     149417296.    
   9.34999989E-05     157682432.    
   9.40000027E-05     166477664.    
   9.44999992E-05     175829088.    
   9.50000031E-05     185763200.    
   9.54999996E-05     196307072.    
   9.60000034E-05     207487968.    
   9.64999999E-05     219333248.    
   9.69999965E-05     231871392.    
   9.75000003E-05     245131232.    
   9.79999968E-05     259142096.    
   9.85000006E-05     273934240.    
   9.89999971E-05     289538432.    
   9.95000009E-05     305985952.    
   9.99999975E-05     323310528.    
   1.00500001E-04     341545728.    
   1.00999998E-04     360726720.    
   1.01500002E-04     380889344.    
   1.01999998E-04     402072384.    
   1.02500002E-04     424315264.    
   1.02999998E-04     447657792.    
   1.03500002E-04     472143104.    
   1.03999999E-04     497816640.    
   1.04500003E-04     524722208.    
   1.04999999E-04     552910144.    
   1.05500003E-04     582429632.    
   1.06000000E-04     613333696.    
   1.06500003E-04     645676992.    
   1.07000000E-04     679516800.    
   1.07499996E-04     714912576.    
   1.08000000E-04     751926080.    
   1.08499997E-04     790620544.    
   1.09000001E-04     831064384.    
   1.09499997E-04     873324864.    
   1.10000001E-04     917475712.    
   1.10499997E-04     963592768.    
   1.11000001E-04     1.01175296E+09
   1.11499998E-04     1.06203456E+09
   1.12000002E-04     1.11452403E+09
   1.12499998E-04     1.16930522E+09
   1.13000002E-04     1.22646912E+09
   1.13499998E-04     1.28610790E+09
   1.14000002E-04     1.34831283E+09
   1.14499999E-04     1.41318310E+09
   1.15000003E-04     1.48082253E+09
   1.15499999E-04     1.55133235E+09
   1.16000003E-04     1.62481958E+09
   1.16499999E-04     1.70139110E+09
   1.17000003E-04     1.78116582E+09
   1.17500000E-04     1.86425523E+09
   1.18000004E-04     1.95077210E+09
   1.18500000E-04     2.04084365E+09
   1.18999997E-04     2.13459098E+09
   1.19500000E-04     2.23214259E+09
   1.19999997E-04     2.33362355E+09
   1.20500001E-04     2.43916646E+09
   1.20999997E-04     2.54890752E+09
   1.21500001E-04     2.66297907E+09
   1.21999998E-04     2.78152320E+09
   1.22500001E-04     2.90468198E+09
   1.23000005E-04     3.03259674E+09
   1.23499995E-04     3.16541056E+09
   1.23999998E-04     3.30327629E+09
   1.24500002E-04     3.44634752E+09
   1.25000006E-04     3.59477197E+09
   1.25499995E-04     3.74870323E+09
   1.25999999E-04     3.90829824E+09
   1.26500003E-04     4.07370598E+09
   1.27000007E-04     4.24511130E+09
   1.27499996E-04     4.42264474E+09
   1.28000000E-04     4.60649267E+09
   1.28500003E-04     4.79680717E+09
   1.28999993E-04     4.99375821E+09
   1.29499997E-04     5.19751680E+09
   1.30000000E-04     5.40825037E+09
   1.30500004E-04     5.62612582E+09
   1.30999993E-04     5.85131827E+09
   1.31499997E-04     6.08400230E+09
   1.32000001E-04     6.32434074E+09
   1.32500005E-04     6.57251891E+09
   1.32999994E-04     6.82868070E+09
   1.33499998E-04     7.09303245E+09
   1.34000002E-04     7.36572826E+09
   1.34500006E-04     7.64696218E+09
   1.34999995E-04     7.93688474E+09
   1.35499999E-04     8.23568589E+09
   1.36000002E-04     8.54350950E+09
   1.36500006E-04     8.86055424E+09
   1.36999995E-04     9.18698189E+09
   1.37499999E-04     9.52295322E+09
   1.38000003E-04     9.86863002E+09
   1.38500007E-04     1.02241976E+10
   1.38999996E-04     1.05897544E+10
   1.39500000E-04     1.09655235E+10
   1.40000004E-04     1.13515919E+10
   1.40499993E-04     1.17481708E+10
   1.40999997E-04     1.21553428E+10
   1.41500001E-04     1.25732874E+10
   1.42000004E-04     1.30021110E+10
   1.42499994E-04     1.34419313E+10
   1.42999997E-04     1.38929152E+10
   1.43500001E-04     1.43550976E+10
   1.44000005E-04     1.48286239E+10
   1.44499994E-04     1.53135596E+10
   1.44999998E-04     1.58100419E+10
   1.45500002E-04     1.63180995E+10
   1.46000006E-04     1.68378143E+10
   1.46499995E-04     1.73691965E+10
   1.46999999E-04     1.79123200E+10
   1.47500003E-04     1.84672031E+10
   1.48000006E-04     1.90338826E+10
   1.48499996E-04     1.96123525E+10
   1.49000000E-04     2.02025513E+10
   1.49500003E-04     2.08045076E+10
   1.50000007E-04     2.14181130E+10
   1.50499996E-04     2.20433674E+10
   1.51000000E-04     2.26801562E+10
   1.51500004E-04     2.33283727E+10
   1.51999993E-04     2.39879680E+10
   1.52499997E-04     2.46587228E+10
   1.53000001E-04     2.53405532E+10
   1.53500005E-04     2.60333240E+10
   1.53999994E-04     2.67367772E+10
   1.54499998E-04     2.74507530E+10
   1.55000002E-04     2.81749176E+10
   1.55500005E-04     2.89090662E+10
   1.55999995E-04     2.96528978E+10
   1.56499998E-04     3.04061215E+10
   1.57000002E-04     3.11683953E+10
   1.57500006E-04     3.19393485E+10
   1.57999995E-04     3.27185654E+10
   1.58499999E-04     3.35058084E+10
   1.59000003E-04     3.43004180E+10
   1.59500007E-04     3.51019909E+10
   1.59999996E-04     3.59101809E+10
   1.60500000E-04     3.67242813E+10
   1.61000004E-04     3.75438131E+10
   1.61499993E-04     3.83682724E+10
   1.61999997E-04     3.91968604E+10
   1.62500000E-04     4.00292332E+10
   1.63000004E-04     4.08642683E+10
   1.63499994E-04     4.17017897E+10
   1.63999997E-04     4.25407365E+10
   1.64500001E-04     4.33805435E+10
   1.65000005E-04     4.42201252E+10
   1.65499994E-04     4.50588058E+10
   1.65999998E-04     4.58956472E+10
   1.66500002E-04     4.67298877E+10
   1.67000006E-04     4.75605361E+10
   1.67499995E-04     4.83866255E+10
   1.67999999E-04     4.92072018E+10
   1.68500002E-04     5.00209787E+10
   1.69000006E-04     5.08272763E+10
   1.69499996E-04     5.16246241E+10
   1.69999999E-04     5.24118958E+10
   1.70500003E-04     5.31880673E+10
   1.71000007E-04     5.39519590E+10
   1.71499996E-04     5.47021578E+10
   1.72000000E-04     5.54373079E+10
   1.72500004E-04     5.61561846E+10
   1.72999993E-04     5.68575918E+10
   1.73499997E-04     5.75399567E+10
   1.74000001E-04     5.82017188E+10
   1.74500005E-04     5.88418703E+10
   1.74999994E-04     5.94583675E+10
   1.75499998E-04     6.00500429E+10
   1.76000001E-04     6.06150902E+10
   1.76500005E-04     6.11521331E+10
   1.76999994E-04     6.16596439E+10
   1.77499998E-04     6.21356605E+10
   1.78000002E-04     6.25789788E+10
   1.78500006E-04     6.29874483E+10
   1.78999995E-04     6.33601516E+10
   1.79499999E-04     6.36944957E+10
   1.80000003E-04     6.39891415E+10
   1.80500007E-04     6.42423316E+10
   1.80999996E-04     6.44521370E+10
   1.81500000E-04     6.46169600E+10
   1.82000003E-04     6.47349248E+10
   1.82500007E-04     6.48041718E+10
   1.82999996E-04     6.48230953E+10
   1.83500000E-04     6.47898276E+10
   1.84000004E-04     6.47024640E+10
   1.84499993E-04     6.45592187E+10
   1.84999997E-04     6.43582444E+10
   1.85500001E-04     6.40980091E+10
   1.86000005E-04     6.37764403E+10
   1.86499994E-04     6.33919365E+10
   1.86999998E-04     6.29424620E+10
   1.87500002E-04     6.24266486E+10
   1.88000005E-04     6.18427064E+10
   1.88499995E-04     6.11887800E+10
   1.88999998E-04     6.04635259E+10
   1.89500002E-04     5.96646380E+10
   1.90000006E-04     5.87912110E+10
   1.90499995E-04     5.78413732E+10
   1.90999999E-04     5.68135557E+10
   1.91500003E-04     5.57060137E+10
   1.92000007E-04     5.45176617E+10
   1.92499996E-04     5.32466852E+10
   1.93000000E-04     5.18926131E+10
   1.93500004E-04     5.04528364E+10
   1.93999993E-04     4.89269535E+10
   1.94499997E-04     4.73134285E+10
   1.95000001E-04     4.56110531E+10
   1.95500004E-04     4.38193684E+10
   1.95999994E-04     4.19366216E+10
   1.96499997E-04     3.99622185E+10
   1.97000001E-04     3.78954015E+10
   1.97500005E-04     3.57356380E+10
   1.97999994E-04     3.34821765E+10
   1.98499998E-04     3.11343391E+10
   1.99000002E-04     2.86910730E+10
   1.99500006E-04     2.61521592E+10
   1.99999995E-04     2.35177001E+10
   2.00499999E-04     2.07867658E+10
   2.01000003E-04     1.79601469E+10
   2.01500006E-04     1.50376202E+10
   2.01999996E-04     1.20191099E+10
   2.02499999E-04     8.90508902E+09
   2.03000003E-04     5.69628467E+09
   2.03500007E-04     2.39273805E+09
   2.03999996E-04    -1.00477850E+09
   2.04500000E-04    -4.49532826E+09