  -1.99999995E-04     0.00000000    
  -1.99500006E-04     0.00000000    
  -1.99000002E-04     0.00000000    
  -1.98499998E-04     0.00000000    
  -1.97999994E-04     0.00000000    
  -1.97500005E-04     0.00000000    
  -1.97000001E-04     0.00000000    
  -1.96499997E-04     0.00000000    
  -1.95999994E-04     0.00000000    
  -1.95500004E-04    -1.41499115E-25
  -1.95000001E-04    -1.82186479E-24
  -1.94499997E-04    -1.49862210E-23
  -1.93999993E-04    -8.47722424E-23
  -1.93500004E-04    -3.74187752E-22
  -1.93000000E-04    -1.34302254E-21
  -1.92499996E-04    -4.08800777E-21
  -1.92000007E-04    -1.07641441E-20
  -1.91500003E-04    -2.48449174E-20
  -1.90999999E-04    -5.05763010E-20
  -1.90499995E-04    -9.06391880E-20
  -1.90000006E-04    -1.41050735E-19
  -1.89500002E-04    -1.83249858E-19
  -1.88999998E-04    -1.75623705E-19
  -1.88499995E-04    -5.03892547E-20
  -1.88000005E-04     2.74469203E-19
  -1.87500002E-04     8.57195326E-19
  -1.86999998E-04     1.66250285E-18
  -1.86499994E-04     2.46953965E-18
  -1.86000005E-04     2.79312506E-18
  -1.85500001E-04     1.88447936E-18
  -1.84999997E-04    -1.10130258E-18
  -1.84499993E-04    -6.69513619E-18
  -1.84000004E-04    -1.44529778E-17
  -1.83500000E-04    -2.21723778E-17
  -1.82999996E-04    -2.53075644E-17
  -1.82500007E-04    -1.70926269E-17
  -1.82000003E-04     1.00277426E-17
  -1.81500000E-04     6.12102867E-17
  -1.80999996E-04     1.34306523E-16
  -1.80500007E-04     2.14146036E-16
  -1.80000003E-04     2.68036773E-16
  -1.79499999E-04     2.45546222E-16
  -1.78999995E-04     8.60529756E-17
  -1.78500006E-04    -2.63221021E-16
  -1.78000002E-04    -8.18485555E-16
  -1.77499998E-04    -1.52402594E-15
  -1.76999994E-04    -2.21971146E-15
  -1.76500005E-04    -2.62605328E-15
  -1.76000001E-04    -2.36418966E-15
  -1.75499998E-04    -1.02597935E-15
  -1.74999994E-04     1.69983387E-15
  -1.74500005E-04     5.85584116E-15
  -1.74000001E-04     1.10310295E-14
  -1.73499997E-04     1.62172894E-14
  -1.72999993E-04     1.97771487E-14
  -1.72500004E-04     1.95920313E-14
  -1.72000000E-04     1.34363058E-14
  -1.71499996E-04    -4.26034888E-16
  -1.71000007E-04    -2.24950368E-14
  -1.70500003E-04    -5.12878348E-14
  -1.69999999E-04    -8.28010214E-14
  -1.69499996E-04    -1.10412493E-13
  -1.69000006E-04    -1.25413555E-13
  -1.68500002E-04    -1.18249120E-13
  -1.67999999E-04    -8.03784868E-14
  -1.67499995E-04    -6.47408288E-15
  -1.67000006E-04     1.03477455E-13
  -1.66500002E-04     2.42671362E-13
  -1.65999998E-04     3.96994070E-13
  -1.65499994E-04     5.45709907E-13
  -1.65000005E-04     6.63142338E-13
  -1.64500001E-04     7.20796415E-13
  -1.63999997E-04     6.89157824E-13
  -1.63499994E-04     5.38533736E-13
  -1.63000004E-04     2.38810978E-13
  -1.62500000E-04    -2.40945230E-13
  -1.61999997E-04    -9.31000286E-13
  -1.61499993E-04    -1.85440292E-12
  -1.61000004E-04    -3.01194551E-12
  -1.60500000E-04    -4.35633994E-12
  -1.59999996E-04    -5.75604495E-12
  -1.59500007E-04    -6.95417595E-12
  -1.59000003E-04    -7.53406712E-12
  -1.58499999E-04    -6.90908008E-12
  -1.57999995E-04    -4.35870394E-12
  -1.57500006E-04     8.67462515E-13
  -1.57000002E-04     9.36352124E-12
  -1.56499998E-04     2.13000225E-11
  -1.55999995E-04     3.61014378E-11
  -1.55500005E-04     5.21230142E-11
  -1.55000002E-04     6.64129862E-11
  -1.54499998E-04     7.46683548E-11
  -1.53999994E-04     7.14982587E-11
  -1.53500005E-04     5.10895597E-11
  -1.53000001E-04     8.31554530E-12
  -1.52499997E-04    -5.97557420E-11
  -1.51999993E-04    -1.52110852E-10
  -1.51500004E-04    -2.62079719E-10
  -1.51000000E-04    -3.76051051E-10
  -1.50499996E-04    -4.73077744E-10
  -1.50000007E-04    -5.25818278E-10
  -1.49500003E-04    -5.03167841E-10
  -1.49000000E-04    -3.74705822E-10
  -1.48499996E-04    -1.16776894E-10
  -1.48000006E-04     2.80352519E-10
  -1.47500003E-04     8.05241318E-10
  -1.46999999E-04     1.41920065E-09
  -1.46499995E-04     2.05289585E-09
  -1.46000006E-04     2.60704347E-09
  -1.45500002E-04     2.95834091E-09
  -1.44999998E-04     2.97117553E-09
  -1.44499994E-04     2.51479437E-09
  -1.44000005E-04     1.48472468E-09
  -1.43500001E-04    -1.73734777E-10
  -1.42999997E-04    -2.44288101E-09
  -1.42499994E-04    -5.21407006E-09
  -1.42000004E-04    -8.27655544E-09
  -1.41500001E-04    -1.13162031E-08
  -1.40999997E-04    -1.39256944E-08
  -1.40499993E-04    -1.56264779E-08
  -1.40000004E-04    -1.59014739E-08
  -1.39500000E-04    -1.42367398E-08
  -1.38999996E-04    -1.01698632E-08
  -1.38500007E-04    -3.34364536E-09
  -1.38000003E-04     6.43571063E-09
  -1.37499999E-04     1.91344913E-08
  -1.36999995E-04     3.44197417E-08
  -1.36500006E-04     5.15773095E-08
  -1.36000002E-04     6.94206719E-08
  -1.35499999E-04     8.61950724E-08
  -1.34999995E-04     9.94925031E-08
  -1.34500006E-04     1.06201334E-07
  -1.34000002E-04     1.02530421E-07
  -1.33499998E-04     8.41580885E-08
  -1.32999994E-04     4.65617838E-08
  -1.32500005E-04    -1.44152885E-08
  -1.32000001E-04    -1.01723295E-07
  -1.31499997E-04    -2.15985068E-07
  -1.30999993E-04    -3.54145925E-07
  -1.30500004E-04    -5.08016399E-07
  -1.30000000E-04    -6.62909201E-07
  -1.29499997E-04    -7.96675238E-07
  -1.28999993E-04    -8.79497009E-07
  -1.28500003E-04    -8.74865520E-07
  -1.28000000E-04    -7.42132499E-07
  -1.27499996E-04    -4.40957336E-07
  -1.27000007E-04     6.22048901E-08
  -1.26500003E-04     7.85726002E-07
  -1.25999999E-04     1.72306716E-06
  -1.25499995E-04     2.83260647E-06
  -1.25000006E-04     4.02850037E-06
  -1.24500002E-04     5.17444596E-06
  -1.23999998E-04     6.08248001E-06
  -1.23499995E-04     6.51911023E-06
  -1.23000005E-04     6.22081916E-06
  -1.22500001E-04     4.92029858E-06
  -1.21999998E-04     2.38382063E-06
  -1.21500001E-04    -1.54149370E-06
  -1.20999997E-04    -6.87360080E-06
  -1.20500001E-04    -1.34398506E-05
  -1.19999997E-04    -2.08270558E-05
  -1.19500000E-04    -2.83467180E-05
  -1.18999997E-04    -3.50255032E-05
  -1.18500000E-04    -3.96318610E-05
  -1.18000004E-04    -4.07478292E-05
  -1.17500000E-04    -3.68921392E-05
  -1.17000003E-04    -2.66962234E-05
  -1.16499999E-04    -9.12736778E-06
  -1.16000003E-04     1.62541000E-05
  -1.15499999E-04     4.90268612E-05
  -1.15000003E-04     8.76605118E-05
  -1.14499999E-04     1.29327440E-04
  -1.14000002E-04     1.69817897E-04
  -1.13499998E-04     2.03603573E-04
  -1.13000002E-04     2.24089716E-04
  -1.12499998E-04     2.24084637E-04
  -1.12000002E-04     1.96496301E-04
  -1.11499998E-04     1.35241717E-04
  -1.11000001E-04     3.63237959E-05
  -1.10499997E-04    -1.01006022E-04
  -1.10000001E-04    -2.73114041E-04
  -1.09499997E-04    -4.71023144E-04
  -1.09000001E-04    -6.79795456E-04
  -1.08499997E-04    -8.78431252E-04
  -1.08000000E-04    -1.04045309E-03
  -1.07499996E-04    -1.13530224E-03
  -1.07000000E-04    -1.13063457E-03
  -1.06500003E-04    -9.95489652E-04
  -1.06000000E-04    -7.04241800E-04
  -1.05500003E-04    -2.41092494E-04
  -1.04999999E-04     3.95249313E-04
  -1.04500003E-04     1.18717179E-03
  -1.03999999E-04     2.09460966E-03
  -1.03500002E-04     3.05298343E-03
  -1.02999998E-04     3.97323817E-03
  -1.02500002E-04     4.74456372E-03
  -1.01999998E-04     5.24019729E-03
  -1.01500002E-04     5.32653835E-03
  -1.00999998E-04     4.87543549E-03
  -1.00500001E-04     3.77920154E-03
  -9.99999975E-05     1.96747552E-03
  -9.95000009E-05    -5.75381331E-04
  -9.89999971E-05    -3.79395951E-03
  -9.85000006E-05    -7.54856737E-03
  -9.79999968E-05    -1.16071748E-02
  -9.75000003E-05    -1.56446509E-02
  -9.69999965E-05    -1.92511361E-02
  -9.64999999E-05    -2.19510086E-02
  -9.60000034E-05    -2.32330747E-02
  -9.54999996E-05    -2.25916449E-02
  -9.50000031E-05    -1.95772462E-02
  -9.44999992E-05    -1.38541264E-02
  -9.40000027E-05    -5.26070083E-03
  -9.34999989E-05     6.13216544E-03
  -9.30000024E-05     1.99710596E-02
  -9.24999986E-05     3.55847478E-02
  -9.20000020E-05     5.19703217E-02
  -9.14999982E-05     6.78067431E-02
  -9.10000017E-05     8.15008655E-02
  -9.04999979E-05     9.12686065E-02
  -9.00000014E-05     9.52518135E-02
  -8.94999976E-05     9.16678682E-02
  -8.90000010E-05     7.89856836E-02
  -8.84999972E-05     5.61186373E-02
  -8.80000007E-05     2.26200558E-02
  -8.74999969E-05    -2.11339612E-02
  -8.70000003E-05    -7.37936795E-02
  -8.64999965E-05   -0.132935792    
  -8.60000000E-05   -0.195033610    
  -8.55000035E-05   -0.255513608    
  -8.49999997E-05   -0.308911175    
  -8.45000031E-05   -0.349132240    
  -8.39999993E-05   -0.369820803    
  -8.35000028E-05   -0.364821076    
  -8.29999990E-05   -0.328719229    
  -8.25000025E-05   -0.257433027    
  -8.19999987E-05   -0.148813739    
  -8.15000021E-05    -3.21622775E-03
  -8.09999983E-05    0.176014870    
  -8.05000018E-05    0.382193506    
  -7.99999980E-05    0.605130136    
  -7.95000014E-05    0.831200659    
  -7.89999976E-05     1.04368985    
  -7.85000011E-05     1.22343087    
  -7.79999973E-05     1.34974468    
  -7.75000008E-05     1.40167129    
  -7.69999970E-05     1.35945272    
  -7.65000004E-05     1.20620382    
  -7.59999966E-05    0.929696977    
  -7.55000001E-05    0.524144173    
  -7.50000036E-05    -8.13988596E-03
  -7.44999998E-05   -0.655328512    
  -7.40000032E-05    -1.39507627    
  -7.34999994E-05    -2.19403577    
  -7.30000029E-05    -3.00804615    
  -7.24999991E-05    -3.78307414    
  -7.20000025E-05    -4.45699072    
  -7.14999987E-05    -4.96221828    
  -7.10000022E-05    -5.22921371    
  -7.04999984E-05    -5.19072056    
  -7.00000019E-05    -4.78665972    
  -6.94999981E-05    -3.96944904    
  -6.90000015E-05    -2.70950699    
  -6.84999977E-05    -1.00059712    
  -6.80000012E-05     1.13528371    
  -6.74999974E-05     3.64394403    
  -6.70000009E-05     6.43628025    
  -6.64999970E-05     9.38727760    
  -6.60000005E-05     12.3370304    
  -6.54999967E-05     15.0941353    
  -6.50000002E-05     17.4416523    
  -6.44999964E-05     19.1457462    
  -6.39999998E-05     19.9669781    
  -6.35000033E-05     19.6740818    
  -6.29999995E-05     18.0597992    
  -6.25000030E-05     14.9582615    
  -6.19999992E-05     10.2631321    
  -6.15000026E-05     3.94561648    
  -6.09999988E-05    -3.92882180    
  -6.04999987E-05    -13.1862364    
  -5.99999985E-05    -23.5337219    
  -5.94999983E-05    -34.5540848    
  -5.90000018E-05    -45.7069397    
  -5.85000016E-05    -56.3372345    
  -5.80000014E-05    -65.6923294    
  -5.75000013E-05    -72.9479904    
  -5.70000011E-05    -77.2435989    
  -5.65000009E-05    -77.7261124    
  -5.60000008E-05    -73.6020966    
  -5.55000006E-05    -64.1959686    
  -5.50000004E-05    -49.0124435    
  -5.45000003E-05    -27.8000984    
  -5.40000001E-05   -0.613246381    
  -5.34999999E-05     32.1329041    
  -5.29999998E-05     69.6174393    
  -5.24999996E-05     110.583534    
  -5.19999994E-05     153.328537    
  -5.14999992E-05     195.716888    
  -5.09999991E-05     235.221359    
  -5.04999989E-05     268.993408    
  -4.99999987E-05     293.965607    
  -4.94999986E-05     306.984955    
  -4.89999984E-05     304.975952    
  -4.84999982E-05     285.129089    
  -4.80000017E-05     245.108627    
  -4.75000015E-05     183.271927    
  -4.70000014E-05     98.8894806    
  -4.65000012E-05    -7.64637899    
  -4.60000010E-05    -134.637344    
  -4.55000009E-05    -278.934875    
  -4.50000007E-05    -435.849518    
  -4.45000005E-05    -599.130493    
  -4.40000003E-05    -761.024475    
  -4.35000002E-05    -912.430298    
  -4.30000000E-05    -1043.15088    
  -4.24999998E-05    -1142.24939    
  -4.19999997E-05    -1198.50574    
  -4.14999995E-05    -1200.96924    
  -4.09999993E-05    -1139.58643    
  -4.04999992E-05    -1005.89264    
  -3.99999990E-05    -793.731812    
  -3.94999988E-05    -499.977600    
  -3.89999987E-05    -125.213280    
  -3.84999985E-05     325.664581    
  -3.79999983E-05     842.973267    
  -3.75000018E-05     1411.93909    
  -3.70000016E-05     2012.60022    
  -3.65000014E-05     2619.96216    
  -3.60000013E-05     3204.43896    
  -3.55000011E-05     3732.57959    
  -3.50000009E-05     4168.12598    
  -3.45000008E-05     4473.34814    
  -3.40000006E-05     4610.68750    
  -3.35000004E-05     4544.62305    
  -3.30000003E-05     4243.73145    
  -3.25000001E-05     3682.85596    
  -3.19999999E-05     2845.29858    
  -3.14999997E-05     1724.93628    
  -3.09999996E-05     328.128418    
  -3.04999994E-05    -1324.66504    
  -2.99999992E-05    -3197.71997    
  -2.95000009E-05    -5239.41357    
  -2.90000007E-05    -7382.24365    
  -2.85000006E-05    -9543.59668    
  -2.80000004E-05    -11627.2979    
  -2.75000002E-05    -13525.9990    
  -2.70000000E-05    -15124.4189    
  -2.64999999E-05    -16303.3486    
  -2.59999997E-05    -16944.3945    
  -2.54999995E-05    -16935.3203    
  -2.49999994E-05    -16175.8154    
  -2.44999992E-05    -14583.5107    
  -2.40000008E-05    -12099.9805    
  -2.35000007E-05    -8696.52246    
  -2.30000005E-05    -4379.37012    
  -2.25000003E-05     805.871765    
  -2.20000002E-05     6770.91699    
  -2.15000000E-05     13382.8525    
  -2.09999998E-05     20463.7520    
  -2.04999997E-05     27792.1465    
  -1.99999995E-05     35106.3477    
  -1.94999993E-05     42109.8477    
  -1.89999992E-05     48478.6914    
  -1.85000008E-05     53870.7930    
  -1.80000006E-05     57936.9844    
  -1.75000005E-05     60333.6797    
  -1.70000003E-05     60736.5586    
  -1.65000001E-05     58855.2383    
  -1.60000000E-05     54447.9961    
  -1.54999998E-05     47336.5781    
  -1.49999996E-05     37419.8594    
  -1.45000004E-05     24686.4336    
  -1.40000002E-05     9225.14941    
  -1.35000000E-05    -8767.06836    
  -1.29999999E-05    -28980.0000    
  -1.24999997E-05    -50988.7891    
  -1.20000004E-05    -74256.2812    
  -1.15000003E-05    -98139.1953    
  -1.10000001E-05    -121898.930    
  -1.04999999E-05    -144716.125    
  -9.99999975E-06    -165709.484    
  -9.49999958E-06    -183958.172    
  -9.00000032E-06    -198527.594    
  -8.50000015E-06    -208497.781    
  -7.99999998E-06    -212993.750    
  -7.49999981E-06    -211217.156    
  -7.00000010E-06    -202478.031    
  -6.49999993E-06    -186226.297    
  -6.00000021E-06    -162080.812    
  -5.50000004E-06    -129856.836    
  -4.99999987E-06    -89589.3828    
  -4.50000016E-06    -41552.1367    
  -3.99999999E-06     13728.7461    
  -3.50000005E-06     75466.7344    
  -3.00000011E-06     142613.125    
  -2.49999994E-06     213862.656    
  -1.99999999E-06     287665.438    
  -1.50000005E-06     362246.719    
  -9.99999997E-07     435632.594    
  -4.99999999E-07     505683.031    
   0.00000000         570130.500    
   4.99999999E-07     626624.000    
   9.99999997E-07     672778.188    
   1.50000005E-06     706225.750    
   1.99999999E-06     724672.188    
   2.49999994E-06     725953.688    
   3.00000011E-06     708093.438    
   3.50000005E-06     669359.812    
   3.99999999E-06     608320.625    
   4.50000016E-06     523896.875    
   4.99999987E-06     415411.500    
   5.50000004E-06     282633.938    
   6.00000021E-06     125818.836    
   6.49999993E-06    -54258.6211    
   7.00000010E-06    -256279.406    
   7.49999981E-06    -478358.750    
   7.99999998E-06    -718035.875    
   8.50000015E-06    -972270.812    
   9.00000032E-06    -1237446.50    
   9.49999958E-06    -1509385.38    
   9.99999975E-06    -1783369.75    
   1.04999999E-05    -2054166.25    
   1.10000001E-05    -2316072.50    
   1.15000003E-05    -2562954.75    
   1.20000004E-05    -2788311.25    
   1.24999997E-05    -2985321.00    
   1.29999999E-05    -3146922.75    
   1.35000000E-05    -3265884.00    
   1.40000002E-05    -3334881.75    
   1.45000004E-05    -3346589.50    
   1.49999996E-05    -3293765.75    
   1.54999998E-05    -3169337.75    
   1.60000000E-05    -2966509.50    
   1.65000001E-05    -2678847.25    
   1.70000003E-05    -2300370.50    
   1.75000005E-05    -1825648.88    
   1.80000006E-05    -1249877.75    
   1.85000008E-05    -568970.438    
   1.89999992E-05     220385.891    
   1.94999993E-05     1120650.75    
   1.99999995E-05     2133401.00    
   2.04999997E-05     3259271.50    
   2.09999998E-05     4497950.00    
   2.15000000E-05     5848173.00    
   2.20000002E-05     7307717.50    
   2.25000003E-05     8873459.00    
   2.30000005E-05     10541396.0    
   2.35000007E-05     12306725.0    
   2.40000008E-05     14163930.0    
   2.44999992E-05     16106860.0    
   2.49999994E-05     18128904.0    
   2.54999995E-05     20223060.0    
   2.59999997E-05     22382094.0    
   2.64999999E-05     24598730.0    
   2.70000000E-05     26865816.0    
   2.75000002E-05     29176440.0    
   2.80000004E-05     31524146.0    
   2.85000006E-05     33903048.0    
   2.90000007E-05     36308148.0    
   2.95000009E-05     38735184.0    
   2.99999992E-05     41181232.0    
   3.04999994E-05     43644360.0    
   3.09999996E-05     46124180.0    
   3.14999997E-05     48621608.0    
   3.19999999E-05     51139192.0    
   3.25000001E-05     53681040.0    
   3.30000003E-05     56253076.0    
   3.35000004E-05     58862664.0    
   3.40000006E-05     61519172.0    
   3.45000008E-05     64233540.0    
   3.50000009E-05     67018352.0    
   3.55000011E-05     69887912.0    
   3.60000013E-05     72858120.0    
   3.65000014E-05     75946456.0    
   3.70000016E-05     79171768.0    
   3.75000018E-05     82554496.0    
   3.79999983E-05     86116088.0    
   3.84999985E-05     89879280.0    
   3.89999987E-05     93867992.0    
   3.94999988E-05     98107200.0    
   3.99999990E-05     102622800.    
   4.04999992E-05     107440928.    
   4.09999993E-05     112589000.    
   4.14999995E-05     118094736.    
   4.19999997E-05     123986872.    
   4.24999998E-05     130293672.    
   4.30000000E-05     137044336.    
   4.35000002E-05     144267648.    
   4.40000003E-05     151993776.    
   4.45000005E-05     160251920.    
   4.50000007E-05     169072000.    
   4.55000009E-05     178483520.    
   4.60000010E-05     188516352.    
   4.65000012E-05     199200496.    
   4.70000014E-05     210565200.    
   4.75000015E-05     222640464.    
   4.80000017E-05     235456784.    
   4.84999982E-05     249043280.    
   4.89999984E-05     263430592.    
   4.94999986E-05     278649728.    
   4.99999987E-05     294731104.    
   5.04999989E-05     311705856.    
   5.09999991E-05     329606624.    
   5.14999992E-05     348466464.    
   5.19999994E-05     368317952.    
   5.24999996E-05     389197056.    
   5.29999998E-05     411140576.    
   5.34999999E-05     434185792.    
   5.40000001E-05     458371264.    
   5.45000003E-05     483740672.    
   5.50000004E-05     510334880.    
   5.55000006E-05     538201920.    
   5.60000008E-05     567388096.    
   5.65000009E-05     597945280.    
   5.70000011E-05     629926528.    
   5.75000013E-05     663386560.    
   5.80000014E-05     698385728.    
   5.85000016E-05     734985536.    
   5.90000018E-05     773251008.    
   5.94999983E-05     813249984.    
   5.99999985E-05     855051968.    
   6.04999987E-05     898733312.    
   6.09999988E-05     944373056.    
   6.15000026E-05     992046400.    
   6.19999992E-05     1.04183981E+09
   6.25000030E-05     1.09384064E+09
   6.29999995E-05     1.14813798E+09
   6.35000033E-05     1.20482330E+09
   6.39999998E-05     1.26399437E+09
   6.44999964E-05     1.32574950E+09
   6.50000002E-05     1.39018368E+09
   6.54999967E-05     1.45741069E+09
   6.60000005E-05     1.52753293E+09
   6.64999970E-05     1.60066022E+09
   6.70000009E-05     1.67690829E+09
   6.74999974E-05     1.75638976E+09
   6.80000012E-05     1.83922880E+09
   6.84999977E-05     1.92554048E+09
   6.90000015E-05     2.01545408E+09
   6.94999981E-05     2.10909363E+09
   7.00000019E-05     2.20658560E+09
   7.04999984E-05     2.30807834E+09
   7.10000022E-05     2.41369677E+09
   7.14999987E-05     2.52358093E+09
   7.20000025E-05     2.63787264E+09
   7.24999991E-05     2.75672678E+09
   7.30000029E-05     2.88027904E+09
   7.34999994E-05     3.00868813E+09
   7.40000032E-05     3.14210816E+09
   7.44999998E-05     3.28069683E+09
   7.50000036E-05     3.42460134E+09
   7.55000001E-05     3.57399603E+09
   7.59999966E-05     3.72903680E+09
   7.65000004E-05     3.88988749E+09
   7.69999970E-05     4.05672013E+09
   7.75000008E-05     4.22971059E+09
   7.79999973E-05     4.40902093E+09
   7.85000011E-05     4.59483443E+09
   7.89999976E-05     4.78731622E+09
   7.95000014E-05     4.98664397E+09
   7.99999980E-05     5.19301274E+09
   8.05000018E-05     5.40660122E+09
   8.09999983E-05     5.62756813E+09
   8.15000021E-05     5.85613363E+09
   8.19999987E-05     6.09245491E+09
   8.25000025E-05     6.33673114E+09
   8.29999990E-05     6.58913126E+09
   8.35000028E-05     6.84987546E+09
   8.39999993E-05     7.11912909E+09
   8.45000031E-05     7.39708928E+09
   8.49999997E-05     7.68393728E+09
   8.55000035E-05     7.97987686E+09
   8.60000000E-05     8.28511539E+09
   8.64999965E-05     8.59982848E+09
   8.70000003E-05     8.92420096E+09
   8.74999969E-05     9.25842125E+09
   8.80000007E-05     9.60269312E+09
   8.84999972E-05     9.95718451E+09
   8.90000010E-05     1.03220572E+10
   8.94999976E-05     1.06975130E+10
   9.00000014E-05     1.10837125E+10
   9.04999979E-05     1.14808310E+10
   9.10000017E-05     1.18890977E+10
   9.14999982E-05     1.23086356E+10
   9.20000020E-05     1.27396004E+10
   9.24999986E-05     1.31821619E+10
   9.30000024E-05     1.36365271E+10
   9.34999989E-05     1.41027666E+10
   9.40000027E-05     1.45810606E+10
   9.44999992E-05     1.50715525E+10
   9.50000031E-05     1.55742730E+10
   9.54999996E-05     1.60894464E+10
   9.60000034E-05     1.66171730E+10
   9.64999999E-05     1.71574907E+10
   9.69999965E-05     1.77104282E+10
   9.75000003E-05     1.82761492E+10
   9.79999968E-05     1.88546970E+10
   9.85000006E-05     1.94461164E+10
   9.89999971E-05     2.00504771E+10
   9.95000009E-05     2.06676992E+10
   9.99999975E-05     2.12978708E+10
   1.00500001E-04     2.19409736E+10
   1.00999998E-04     2.25969357E+10
   1.01500002E-04     2.32657510E+10
   1.01999998E-04     2.39473193E+10
   1.02500002E-04     2.46416077E+10
   1.02999998E-04     2.53484421E+10
   1.03500002E-04     2.60678185E+10
   1.03999999E-04     2.67995116E+10
   1.04500003E-04     2.75433943E+10
   1.04999999E-04     2.82992783E+10
   1.05500003E-04     2.90668892E+10
   1.06000000E-04     2.98459976E+10
   1.06500003E-04     3.06363310E+10
   1.07000000E-04     3.14376192E+10
   1.07499996E-04     3.22496963E+10
   1.08000000E-04     3.30720420E+10
   1.08499997E-04     3.39044946E+10
   1.09000001E-04     3.47465646E+10
   1.09499997E-04     3.55980124E+10
   1.10000001E-04     3.64582625E+10
   1.10499997E-04     3.73267866E+10
   1.11000001E-04     3.82032445E+10
   1.11499998E-04     3.90868255E+10
   1.12000002E-04     3.99774310E+10
   1.12499998E-04     4.08740291E+10
   1.13000002E-04     4.17761280E+10
   1.13499998E-04     4.26830561E+10
   1.14000002E-04     4.35940803E+10
   1.14499999E-04     4.45087252E+10
   1.15000003E-04     4.54260040E+10
   1.15499999E-04     4.63455764E+10
   1.16000003E-04     4.72662753E+10
   1.16499999E-04     4.81874862E+10
   1.17000003E-04     4.91076690E+10
   1.17500000E-04     5.00265738E+10
   1.18000004E-04     5.09429350E+10
   1.18500000E-04     5.18556713E+10
   1.18999997E-04     5.27637586E+10
   1.19500000E-04     5.36661361E+10
   1.19999997E-04     5.45616609E+10
   1.20500001E-04     5.54491658E+10
   1.20999997E-04     5.63271516E+10
   1.21500001E-04     5.71946680E+10
   1.21999998E-04     5.80502487E+10
   1.22500001E-04     5.88929638E+10
   1.23000005E-04     5.97213471E+10
   1.23499995E-04     6.05335142E+10
   1.23999998E-04     6.13282693E+10
   1.24500002E-04     6.21042606E+10
   1.25000006E-04     6.28598252E+10
   1.25499995E-04     6.35930419E+10
   1.25999999E-04     6.43029484E+10
   1.26500003E-04     6.49884262E+10
   1.27000007E-04     6.56463749E+10
   1.27499996E-04     6.62756966E+10
   1.28000000E-04     6.68751094E+10
   1.28500003E-04     6.74427945E+10
   1.28999993E-04     6.79763804E+10
   1.29499997E-04     6.84748104E+10
   1.30000000E-04     6.89352376E+10
   1.30500004E-04     6.93562163E+10
   1.30999993E-04     6.97362268E+10
   1.31499997E-04     7.00729262E+10
   1.32000001E-04     7.03651758E+10
   1.32500005E-04     7.06102886E+10
   1.32999994E-04     7.08064133E+10
   1.33499998E-04     7.09517066E+10
   1.34000002E-04     7.10440960E+10
   1.34500006E-04     7.10818038E+10
   1.34999995E-04     7.10632899E+10
   1.35499999E-04     7.09861130E+10
   1.36000002E-04     7.08485448E+10
   1.36500006E-04     7.06487337E+10
   1.36999995E-04     7.03843287E+10
   1.37499999E-04     7.00537733E+10
   1.38000003E-04     6.96538235E+10
   1.38500007E-04     6.91843236E+10
   1.38999996E-04     6.86415872E+10
   1.39500000E-04     6.80251597E+10
   1.40000004E-04     6.73329889E+10
   1.40499993E-04     6.65621217E+10
   1.40999997E-04     6.57114153E+10
   1.41500001E-04     6.47789363E+10
   1.42000004E-04     6.37629235E+10
   1.42499994E-04     6.26620375E+10
   1.42999997E-04     6.14738166E+10
   1.43500001E-04     6.01967411E+10
   1.44000005E-04     5.88309258E+10
   1.44499994E-04     5.73733560E+10
   1.44999998E-04     5.58237737E+10
   1.45500002E-04     5.41788365E+10
   1.46000006E-04     5.24393636E+10
   1.46499995E-04     5.06023322E+10
   1.46999999E-04     4.86681723E+10
   1.47500003E-04     4.66330911E+10
   1.48000006E-04     4.44991201E+10
   1.48499996E-04     4.22641254E+10
   1.49000000E-04     3.99256003E+10
   1.49500003E-04     3.74855066E+10
   1.50000007E-04     3.49412188E+10
   1.50499996E-04     3.22916782E+10
   1.51000000E-04     2.95364485E+10
   1.51500004E-04     2.66767770E+10
   1.51999993E-04     2.37123789E+10
   1.52499997E-04     2.06406554E+10
   1.53000001E-04     1.74643814E+10
   1.53500005E-04     1.41840753E+10
   1.53999994E-04     1.07987395E+10
   1.54499998E-04     7.30848358E+09
   1.55000002E-04     3.71425664E+09
   1.55500005E-04     16954002.0    
   1.55999995E-04    -3.78302669E+09
   1.56499998E-04    -7.68421274E+09
   1.57000002E-04    -1.16864901E+10
   1.57500006E-04    -1.57882583E+10
   1.57999995E-04    -1.99899136E+10
   1.58499999E-04    -2.42891653E+10
   1.59000003E-04    -2.86826209E+10
   1.59500007E-04    -3.31698381E+10
   1.59999996E-04    -3.77465897E+10
   1.60500000E-04    -4.24131052E+10
   1.61000004E-04    -4.71659028E+10
   1.61499993E-04    -5.20010834E+10
   1.61999997E-04    -5.69182331E+10
   1.62500000E-04    -6.19134321E+10
   1.63000004E-04    -6.69843292E+10
   1.63499994E-04    -7.21282580E+10
   1.63999997E-04    -7.73393121E+10
   1.64500001E-04    -8.26202112E+10
   1.65000005E-04    -8.79621571E+10
   1.65499994E-04    -9.33637898E+10
   1.65999998E-04    -9.88207759E+10
   1.66500002E-04    -1.04328446E+11
   1.67000006E-04    -1.09884219E+11
   1.67499995E-04    -1.15482010E+11
   1.67999999E-04    -1.21113313E+11
   1.68500002E-04    -1.26778696E+11
   1.69000006E-04    -1.32469129E+11
   1.69499996E-04    -1.38184212E+11
   1.69999999E-04    -1.43915532E+11
   1.70500003E-04    -1.49659845E+11
   1.71000007E-04    -1.55408335E+11
   1.71499996E-04    -1.61160380E+11
   1.72000000E-04    -1.66906741E+11
   1.72500004E-04    -1.72646007E+11
   1.72999993E-04    -1.78368463E+11
   1.73499997E-04    -1.84070095E+11
   1.74000001E-04    -1.89744972E+11
   1.74500005E-04    -1.95385541E+11
   1.74999994E-04    -2.00985739E+11
   1.75499998E-04    -2.06539424E+11
   1.76000001E-04    -2.12040385E+11
   1.76500005E-04    -2.17481118E+11
   1.76999994E-04    -2.22855594E+11
   1.77499998E-04    -2.28157964E+11
   1.78000002E-04    -2.33380610E+11
   1.78500006E-04    -2.38515028E+11
   1.78999995E-04    -2.43556909E+11
   1.79499999E-04    -2.48499077E+11
   1.80000003E-04    -2.53333750E+11
   1.80500007E-04    -2.58057273E+11
   1.80999996E-04    -2.62658114E+11
   1.81500000E-04    -2.67137057E+11
   1.82000003E-04    -2.71478817E+11
   1.82500007E-04    -2.75681378E+11
   1.82999996E-04    -2.79738319E+11
   1.83500000E-04    -2.83639022E+11
   1.84000004E-04    -2.87378309E+11
   1.84499993E-04    -2.90950283E+11
   1.84999997E-04    -2.94347866E+11
   1.85500001E-04    -2.97566929E+11
   1.86000005E-04    -3.00601573E+11
   1.86499994E-04    -3.03441838E+11
   1.86999998E-04    -3.06085954E+11
   1.87500002E-04    -3.08525531E+11
   1.88000005E-04    -3.10755656E+11
   1.88499995E-04    -3.12771314E+11
   1.88999998E-04    -3.14567950E+11
   1.89500002E-04    -3.16139438E+11
   1.90000006E-04    -3.17481681E+11
   1.90499995E-04    -3.18587273E+11
   1.90999999E-04    -3.19453528E+11
   1.91500003E-04    -3.20072647E+11
   1.92000007E-04    -3.20444662E+11
   1.92499996E-04    -3.20562102E+11
   1.93000000E-04    -3.20424018E+11
   1.93500004E-04    -3.20025526E+11
   1.93999993E-04    -3.19362433E+11
   1.94499997E-04    -3.18433559E+11
   1.95000001E-04    -3.17234971E+11
   1.95500004E-04    -3.15764900E+11
   1.95999994E-04    -3.14020987E+11
   1.96499997E-04    -3.12002445E+11
   1.97000001E-04    -3.09707014E+11
   1.97500005E-04    -3.07134104E+11
   1.97999994E-04    -3.04281354E+11
   1.98499998E-04    -3.01147259E+11
   1.99000002E-04    -2.97733587E+11
   1.99500006E-04    -2.94038798E+11
   1.99999995E-04    -2.90062631E+11
   2.00499999E-04    -2.85805871E+11
   2.01000003E-04    -2.81269666E+11
   2.01500006E-04    -2.76454900E+11
   2.01999996E-04    -2.71363670E+11
   2.02499999E-04    -2.65998565E+11
   2.03000003E-04    -2.60362420E+11
   2.03500007E-04    -2.54457545E+11
   2.03999996E-04    -2.48286921E+11
   2.04500000E-04    -2.41854628E+11