  -1.9999999999999998E-004     0.0000000000000000     
  -1.9949999999999997E-004     0.0000000000000000     
  -1.9899999999999999E-004     0.0000000000000000     
  -1.9849999999999997E-004     0.0000000000000000     
  -1.9799999999999999E-004     0.0000000000000000     
  -1.9749999999999998E-004     0.0000000000000000     
  -1.9699999999999999E-004     1.3643083298640954E-019
  -1.9649999999999998E-004     1.3740315433548994E-018
  -1.9599999999999999E-004     7.0952233173866899E-018
  -1.9549999999999998E-004     2.4781157219872769E-017
  -1.9499999999999997E-004     6.5176939710216990E-017
  -1.9449999999999998E-004     1.3660065034255276E-016
  -1.9399999999999997E-004     2.3809544983940418E-016
  -1.9349999999999999E-004     3.6644724433616958E-016
  -1.9299999999999997E-004     5.5760302393359858E-016
  -1.9249999999999999E-004     9.5876628847629887E-016
  -1.9199999999999998E-004     1.8545865849763403E-015
  -1.9149999999999999E-004     3.4508324009607210E-015
  -1.9099999999999998E-004     5.1350633570997904E-015
  -1.9050000000000000E-004     4.0160388654046327E-015
  -1.8999999999999998E-004    -7.0250959006900060E-015
  -1.8949999999999997E-004    -4.0688095718021458E-014
  -1.8899999999999999E-004    -1.1381457898682500E-013
  -1.8849999999999997E-004    -2.4022830405834868E-013
  -1.8799999999999999E-004    -4.1536691260591730E-013
  -1.8749999999999998E-004    -5.9299546914886444E-013
  -1.8699999999999999E-004    -6.5979018286298226E-013
  -1.8649999999999998E-004    -4.2098324153724354E-013
  -1.8599999999999999E-004     3.8280686352706173E-013
  -1.8549999999999998E-004     2.0057890375288394E-012
  -1.8500000000000000E-004     4.5604435837333906E-012
  -1.8449999999999999E-004     7.8223634816689952E-012
  -1.8399999999999997E-004     1.1019976704276377E-011
  -1.8349999999999999E-004     1.2692495108645866E-011
  -1.8299999999999998E-004     1.0732692911374653E-011
  -1.8249999999999999E-004     2.7316456057169359E-012
  -1.8199999999999998E-004    -1.3300462803080971E-011
  -1.8149999999999999E-004    -3.7869661404268393E-011
  -1.8099999999999998E-004    -6.8774437337129719E-011
  -1.8050000000000000E-004    -1.0007568704966566E-010
  -1.7999999999999998E-004    -1.2174325700472620E-010
  -1.7949999999999997E-004    -1.2047569838815811E-010
  -1.7899999999999999E-004    -8.2037936979522472E-011
  -1.7849999999999997E-004     4.8867852138789800E-012
  -1.7799999999999999E-004     1.4383874305500474E-010
  -1.7749999999999998E-004     3.2576225081505126E-010
  -1.7699999999999999E-004     5.2568779396553544E-010
  -1.7649999999999998E-004     7.0245457720081535E-010
  -1.7600000000000000E-004     8.0262829569044383E-010
  -1.7549999999999998E-004     7.6885507308891547E-010
  -1.7499999999999997E-004     5.5164103695365361E-010
  -1.7449999999999999E-004     1.2224828549252392E-010
  -1.7399999999999997E-004    -5.1648674400634538E-010
  -1.7349999999999999E-004    -1.3245289848796757E-009
  -1.7299999999999998E-004    -2.2261318286231018E-009
  -1.7249999999999999E-004    -3.1180034237662974E-009
  -1.7199999999999998E-004    -3.8807919703434509E-009
  -1.7149999999999999E-004    -4.3881278574039096E-009
  -1.7099999999999998E-004    -4.5068962969598121E-009
  -1.7049999999999997E-004    -4.0847419250823796E-009
  -1.6999999999999999E-004    -2.9267351024484818E-009
  -1.6949999999999997E-004    -7.7204466529421755E-010
  -1.6899999999999999E-004     2.7090075607048119E-009
  -1.6849999999999998E-004     7.8702513658863612E-009
  -1.6799999999999999E-004     1.4971023984752781E-008
  -1.6749999999999998E-004     2.3968537226515383E-008
  -1.6699999999999999E-004     3.4232211525257786E-008
  -1.6649999999999998E-004     4.4228365191502315E-008
  -1.6599999999999997E-004     5.1267220145956246E-008
  -1.6549999999999998E-004     5.1442576202086427E-008
  -1.6500000000000000E-004     3.9911645296218780E-008
  -1.6449999999999999E-004     1.1642627606874391E-008
  -1.6399999999999997E-004    -3.7307006613162399E-008
  -1.6349999999999999E-004    -1.0804794093369337E-007
  -1.6299999999999998E-004    -1.9687304122151577E-007
  -1.6249999999999999E-004    -2.9344103552813543E-007
  -1.6199999999999998E-004    -3.7969298617735712E-007
  -1.6149999999999997E-004    -4.3014808731958153E-007
  -1.6099999999999998E-004    -4.1417042473014977E-007
  -1.6050000000000000E-004    -3.0057667132079933E-007
  -1.5999999999999999E-004    -6.4536938541618811E-008
  -1.5949999999999997E-004     3.0384069664274955E-007
  -1.5899999999999999E-004     7.9050953044079398E-007
  -1.5849999999999998E-004     1.3499250468832910E-006
  -1.5799999999999999E-004     1.9012148888672772E-006
  -1.5749999999999998E-004     2.3303415786394432E-006
  -1.5699999999999999E-004     2.5001278468517725E-006
  -1.5649999999999998E-004     2.2688589149811244E-006
  -1.5600000000000000E-004     1.5167195599068251E-006
  -1.5549999999999999E-004     1.7729377461651886E-007
  -1.5499999999999997E-004    -1.7305251146875574E-006
  -1.5449999999999999E-004    -4.0765317287947792E-006
  -1.5399999999999998E-004    -6.6061179131739613E-006
  -1.5349999999999999E-004    -8.9466875303582853E-006
  -1.5299999999999998E-004    -1.0638142526856369E-005
  -1.5249999999999999E-004    -1.1188491225339639E-005
  -1.5199999999999998E-004    -1.0150925587063209E-005
  -1.5150000000000000E-004    -7.2135237446474502E-006
  -1.5099999999999998E-004    -2.2874917308281966E-006
  -1.5049999999999997E-004     4.4229681263319866E-006
  -1.4999999999999999E-004     1.2387163496721075E-005
  -1.4949999999999997E-004     2.0766129136099204E-005
  -1.4899999999999999E-004     2.8490588815312988E-005
  -1.4849999999999998E-004     3.4396876170671390E-005
  -1.4799999999999999E-004     3.7406449071334833E-005
  -1.4749999999999998E-004     3.6721128150323520E-005
  -1.4700000000000000E-004     3.1996229148440637E-005
  -1.4649999999999998E-004     2.3448243567190542E-005
  -1.4599999999999997E-004     1.1856035793412931E-005
  -1.4549999999999999E-004    -1.5719383254830791E-006
  -1.4500000000000000E-004    -1.5469117243762229E-005
  -1.4449999999999999E-004    -2.8696382976566653E-005
  -1.4399999999999998E-004    -4.0777423864319660E-005
  -1.4349999999999999E-004    -5.2289093907754891E-005
  -1.4299999999999998E-004    -6.5085763507628992E-005
  -1.4249999999999999E-004    -8.2226784449539406E-005
  -1.4199999999999998E-004    -1.0750157047818575E-004
  -1.4149999999999997E-004    -1.4448587945520421E-004
  -1.4099999999999998E-004    -1.9514873414731146E-004
  -1.4050000000000000E-004    -2.5813192607243498E-004
  -1.3999999999999999E-004    -3.2694746696548393E-004
  -1.3949999999999998E-004    -3.8844556731046744E-004
  -1.3899999999999999E-004    -4.2201239150575282E-004
  -1.3850000000000001E-004    -3.9997835665546850E-004
  -1.3799999999999999E-004    -2.8968965692644926E-004
  -1.3749999999999998E-004    -5.7567959357755820E-005
  -1.3699999999999997E-004     3.2478005159817234E-004
  -1.3649999999999998E-004     8.7264502101907517E-004
  -1.3600000000000000E-004     1.5791596515209280E-003
  -1.3549999999999999E-004     2.4062484427515530E-003
  -1.3499999999999997E-004     3.2770730159807338E-003
  -1.3449999999999999E-004     4.0718175691229815E-003
  -1.3400000000000000E-004     4.6287984770521009E-003
  -1.3349999999999999E-004     4.7526156408963056E-003
  -1.3299999999999998E-004     4.2307678514925673E-003
  -1.3249999999999997E-004     2.8591469427239938E-003
  -1.3199999999999998E-004     4.7580164998770719E-004
  -1.3150000000000000E-004    -2.9991435947600478E-003
  -1.3099999999999999E-004    -7.5210813541367509E-003
  -1.3049999999999997E-004    -1.2881161346396898E-002
  -1.2999999999999999E-004    -1.8675667707724507E-002
  -1.2950000000000000E-004    -2.4291669828895059E-002
  -1.2899999999999999E-004    -2.8915981763557034E-002
  -1.2849999999999998E-004    -3.1573965329745907E-002
  -1.2799999999999997E-004    -3.1201800422257227E-002
  -1.2749999999999998E-004    -2.6753575748085238E-002
  -1.2700000000000000E-004    -1.7339891266788154E-002
  -1.2649999999999998E-004    -2.3898623134611767E-003
  -1.2599999999999997E-004     1.8176578745632940E-002
  -1.2549999999999999E-004     4.3784142671227176E-002
  -1.2500000000000000E-004     7.3067233627903197E-002
  -1.2449999999999999E-004    0.10378969928689445     
  -1.2399999999999998E-004    0.13284247030104981     
  -1.2349999999999997E-004    0.15634204016310282     
  -1.2299999999999998E-004    0.16984498301569945     
  -1.2250000000000000E-004    0.16868541865491407     
  -1.2199999999999998E-004    0.14843038149516258     
  -1.2149999999999999E-004    0.10543343765388574     
  -1.2099999999999999E-004     3.7453143075573736E-002
  -1.2049999999999999E-004    -5.5716151088256033E-002
  -1.1999999999999999E-004   -0.17166103221687393     
  -1.1949999999999999E-004   -0.30489017106489608     
  -1.1899999999999999E-004   -0.44657305093182886     
  -1.1849999999999998E-004   -0.58455625945646683     
  -1.1799999999999998E-004   -0.70371905785560551     
  -1.1749999999999998E-004   -0.78671279312026754     
  -1.1699999999999998E-004   -0.81510834955994782     
  -1.1649999999999999E-004   -0.77092752839183287     
  -1.1599999999999999E-004   -0.63850575637929696     
  -1.1549999999999999E-004   -0.40658342940705045     
  -1.1499999999999999E-004    -7.0477470795913710E-002
  -1.1449999999999999E-004    0.36584071991994782     
  -1.1399999999999999E-004    0.88799033802786953     
  -1.1349999999999998E-004     1.4699656012073161     
  -1.1299999999999998E-004     2.0737028842161558     
  -1.1249999999999998E-004     2.6496281345018451     
  -1.1199999999999998E-004     3.1383666412773521     
  -1.1149999999999999E-004     3.4736982520841724     
  -1.1099999999999999E-004     3.5867908288186703     
  -1.1049999999999999E-004     3.4115977271981932     
  -1.0999999999999999E-004     2.8912299212176560     
  -1.0949999999999999E-004     1.9849374151460828     
  -1.0899999999999999E-004    0.67525863362943062     
  -1.0849999999999998E-004    -1.0251969657499220     
  -1.0799999999999998E-004    -3.0680450797996697     
  -1.0749999999999998E-004    -5.3651218299123231     
  -1.0699999999999999E-004    -7.7868787497489969     
  -1.0649999999999999E-004    -10.163814237165182     
  -1.0599999999999999E-004    -12.291387231273816     
  -1.0549999999999999E-004    -13.938795047120530     
  -1.0499999999999999E-004    -14.861631215812645     
  -1.0449999999999999E-004    -14.818205573126312     
  -1.0399999999999998E-004    -13.589032199455884     
  -1.0349999999999998E-004    -10.998501949626355     
  -1.0299999999999998E-004    -6.9376156312238413     
  -1.0249999999999998E-004    -1.3861974709066287     
  -1.0199999999999999E-004     5.5672231178248603     
  -1.0149999999999999E-004     13.709654839924642     
  -1.0099999999999999E-004     22.694092035992593     
  -1.0049999999999999E-004     32.037880145155214     
  -9.9999999999999991E-005     41.130728515843970     
  -9.9499999999999993E-005     49.253389313970779     
  -9.8999999999999980E-005     55.607632038654451     
  -9.8499999999999982E-005     59.357556377962162     
  -9.7999999999999983E-005     59.681103162649286     
  -9.7499999999999985E-005     55.830068660362265     
  -9.6999999999999986E-005     47.196410636025803     
  -9.6499999999999987E-005     33.380297617070383     
  -9.5999999999999989E-005     14.257012862384444     
  -9.5499999999999990E-005    -9.9631952287756285     
  -9.4999999999999992E-005    -38.686522283983884     
  -9.4499999999999993E-005    -70.903940341720357     
  -9.3999999999999981E-005    -105.18130786420778     
  -9.3499999999999982E-005    -139.67450460309448     
  -9.2999999999999984E-005    -172.17426274235038     
  -9.2499999999999985E-005    -200.18098818000169     
  -9.1999999999999987E-005    -221.01077217608750     
  -9.1499999999999988E-005    -231.93072117599570     
  -9.0999999999999989E-005    -230.31900298028393     
  -9.0499999999999991E-005    -213.84573020856504     
  -8.9999999999999992E-005    -180.66436813992360     
  -8.9499999999999994E-005    -129.60687697697216     
  -8.8999999999999981E-005    -60.368542930448264     
  -8.8499999999999983E-005     26.326126997998479     
  -8.7999999999999984E-005     128.59240624266263     
  -8.7499999999999986E-005     243.29874832860926     
  -8.6999999999999987E-005     366.03880141442829     
  -8.6499999999999988E-005     491.16854645827914     
  -8.5999999999999990E-005     611.92000891686098     
  -8.5499999999999991E-005     720.59224514026425     
  -8.4999999999999993E-005     808.82375588989692     
  -8.4499999999999994E-005     867.94184313608196     
  -8.3999999999999982E-005     889.38005787663451     
  -8.3499999999999983E-005     865.15444399242767     
  -8.2999999999999985E-005     788.38030172364029     
  -8.2499999999999986E-005     653.80957675737216     
  -8.1999999999999987E-005     458.36359960479342     
  -8.1499999999999989E-005     201.63580696623649     
  -8.0999999999999990E-005    -113.66631700042196     
  -8.0499999999999992E-005    -481.36690325463877     
  -7.9999999999999993E-005    -891.58826350734671     
  -7.9499999999999994E-005    -1330.6646342698200     
  -7.8999999999999982E-005    -1781.2199450231592     
  -7.8499999999999984E-005    -2222.4471361764345     
  -7.7999999999999985E-005    -2630.5709761700919     
  -7.7499999999999986E-005    -2979.5447404267461     
  -7.7000000000000001E-005    -3241.9315231809451     
  -7.6499999999999989E-005    -3389.9876585576681     
  -7.5999999999999977E-005    -3396.9207576187637     
  -7.5499999999999992E-005    -3238.2802387900492     
  -7.4999999999999980E-005    -2893.4566287512439     
  -7.4499999999999995E-005    -2347.2098825201329     
  -7.3999999999999983E-005    -1591.1964753714326     
  -7.3499999999999998E-005    -625.40865334845728     
  -7.2999999999999985E-005     540.55127760344180     
  -7.2500000000000000E-005     1886.4234232215706     
  -7.1999999999999988E-005     3380.5565822073518     
  -7.1499999999999976E-005     4979.5686602691867     
  -7.0999999999999991E-005     6628.4584652144231     
  -7.0499999999999979E-005     8261.2314345636878     
  -6.9999999999999994E-005     9802.1108635965229     
  -6.9499999999999982E-005     11167.311439813862     
  -6.8999999999999997E-005     12267.444423579529     
  -6.8499999999999985E-005     13010.502601353779     
  -6.7999999999999999E-005     13305.366726700631     
  -6.7499999999999987E-005     13065.841548131255     
  -6.6999999999999975E-005     12215.032969171052     
  -6.6499999999999990E-005     10689.968549243025     
  -6.5999999999999978E-005     8446.3130599419528     
  -6.5499999999999993E-005     5462.9946453217199     
  -6.4999999999999981E-005     1746.5164109050836     
  -6.4499999999999996E-005    -2665.2361479604933     
  -6.3999999999999984E-005    -7699.9584333488137     
  -6.3499999999999999E-005    -13248.902053382677     
  -6.2999999999999986E-005    -19165.957843713619     
  -6.2500000000000001E-005    -25268.278771749450     
  -6.1999999999999989E-005    -31338.283887178484     
  -6.1499999999999977E-005    -37127.543701937662     
  -6.0999999999999992E-005    -42362.246621729639     
  -6.0499999999999980E-005    -46750.487831217819     
  -5.9999999999999995E-005    -49991.252276927575     
  -5.9499999999999983E-005    -51784.894835461622     
  -5.8999999999999998E-005    -51844.860292938247     
  -5.8499999999999985E-005    -49910.472363354245     
  -5.8000000000000000E-005    -45760.329078320734     
  -5.7499999999999988E-005    -39225.611455153936     
  -5.6999999999999976E-005    -30203.426118757357     
  -5.6499999999999991E-005    -18668.758174275783     
  -5.5999999999999979E-005    -4685.4650532803907     
  -5.5499999999999994E-005     11585.450160421828     
  -5.4999999999999982E-005     29879.460734697390     
  -5.4499999999999997E-005     49825.735162882476     
  -5.3999999999999984E-005     70947.788536032531     
  -5.3499999999999999E-005     92667.692173094765     
  -5.2999999999999987E-005     114314.67987758112     
  -5.2500000000000002E-005     135137.64804578960     
  -5.1999999999999990E-005     154321.79165927408     
  -5.1499999999999978E-005     171008.97149678008     
  -5.0999999999999993E-005     184321.42524842147     
  -5.0499999999999981E-005     193388.69162598817     
  -4.9999999999999996E-005     197376.03397791937     
  -4.9499999999999983E-005     195515.49033494332     
  -4.8999999999999998E-005     187136.21453305567     
  -4.8499999999999986E-005     171694.24136726692     
  -4.8000000000000001E-005     148802.75803433917     
  -4.7499999999999989E-005     118258.05460741986     
  -4.6999999999999977E-005     80062.126346486169     
  -4.6499999999999992E-005     34443.057765254809     
  -4.5999999999999980E-005    -18132.014944756989     
  -4.5499999999999995E-005    -76947.688651784803     
  -4.4999999999999983E-005    -141038.02379564790     
  -4.4499999999999997E-005    -209191.09835919944     
  -4.3999999999999985E-005    -279958.20702412236     
  -4.3500000000000000E-005    -351672.28461491287     
  -4.2999999999999988E-005    -422470.03057177004     
  -4.2500000000000003E-005    -490322.54291421053     
  -4.1999999999999991E-005    -553067.78294208215     
  -4.1499999999999979E-005    -608451.91260838625     
  -4.0999999999999994E-005    -654172.10712038516     
  -4.0499999999999982E-005    -687924.24249711586     
  -3.9999999999999996E-005    -707452.20341576426     
  -3.9499999999999984E-005    -710597.80415021826     
  -3.8999999999999999E-005    -695356.33464174869     
  -3.8499999999999987E-005    -659926.87319961272     
  -3.8000000000000002E-005    -602764.88235359290     
  -3.7499999999999990E-005    -522634.38455415680     
  -3.6999999999999978E-005    -418656.38643071137     
  -3.6499999999999993E-005    -290356.77439024858     
  -3.5999999999999981E-005    -137708.69745620035     
  -3.5499999999999996E-005     38823.787169559546     
  -3.4999999999999983E-005     238255.04217517431     
  -3.4499999999999998E-005     459040.06513944786     
  -3.3999999999999986E-005     699054.69350090891     
  -3.3500000000000001E-005     955573.75892183860     
  -3.2999999999999989E-005     1225254.8533166954     
  -3.2499999999999977E-005     1504144.2246046416     
  -3.1999999999999992E-005     1787668.9883250094     
  -3.1499999999999980E-005     2070659.0255337895     
  -3.0999999999999995E-005     2347368.9715615567     
  -3.0499999999999982E-005     2611507.9446441936     
  -2.9999999999999997E-005     2856292.9058039030     
  -2.9499999999999985E-005     3074499.1426477479     
  -2.9000000000000000E-005     3258529.7967993552     
  -2.8499999999999988E-005     3400498.7953508683     
  -2.8000000000000003E-005     3492312.5872284262     
  -2.7499999999999991E-005     3525781.1300199684     
  -2.6999999999999979E-005     3492708.3138538119     
  -2.6499999999999994E-005     3385021.7633684082     
  -2.5999999999999981E-005     3194882.2972515179     
  -2.5499999999999996E-005     2914795.7409880864     
  -2.4999999999999984E-005     2537750.0943305194     
  -2.4499999999999999E-005     2057317.7908824729     
  -2.3999999999999987E-005     1467761.8483167761     
  -2.3500000000000002E-005     764151.15051039460     
  -2.2999999999999990E-005    -57571.437301238831     
  -2.2499999999999978E-005    -1000495.5195179372     
  -2.1999999999999993E-005    -2066704.2663949763     
  -2.1499999999999980E-005    -3257214.7881216714     
  -2.0999999999999995E-005    -4571996.8461226206     
  -2.0499999999999983E-005    -6009926.9735178957     
  -1.9999999999999998E-005    -7568835.5951080648     
  -1.9499999999999986E-005    -9245578.4855304230     
  -1.9000000000000001E-005    -11036052.447167214     
  -1.8499999999999989E-005    -12935337.851344861     
  -1.8000000000000004E-005    -14937720.815437872     
  -1.7499999999999992E-005    -17036896.755135365     
  -1.6999999999999980E-005    -19226083.670322262     
  -1.6499999999999994E-005    -21498110.253963314     
  -1.5999999999999982E-005    -23845628.371937662     
  -1.5499999999999997E-005    -26261248.627816401     
  -1.4999999999999985E-005    -28737693.206321962     
  -1.4500000000000000E-005    -31267989.421743117     
  -1.3999999999999988E-005    -33845615.884845689     
  -1.3500000000000003E-005    -36464615.235055812     
  -1.2999999999999991E-005    -39119796.957605019     
  -1.2499999999999979E-005    -41806928.052758150     
  -1.1999999999999994E-005    -44522683.840591460     
  -1.1499999999999981E-005    -47264908.301569611     
  -1.0999999999999996E-005    -50032819.197407536     
  -1.0499999999999984E-005    -52826913.734126814     
  -9.9999999999999991E-006    -55649149.181952178     
  -9.4999999999999870E-006    -58503132.788457356     
  -9.0000000000000019E-006    -61393917.301615357     
  -8.4999999999999898E-006    -64328314.792270988     
  -7.9999999999999776E-006    -67314821.631433085     
  -7.4999999999999926E-006    -70363703.458322719     
  -6.9999999999999804E-006    -73487167.965641707     
  -6.4999999999999954E-006    -76698889.192177296     
  -5.9999999999999832E-006    -80014426.705648109     
  -5.4999999999999982E-006    -83451281.824766427     
  -4.9999999999999860E-006    -87028499.601191983     
  -4.5000000000000010E-006    -90766727.393724442     
  -3.9999999999999888E-006    -94688637.457541466     
  -3.5000000000000038E-006    -98817726.788653344     
  -2.9999999999999916E-006    -103179732.15824890     
  -2.4999999999999795E-006    -107801029.30206798     
  -1.9999999999999944E-006    -112709892.79133712     
  -1.4999999999999823E-006    -117935385.66041113     
  -9.9999999999999720E-007    -123507478.67129493     
  -4.9999999999998505E-007    -129457484.38213475     
   0.0000000000000000         -135816392.30998364     
   5.0000000000001215E-007    -142617981.05114996     
   9.9999999999999720E-007    -149894031.94623202     
   1.5000000000000094E-006    -157678083.74933252     
   2.0000000000000215E-006    -166002317.14352706     
   2.5000000000000066E-006    -174901949.68238842     
   3.0000000000000187E-006    -184409602.55485782     
   3.5000000000000038E-006    -194559701.89967203     
   4.0000000000000159E-006    -205385056.25714600     
   4.5000000000000010E-006    -216920499.77479905     
   5.0000000000000131E-006    -229198989.07841513     
   5.4999999999999982E-006    -242253070.85470307     
   6.0000000000000103E-006    -256117929.59869713     
   6.4999999999999954E-006    -270825482.46079242     
   7.0000000000000075E-006    -286409976.91873038     
   7.5000000000000197E-006    -302906286.19407761     
   8.0000000000000047E-006    -320348987.38371092     
   8.5000000000000169E-006    -338773021.80390644     
   9.0000000000000019E-006    -358215840.00315046     
   9.5000000000000141E-006    -378713781.95543927     
   9.9999999999999991E-006    -400305646.03701371     
   1.0500000000000011E-005    -423031445.44216084     
   1.0999999999999996E-005    -446932909.64078563     
   1.1500000000000008E-005    -472048759.13082480     
   1.2000000000000021E-005    -498426063.39903969     
   1.2500000000000006E-005    -526113579.09209758     
   1.3000000000000018E-005    -555152769.25208175     
   1.3500000000000003E-005    -585600168.10274124     
   1.4000000000000015E-005    -617506398.12659979     
   1.4500000000000000E-005    -650927970.56023836     
   1.5000000000000012E-005    -685921120.61848438     
   1.5499999999999997E-005    -722549964.60609770     
   1.6000000000000009E-005    -760873220.31084406     
   1.6499999999999994E-005    -800957356.62916601     
   1.7000000000000007E-005    -842876468.51284695     
   1.7500000000000019E-005    -886698488.71851289     
   1.8000000000000004E-005    -932493041.74871647     
   1.8500000000000016E-005    -980343473.71588802     
   1.9000000000000001E-005    -1030327057.2804655     
   1.9500000000000013E-005    -1082527438.1446168     
   1.9999999999999998E-005    -1137035879.3599119     
   2.0500000000000010E-005    -1193944933.8917940     
   2.0999999999999995E-005    -1253345261.9908009     
   2.1500000000000008E-005    -1315332488.1327145     
   2.2000000000000020E-005    -1380017116.3900592     
   2.2500000000000005E-005    -1447495463.3130519     
   2.3000000000000017E-005    -1517876009.4050992     
   2.3500000000000002E-005    -1591275146.0888710     
   2.4000000000000014E-005    -1667814451.7346089     
   2.4499999999999999E-005    -1747603400.7026827     
   2.5000000000000011E-005    -1830783777.5543041     
   2.5499999999999996E-005    -1917479151.6937404     
   2.6000000000000009E-005    -2007818786.0593224     
   2.6500000000000021E-005    -2101934049.4849231     
   2.7000000000000006E-005    -2199966949.6650372     
   2.7500000000000018E-005    -2302072409.7550488     
   2.8000000000000003E-005    -2408392076.5231094     
   2.8500000000000015E-005    -2519085822.4337807     
   2.9000000000000000E-005    -2634289756.9966564     
   2.9500000000000012E-005    -2754192767.6502447     
   2.9999999999999997E-005    -2878913116.1992197     
   3.0500000000000010E-005    -3008649974.9691505     
   3.0999999999999995E-005    -3143545942.3628058     
   3.1500000000000007E-005    -3283789483.7438817     
   3.2000000000000019E-005    -3429553218.8747296     
   3.2500000000000004E-005    -3581001690.9023857     
   3.3000000000000016E-005    -3738287229.9332967     
   3.3500000000000001E-005    -3901608813.6333938     
   3.4000000000000013E-005    -4071130867.7322731     
   3.4499999999999998E-005    -4247064340.8259287     
   3.5000000000000010E-005    -4429565051.9866533     
   3.5499999999999996E-005    -4618815507.5562840     
   3.6000000000000008E-005    -4815000626.5081234     
   3.6500000000000020E-005    -5018361219.7784472     
   3.7000000000000005E-005    -5229024705.8218317     
   3.7500000000000017E-005    -5447193959.6115961     
   3.8000000000000002E-005    -5673094034.7679405     
   3.8500000000000014E-005    -5906874790.5536957     
   3.8999999999999999E-005    -6148742806.2818432     
   3.9500000000000011E-005    -6398887969.2501183     
   3.9999999999999996E-005    -6657518723.9749765     
   4.0500000000000009E-005    -6924827260.5727997     
   4.0999999999999994E-005    -7201037809.9834185     
   4.1500000000000006E-005    -7486357629.4991093     
   4.2000000000000018E-005    -7781004703.1850271     
   4.2500000000000003E-005    -8085137792.7044115     
   4.3000000000000015E-005    -8399057143.6416655     
   4.3500000000000000E-005    -8722869970.6437206     
   4.4000000000000012E-005    -9056852912.4763641     
   4.4499999999999997E-005    -9401201535.3555965     
   4.5000000000000010E-005    -9756127430.3717823     
   4.5500000000000022E-005    -10121845420.599979     
   4.5999999999999980E-005    -10498582859.645121     
   4.6499999999999992E-005    -10886539963.003912     
   4.7000000000000004E-005    -11285893406.380606     
   4.7500000000000016E-005    -11696823891.056063     
   4.8000000000000028E-005    -12119582481.577925     
   4.8499999999999986E-005    -12554282733.940897     
   4.8999999999999998E-005    -13001283795.519344     
   4.9500000000000011E-005    -13460623807.786291     
   5.0000000000000023E-005    -13932527429.562925     
   5.0499999999999981E-005    -14417351888.120592     
   5.0999999999999993E-005    -14915044054.781067     
   5.1500000000000005E-005    -15425883435.767447     
   5.2000000000000017E-005    -15950047809.788467     
   5.2500000000000029E-005    -16487588917.187122     
   5.2999999999999987E-005    -17038702651.953545     
   5.3499999999999999E-005    -17603416089.785046     
   5.4000000000000012E-005    -18181840541.150070     
   5.4500000000000024E-005    -18774294794.489540     
   5.4999999999999982E-005    -19380717509.814152     
   5.5499999999999994E-005    -20001143838.490559     
   5.6000000000000006E-005    -20635831525.204605     
   5.6500000000000018E-005    -21284778520.457111     
   5.7000000000000030E-005    -21947872253.416866     
   5.7499999999999988E-005    -22625279203.183296     
   5.8000000000000000E-005    -23317034287.462337     
   5.8500000000000012E-005    -24022732743.567844     
   5.9000000000000025E-005    -24742643571.327690     
   5.9499999999999983E-005    -25476819429.273750     
   5.9999999999999995E-005    -26225099119.144554     
   6.0500000000000007E-005    -26987184057.199955     
   6.1000000000000019E-005    -27763258516.821850     
   6.1500000000000031E-005    -28553072905.132908     
   6.1999999999999989E-005    -29356417868.047245     
   6.2500000000000001E-005    -30172787043.437187     
   6.3000000000000013E-005    -31002565363.733158     
   6.3500000000000026E-005    -31845073455.705822     
   6.3999999999999984E-005    -32700118434.338837     
   6.4499999999999996E-005    -33567839431.413475     
   6.5000000000000008E-005    -34447508144.501892     
   6.5500000000000020E-005    -35338831450.690277     
   6.6000000000000032E-005    -36241783079.077927     
   6.6499999999999990E-005    -37155780235.068726     
   6.7000000000000002E-005    -38080583258.259613     
   6.7500000000000014E-005    -39015506139.900856     
   6.8000000000000027E-005    -39960518678.806259     
   6.8499999999999985E-005    -40914757167.952248     
   6.8999999999999997E-005    -41877166433.801743     
   6.9500000000000009E-005    -42848167582.517403     
   7.0000000000000021E-005    -43826681605.170273     
   7.0499999999999979E-005    -44811312567.159027     
   7.0999999999999991E-005    -45803159588.149300     
   7.1500000000000003E-005    -46800163602.682808     
   7.2000000000000015E-005    -47801986980.106346     