  -1.9999999999999998E-004     0.0000000000000000     
  -1.9949999999999997E-004     0.0000000000000000     
  -1.9899999999999999E-004     0.0000000000000000     
  -1.9849999999999997E-004     0.0000000000000000     
  -1.9799999999999999E-004     0.0000000000000000     
  -1.9749999999999998E-004     0.0000000000000000     
  -1.9699999999999999E-004     0.0000000000000000     
  -1.9649999999999998E-004     0.0000000000000000     
  -1.9599999999999999E-004     0.0000000000000000     
  -1.9549999999999998E-004     6.0477378924796365E-026
  -1.9499999999999997E-004     1.7671897758229777E-024
  -1.9449999999999998E-004     1.4940310570698075E-023
  -1.9399999999999997E-004     8.4803402572746508E-023
  -1.9349999999999999E-004     3.7330163810827276E-022
  -1.9299999999999997E-004     1.3430318054769413E-021
  -1.9249999999999999E-004     4.0880565149334208E-021
  -1.9199999999999998E-004     1.0764552632863965E-020
  -1.9149999999999999E-004     2.4845340965593369E-020
  -1.9099999999999998E-004     5.0576584576811598E-020
  -1.9050000000000000E-004     9.0639055831811353E-020
  -1.8999999999999998E-004     1.4105052266226051E-019
  -1.8949999999999997E-004     1.8324990137217235E-019
  -1.8899999999999999E-004     1.7562362290431917E-019
  -1.8849999999999997E-004     5.0388270185163302E-020
  -1.8799999999999999E-004    -2.7446985645386865E-019
  -1.8749999999999998E-004    -8.5719359415116268E-019
  -1.8699999999999999E-004    -1.6625025199818544E-018
  -1.8649999999999998E-004    -2.4695406104297709E-018
  -1.8599999999999999E-004    -2.7931274473852281E-018
  -1.8549999999999998E-004    -1.8844923150131670E-018
  -1.8500000000000000E-004     1.1012955890114461E-018
  -1.8449999999999999E-004     6.6951437624168684E-018
  -1.8399999999999997E-004     1.4452971936845457E-017
  -1.8349999999999999E-004     2.2172384919474284E-017
  -1.8299999999999998E-004     2.5307560072948039E-017
  -1.8249999999999999E-004     1.7092689031845602E-017
  -1.8199999999999998E-004    -1.0027670633403891E-017
  -1.8149999999999999E-004    -6.1210203497640944E-017
  -1.8099999999999998E-004    -1.3430647969328380E-016
  -1.8050000000000000E-004    -2.1414630437691354E-016
  -1.7999999999999998E-004    -2.6803696392236070E-016
  -1.7949999999999997E-004    -2.4554621159408151E-016
  -1.7899999999999999E-004    -8.6053133085623407E-017
  -1.7849999999999997E-004     2.6322066653396226E-016
  -1.7799999999999999E-004     8.1848469979521179E-016
  -1.7749999999999998E-004     1.5240247921459444E-015
  -1.7699999999999999E-004     2.2197113134692877E-015
  -1.7649999999999998E-004     2.6260533419749562E-015
  -1.7600000000000000E-004     2.3641937324316310E-015
  -1.7549999999999998E-004     1.0259841103563721E-015
  -1.7499999999999997E-004    -1.6998253178190837E-015
  -1.7449999999999999E-004    -5.8558382347491498E-015
  -1.7399999999999997E-004    -1.1031028899670882E-014
  -1.7349999999999999E-004    -1.6217287632155922E-014
  -1.7299999999999998E-004    -1.9777175942771782E-014
  -1.7249999999999999E-004    -1.9592068441984798E-014
  -1.7199999999999998E-004    -1.3436321752334093E-014
  -1.7149999999999999E-004     4.2601963392989355E-016
  -1.7099999999999998E-004     2.2495068119975829E-014
  -1.7049999999999997E-004     5.1287877732719775E-014
  -1.6999999999999999E-004     8.2801051475710583E-014
  -1.6949999999999997E-004     1.1041256028131138E-013
  -1.6899999999999999E-004     1.2541356393794046E-013
  -1.6849999999999998E-004     1.1824914500573296E-013
  -1.6799999999999999E-004     8.0378588348709976E-014
  -1.6749999999999998E-004     6.4738589683999053E-015
  -1.6699999999999999E-004    -1.0347734935348559E-013
  -1.6649999999999998E-004    -2.4267111168577024E-013
  -1.6599999999999997E-004    -3.9699401658718201E-013
  -1.6549999999999998E-004    -5.4570969060552180E-013
  -1.6500000000000000E-004    -6.6314254443430697E-013
  -1.6449999999999999E-004    -7.2079634590128102E-013
  -1.6399999999999997E-004    -6.8915895865581166E-013
  -1.6349999999999999E-004    -5.3853497368122215E-013
  -1.6299999999999998E-004    -2.3881331478321601E-013
  -1.6249999999999999E-004     2.4094360814270758E-013
  -1.6199999999999998E-004     9.3099846675761160E-013
  -1.6149999999999997E-004     1.8544000913434902E-012
  -1.6099999999999998E-004     3.0119507729658441E-012
  -1.6050000000000000E-004     4.3563506324904630E-012
  -1.5999999999999999E-004     5.7560528828296207E-012
  -1.5949999999999997E-004     6.9541928473787885E-012
  -1.5899999999999999E-004     7.5340864042716130E-012
  -1.5849999999999998E-004     6.9090924064382526E-012
  -1.5799999999999999E-004     4.3586941168295726E-012
  -1.5749999999999998E-004    -8.6747224501437447E-013
  -1.5699999999999999E-004    -9.3635580795386643E-012
  -1.5649999999999998E-004    -2.1300093767274592E-011
  -1.5600000000000000E-004    -3.6101553793758769E-011
  -1.5549999999999999E-004    -5.2123095280393638E-011
  -1.5499999999999997E-004    -6.6413092249230160E-011
  -1.5449999999999999E-004    -7.4668383076334388E-011
  -1.5399999999999998E-004    -7.1498187371943732E-011
  -1.5349999999999999E-004    -5.1089337544559758E-011
  -1.5299999999999998E-004    -8.3151990462049561E-012
  -1.5249999999999999E-004     5.9756095241504967E-011
  -1.5199999999999998E-004     1.5211140722394558E-010
  -1.5150000000000000E-004     2.6207991943518908E-010
  -1.5099999999999998E-004     3.7605123886137415E-010
  -1.5049999999999997E-004     4.7307725421645653E-010
  -1.4999999999999999E-004     5.2581753519790971E-010
  -1.4949999999999997E-004     5.0316671627005485E-010
  -1.4899999999999999E-004     3.7470391283177104E-010
  -1.4849999999999998E-004     1.1677544904130817E-010
  -1.4799999999999999E-004    -2.8035400887896905E-010
  -1.4749999999999998E-004    -8.0524116501919909E-010
  -1.4700000000000000E-004    -1.4191992051747468E-009
  -1.4649999999999998E-004    -2.0528930807128709E-009
  -1.4599999999999997E-004    -2.6070373527332935E-009
  -1.4549999999999999E-004    -2.9583347787051495E-009
  -1.4500000000000000E-004    -2.9711708575485463E-009
  -1.4449999999999999E-004    -2.5147939941109052E-009
  -1.4399999999999998E-004    -1.4847273057592517E-009
  -1.4349999999999999E-004     1.7372743560592513E-010
  -1.4299999999999998E-004     2.4428628287708642E-009
  -1.4249999999999999E-004     5.2140522581966366E-009
  -1.4199999999999998E-004     8.2765385751546894E-009
  -1.4149999999999997E-004     1.1316195025647011E-008
  -1.4099999999999998E-004     1.3925701158448604E-008
  -1.4050000000000000E-004     1.5626494492810663E-008
  -1.3999999999999999E-004     1.5901505894940641E-008
  -1.3949999999999998E-004     1.4236775798304187E-008
  -1.3899999999999999E-004     1.0169919194643375E-008
  -1.3850000000000001E-004     3.3437095559923446E-009
  -1.3799999999999999E-004    -6.4356417280090482E-009
  -1.3749999999999998E-004    -1.9134478942247945E-008
  -1.3699999999999997E-004    -3.4419754528815580E-008
  -1.3649999999999998E-004    -5.1577385814118120E-008
  -1.3600000000000000E-004    -6.9420784868249211E-008
  -1.3549999999999999E-004    -8.6195298094472954E-008
  -1.3499999999999997E-004    -9.9492805875010059E-008
  -1.3449999999999999E-004    -1.0620159842880037E-007
  -1.3400000000000000E-004    -1.0253067405468467E-007
  -1.3349999999999999E-004    -8.4158105863349226E-008
  -1.3299999999999998E-004    -4.6561612818195134E-008
  -1.3249999999999997E-004     1.4415732612009166E-008
  -1.3199999999999998E-004     1.0172397774174065E-007
  -1.3150000000000000E-004     2.1598587286456542E-007
  -1.3099999999999999E-004     3.5414686103791507E-007
  -1.3049999999999997E-004     5.0801708037609900E-007
  -1.2999999999999999E-004     6.6290994481272314E-007
  -1.2950000000000000E-004     7.9667516317938277E-007
  -1.2899999999999999E-004     8.7949705299173202E-007
  -1.2849999999999998E-004     8.7486555865136313E-007
  -1.2799999999999997E-004     7.4213122559158161E-007
  -1.2749999999999998E-004     4.4095528665073311E-007
  -1.2700000000000000E-004    -6.2206439075201503E-008
  -1.2649999999999998E-004    -7.8572995391401904E-007
  -1.2599999999999997E-004    -1.7230715597697852E-006
  -1.2549999999999999E-004    -2.8326099421704269E-006
  -1.2500000000000000E-004    -4.0285038757561779E-006
  -1.2449999999999999E-004    -5.1744493344446326E-006
  -1.2399999999999998E-004    -6.0824782149362761E-006
  -1.2349999999999997E-004    -6.5191041711630809E-006
  -1.2299999999999998E-004    -6.2208096775679831E-006
  -1.2250000000000000E-004    -4.9202845343473794E-006
  -1.2199999999999998E-004    -2.3838127075326359E-006
  -1.2149999999999999E-004     1.5415083554321339E-006
  -1.2099999999999999E-004     6.8736231870194954E-006
  -1.2049999999999999E-004     1.3439860693461478E-005
  -1.1999999999999999E-004     2.0827069081825376E-005
  -1.1949999999999999E-004     2.8346710453806526E-005
  -1.1899999999999999E-004     3.5025483502733711E-005
  -1.1849999999999998E-004     3.9631820997337829E-005
  -1.1799999999999998E-004     4.0747779614973261E-005
  -1.1749999999999998E-004     3.6892093969176196E-005
  -1.1699999999999998E-004     2.6696169013774181E-005
  -1.1649999999999999E-004     9.1273532765839720E-006
  -1.1599999999999999E-004    -1.6254148985756838E-005
  -1.1549999999999999E-004    -4.9026868660941221E-005
  -1.1499999999999999E-004    -8.7660528043619556E-005
  -1.1449999999999999E-004    -1.2932743362753778E-004
  -1.1399999999999999E-004    -1.6981784251599187E-004
  -1.1349999999999998E-004    -2.0360351348111731E-004
  -1.1299999999999998E-004    -2.2408955359642038E-004
  -1.1249999999999998E-004    -2.2408442439082027E-004
  -1.1199999999999998E-004    -1.9649603103748839E-004
  -1.1149999999999999E-004    -1.3524146721639120E-004
  -1.1099999999999999E-004    -3.6323825858337877E-005
  -1.1049999999999999E-004     1.0100597321493224E-004
  -1.0999999999999999E-004     2.7311386355867277E-004
  -1.0949999999999999E-004     4.7102284583815389E-004
  -1.0899999999999999E-004     6.7979481417085872E-004
  -1.0849999999999998E-004     8.7843053606346329E-004
  -1.0799999999999998E-004     1.0404523070131457E-003
  -1.0749999999999998E-004     1.1353018967628793E-003
  -1.0699999999999999E-004     1.1306340102584290E-003
  -1.0649999999999999E-004     9.9548944593267578E-004
  -1.0599999999999999E-004     7.0424178420590386E-004
  -1.0549999999999999E-004     2.4109311092243519E-004
  -1.0499999999999999E-004    -3.9524915702989681E-004
  -1.0449999999999999E-004    -1.1871702223569759E-003
  -1.0399999999999998E-004    -2.0946084554250614E-003
  -1.0349999999999998E-004    -3.0529814631117440E-003
  -1.0299999999999998E-004    -3.9732360331504925E-003
  -1.0249999999999998E-004    -4.7445607873834268E-003
  -1.0199999999999999E-004    -5.2401941291578512E-003
  -1.0149999999999999E-004    -5.3265366065041800E-003
  -1.0099999999999999E-004    -4.8754355343713883E-003
  -1.0049999999999999E-004    -3.7792025495877045E-003
  -9.9999999999999991E-005    -1.9674759414133442E-003
  -9.9499999999999993E-005     5.7537991935651745E-004
  -9.8999999999999980E-005     3.7939549340838155E-003
  -9.8499999999999982E-005     7.5485617407599435E-003
  -9.7999999999999983E-005     1.1607170541804606E-002
  -9.7499999999999985E-005     1.5644644877073087E-002
  -9.6999999999999986E-005     1.9251129607366427E-002
  -9.6499999999999987E-005     2.1951006972356375E-002
  -9.5999999999999989E-005     2.3233072377274219E-002
  -9.5499999999999990E-005     2.2591640094247890E-002
  -9.4999999999999992E-005     1.9577247181288459E-002
  -9.4499999999999993E-005     1.3854129364600518E-002
  -9.3999999999999981E-005     5.2607071512918730E-003
  -9.3499999999999982E-005    -6.1321485574079406E-003
  -9.2999999999999984E-005    -1.9971039192190936E-002
  -9.2499999999999985E-005    -3.5584736109011361E-002
  -9.1999999999999987E-005    -5.1970325351100473E-002
  -9.1499999999999988E-005    -6.7806743072984274E-002
  -9.0999999999999989E-005    -8.1500859652622257E-002
  -9.0499999999999991E-005    -9.1268608673247542E-002
  -8.9999999999999992E-005    -9.5251849547279374E-002
  -8.9499999999999994E-005    -9.1667881650144209E-002
  -8.8999999999999981E-005    -7.8985720889276953E-002
  -8.8499999999999983E-005    -5.6118646180296598E-002
  -8.7999999999999984E-005    -2.2620025501156927E-002
  -8.7499999999999986E-005     2.1133990015004375E-002
  -8.6999999999999987E-005     7.3793711393097580E-002
  -8.6499999999999988E-005    0.13293581568002391     
  -8.5999999999999990E-005    0.19503362776770858     
  -8.5499999999999991E-005    0.25551361758519642     
  -8.4999999999999993E-005    0.30891112817302396     
  -8.4499999999999994E-005    0.34913237796768237     
  -8.3999999999999982E-005    0.36982086609128423     
  -8.3499999999999983E-005    0.36482104393222409     
  -8.2999999999999985E-005    0.32871939046661258     
  -8.2499999999999986E-005    0.25743304245182252     
  -8.1999999999999987E-005    0.14881383732951831     
  -8.1499999999999989E-005     3.2162724329788126E-003
  -8.0999999999999990E-005   -0.17601491365473229     
  -8.0499999999999992E-005   -0.38219361794121315     
  -7.9999999999999993E-005   -0.60513017738506969     
  -7.9499999999999994E-005   -0.83120061291459646     
  -7.8999999999999982E-005    -1.0436899663632166     
  -7.8499999999999984E-005    -1.2234311014625685     
  -7.7999999999999985E-005    -1.3497448577249302     
  -7.7499999999999986E-005    -1.4016721460895332     
  -7.7000000000000001E-005    -1.3594535142956123     
  -7.6499999999999989E-005    -1.2062046428486459     
  -7.5999999999999977E-005   -0.92969775753284090     
  -7.5499999999999992E-005   -0.52414472304908655     
  -7.4999999999999980E-005     8.1394353621067547E-003
  -7.4499999999999995E-005    0.65532862338771414     
  -7.3999999999999983E-005     1.3950767199322038     
  -7.3499999999999998E-005     2.1940368284753728     
  -7.2999999999999985E-005     3.0080482740302945     
  -7.2500000000000000E-005     3.7830752259729095     
  -7.1999999999999988E-005     4.4569923633115094     
  -7.1499999999999976E-005     4.9622204470453353     
  -7.0999999999999991E-005     5.2292150187181097     
  -7.0499999999999979E-005     5.1907214109684148     
  -6.9999999999999994E-005     4.7866599830393124     
  -6.9499999999999982E-005     3.9694511207575642     
  -6.8999999999999997E-005     2.7095066524742246     
  -6.8499999999999985E-005     1.0005976049783003     
  -6.7999999999999999E-005    -1.1352863018866981     
  -6.7499999999999987E-005    -3.6439443465082269     
  -6.6999999999999975E-005    -6.4362828404638712     
  -6.6499999999999990E-005    -9.3872821951058203     
  -6.5999999999999978E-005    -12.337032656328832     
  -6.5499999999999993E-005    -15.094141205312731     
  -6.4999999999999981E-005    -17.441660941409282     
  -6.4499999999999996E-005    -19.145754921971129     
  -6.3999999999999984E-005    -19.966988661017997     
  -6.3499999999999999E-005    -19.674101908021488     
  -6.2999999999999986E-005    -18.059819736939598     
  -6.2500000000000001E-005    -14.958274062895411     
  -6.1999999999999989E-005    -10.263148594933918     
  -6.1499999999999977E-005    -3.9456269251238525     
  -6.0999999999999992E-005     3.9288296264050651     
  -6.0499999999999980E-005     13.186250934910571     
  -5.9999999999999995E-005     23.533743024678767     
  -5.9499999999999983E-005     34.554116383422446     
  -5.8999999999999998E-005     45.706975779638050     
  -5.8499999999999985E-005     56.337269211949803     
  -5.8000000000000000E-005     65.692371520441739     
  -5.7499999999999988E-005     72.948032569889023     
  -5.6999999999999976E-005     77.243636265123740     
  -5.6499999999999991E-005     77.726144032421658     
  -5.5999999999999979E-005     73.602133312847172     
  -5.5499999999999994E-005     64.195997760578649     
  -5.4999999999999982E-005     49.012428679673256     
  -5.4499999999999997E-005     27.800079125908493     
  -5.3999999999999984E-005    0.61321953376013161     
  -5.3499999999999999E-005    -32.133009642327735     
  -5.2999999999999987E-005    -69.617573986090278     
  -5.2500000000000002E-005    -110.58372133654653     
  -5.1999999999999990E-005    -153.32870160592364     
  -5.1499999999999978E-005    -195.71705248900989     
  -5.0999999999999993E-005    -235.22151805307723     
  -5.0499999999999981E-005    -268.99356903042548     
  -4.9999999999999996E-005    -293.96571804990782     
  -4.9499999999999983E-005    -306.98508513473206     
  -4.8999999999999998E-005    -304.97602965593711     
  -4.8499999999999986E-005    -285.12909212286633     
  -4.8000000000000001E-005    -245.10860980498683     
  -4.7499999999999989E-005    -183.27195501621622     
  -4.6999999999999977E-005    -98.889386156052637     
  -4.6499999999999992E-005     7.6464949625694363     
  -4.5999999999999980E-005     134.63754563423126     
  -4.5499999999999995E-005     278.93517720987785     
  -4.4999999999999983E-005     435.85004101798438     
  -4.4499999999999997E-005     599.13079511216529     
  -4.3999999999999985E-005     761.02486328975874     
  -4.3500000000000000E-005     912.43077904150755     
  -4.2999999999999988E-005     1043.1513186711111     
  -4.2500000000000003E-005     1142.2496218856854     
  -4.1999999999999991E-005     1198.5062078035426     
  -4.1499999999999979E-005     1200.9689774287478     
  -4.0999999999999994E-005     1139.5864302431221     
  -4.0499999999999982E-005     1005.8927901297566     
  -3.9999999999999996E-005     793.73148137132421     
  -3.9499999999999984E-005     499.97750036415374     
  -3.8999999999999999E-005     125.21362006238488     
  -3.8499999999999987E-005    -325.66438546732343     
  -3.8000000000000002E-005    -842.97417057724181     
  -3.7499999999999990E-005    -1411.9399437247368     
  -3.6999999999999978E-005    -2012.6009626215416     
  -3.6499999999999993E-005    -2619.9637439428830     
  -3.5999999999999981E-005    -3204.4399552086861     
  -3.5499999999999996E-005    -3732.5814782964412     
  -3.4999999999999983E-005    -4168.1262204724653     
  -3.4499999999999998E-005    -4473.3489667198692     
  -3.3999999999999986E-005    -4610.6886628503653     
  -3.3500000000000001E-005    -4544.6235857238562     
  -3.2999999999999989E-005    -4243.7313660154705     
  -3.2499999999999977E-005    -3682.8557842054274     
  -3.1999999999999992E-005    -2845.2986520596032     
  -3.1499999999999980E-005    -1724.9341915068676     
  -3.0999999999999995E-005    -328.12740240294727     
  -3.0499999999999982E-005     1324.6672987725733     
  -2.9999999999999997E-005     3197.7221155908569     
  -2.9499999999999985E-005     5239.4139575349309     
  -2.9000000000000000E-005     7382.2425702259361     
  -2.8499999999999988E-005     9543.5957169927206     
  -2.8000000000000003E-005     11627.296570459195     
  -2.7499999999999991E-005     13526.000419277692     
  -2.6999999999999979E-005     15124.419920971253     
  -2.6499999999999994E-005     16303.349953453629     
  -2.5999999999999981E-005     16944.396343676875     
  -2.5499999999999996E-005     16935.323812290415     
  -2.4999999999999984E-005     16175.821656648694     
  -2.4499999999999999E-005     14583.513444522585     
  -2.3999999999999987E-005     12099.985653163809     
  -2.3500000000000002E-005     8696.5236398735397     
  -2.2999999999999990E-005     4379.3679373737968     
  -2.2499999999999978E-005    -805.86772694024432     
  -2.1999999999999993E-005    -6770.9198326467913     
  -2.1499999999999980E-005    -13382.854929601090     
  -2.0999999999999995E-005    -20463.751854894505     
  -2.0499999999999983E-005    -27792.147276725886     
  -1.9999999999999998E-005    -35106.349768742242     
  -1.9499999999999986E-005    -42109.847328379925     
  -1.9000000000000001E-005    -48478.688958891275     
  -1.8499999999999989E-005    -53870.789182435605     
  -1.8000000000000004E-005    -57936.971189710413     
  -1.7499999999999992E-005    -60333.651457483560     
  -1.6999999999999980E-005    -60736.541489788920     
  -1.6499999999999994E-005    -58855.215804326675     
  -1.5999999999999982E-005    -54447.983092711474     
  -1.5499999999999997E-005    -47336.563546747253     
  -1.4999999999999985E-005    -37419.853730234965     
  -1.4500000000000000E-005    -24686.428997374147     
  -1.3999999999999988E-005    -9225.1210277085029     
  -1.3500000000000003E-005     8767.0993650934215     
  -1.2999999999999991E-005     28980.033194491221     
  -1.2499999999999979E-005     50988.855844618171     
  -1.1999999999999994E-005     74256.340819822348     
  -1.1499999999999981E-005     98139.241432043375     
  -1.0999999999999996E-005     121898.95874528884     
  -1.0499999999999984E-005     144716.12636245700     
  -9.9999999999999991E-006     165709.45675770225     
  -9.4999999999999870E-006     183958.09212738209     
  -9.0000000000000019E-006     198527.46188392749     
  -8.4999999999999898E-006     208497.63792017024     
  -7.9999999999999776E-006     212993.59118853105     
  -7.4999999999999926E-006     211217.01182774306     
  -6.9999999999999804E-006     202477.95015625044     
  -6.4999999999999954E-006     186226.15162215455     
  -5.9999999999999832E-006     162080.74037456623     
  -5.4999999999999982E-006     129856.85261728641     
  -4.9999999999999860E-006     89589.479883377397     
  -4.5000000000000010E-006     41552.234145008144     
  -3.9999999999999888E-006    -13728.676892582995     
  -3.5000000000000038E-006    -75466.629502181037     
  -2.9999999999999916E-006    -142613.01935223455     
  -2.4999999999999795E-006    -213862.42427748293     
  -1.9999999999999944E-006    -287665.32410661562     
  -1.4999999999999823E-006    -362246.60005371290     
  -9.9999999999999720E-007    -435632.64608444175     
  -4.9999999999998505E-007    -505683.08664373972     
   0.0000000000000000         -570130.47513935016     
   5.0000000000001215E-007    -626623.89630805235     
   9.9999999999999720E-007    -672778.00000461412     
   1.5000000000000094E-006    -706225.25190014136     
   2.0000000000000215E-006    -724671.54882736888     
   2.5000000000000066E-006    -725953.04373023321     
   3.0000000000000187E-006    -708092.81412585953     
   3.5000000000000038E-006    -669359.02452286589     
   4.0000000000000159E-006    -608319.90932047402     
   4.5000000000000010E-006    -523896.44204529771     
   5.0000000000000131E-006    -415411.30200469150     
   5.4999999999999982E-006    -282633.60597582959     
   6.0000000000000103E-006    -125818.83206975844     
   6.4999999999999954E-006     54258.577610047199     
   7.0000000000000075E-006     256279.47282045116     
   7.5000000000000197E-006     478359.11037395295     
   8.0000000000000047E-006     718036.25112203835     
   8.5000000000000169E-006     972270.60465282481     
   9.0000000000000019E-006     1237446.8035879091     
   9.5000000000000141E-006     1509386.0948492985     
   9.9999999999999991E-006     1783369.5010529698     
   1.0500000000000011E-005     2054165.7332710023     
   1.0999999999999996E-005     2316071.8420293326     
   1.1500000000000008E-005     2562953.8422920574     
   1.2000000000000021E-005     2788309.1787883248     
   1.2500000000000006E-005     2985318.5691545531     
   1.3000000000000018E-005     3146919.0769331548     
   1.3500000000000003E-005     3265879.7700561248     
   1.4000000000000015E-005     3334877.9487899351     
   1.4500000000000000E-005     3346585.4589731470     
   1.5000000000000012E-005     3293759.3037271830     
   1.5499999999999997E-005     3169331.8225696827     
   1.6000000000000009E-005     2966505.9020928298     
   1.6499999999999994E-005     2678844.1645082561     
   1.7000000000000007E-005     2300371.0278188987     
   1.7500000000000019E-005     1825652.0119663130     
   1.8000000000000004E-005     1249883.3504839549     
   1.8500000000000016E-005     568977.08262662520     
   1.9000000000000001E-005    -220376.37216490123     
   1.9500000000000013E-005    -1120644.0468152170     
   1.9999999999999998E-005    -2133391.4251703410     
   2.0500000000000010E-005    -3259258.3811847642     
   2.0999999999999995E-005    -4497938.3929502638     
   2.1500000000000008E-005    -5848160.5586724114     
   2.2000000000000020E-005    -7307713.9782368736     
   2.2500000000000005E-005    -8873454.1734606251     
   2.3000000000000017E-005    -10541394.232619388     
   2.3500000000000002E-005    -12306725.516721269     
   2.4000000000000014E-005    -14163919.564161405     
   2.4499999999999999E-005    -16106856.524980037     
   2.5000000000000011E-005    -18128891.694484711     
   2.5499999999999996E-005    -20223036.718868174     
   2.6000000000000009E-005    -22382090.392899137     
   2.6500000000000021E-005    -24598735.322900645     
   2.7000000000000006E-005    -26865826.484434120     
   2.7500000000000018E-005    -29176449.086819045     
   2.8000000000000003E-005    -31524143.951678682     
   2.8500000000000015E-005    -33903061.503316753     
   2.9000000000000000E-005    -36308123.035735875     
   2.9500000000000012E-005    -38735200.023778483     
   2.9999999999999997E-005    -41181235.149099112     
   3.0500000000000010E-005    -43644392.909481011     
   3.0999999999999995E-005    -46124236.141694076     
   3.1500000000000007E-005    -48621701.403595805     
   3.2000000000000019E-005    -51139325.549917176     
   3.2500000000000004E-005    -53681244.371673621     
   3.3000000000000016E-005    -56253223.416429430     
   3.3500000000000001E-005    -58862835.342908785     
   3.4000000000000013E-005    -61519350.588851154     
   3.4499999999999998E-005    -64233583.074776180     
   3.5000000000000010E-005    -67018316.387145951     
   3.5499999999999996E-005    -69887828.030110508     
   3.6000000000000008E-005    -72857956.085312665     
   3.6500000000000020E-005    -75946290.924066111     
   3.7000000000000005E-005    -79171604.461582407     
   3.7500000000000017E-005    -82554280.815392181     
   3.8000000000000002E-005    -86115922.410992727     
   3.8500000000000014E-005    -89879223.341420755     
   3.8999999999999999E-005    -93868046.349131376     
   3.9500000000000011E-005    -98107341.450755730     
   3.9999999999999996E-005    -102622727.01708025     
   4.0500000000000009E-005    -107440998.68999755     
   4.0999999999999994E-005    -112589118.83367339     
   4.1500000000000006E-005    -118095016.45710360     
   4.2000000000000018E-005    -123986907.76003928     
   4.2500000000000003E-005    -130293460.13519172     
   4.3000000000000015E-005    -137043833.06325173     
   4.3500000000000000E-005    -144267452.89471650     
   4.4000000000000012E-005    -151993500.06307185     
   4.4499999999999997E-005    -160251682.31309950     
   4.5000000000000010E-005    -169071913.86733019     
   4.5500000000000022E-005    -178483583.40373051     
   4.5999999999999980E-005    -188516609.31137502     
   4.6499999999999992E-005    -199200285.86645862     
   4.7000000000000004E-005    -210565320.58582389     
   4.7500000000000016E-005    -222640129.19738615     
   4.8000000000000028E-005    -235456281.37515488     
   4.8499999999999986E-005    -249042505.05603746     
   4.8999999999999998E-005    -263430009.59122819     
   4.9500000000000011E-005    -278649047.05471963     
   5.0000000000000023E-005    -294730296.09764743     
   5.0499999999999981E-005    -311705716.70932567     
   5.0999999999999993E-005    -329606717.24564362     
   5.1500000000000005E-005    -348466478.83636719     
   5.2000000000000017E-005    -368318342.91006005     
   5.2500000000000029E-005    -389198110.26116961     
   5.2999999999999987E-005    -411141411.14667392     
   5.3499999999999999E-005    -434186230.19652462     
   5.4000000000000012E-005    -458371239.51045448     
   5.4500000000000024E-005    -483740639.58597231     
   5.4999999999999982E-005    -510334553.30507469     
   5.5499999999999994E-005    -538201047.90677452     
   5.6000000000000006E-005    -567388172.66381621     
   5.6500000000000018E-005    -597944883.27918994     
   5.7000000000000030E-005    -629927419.76128769     
   5.7499999999999988E-005    -663387283.20342672     
   5.8000000000000000E-005    -698386877.69605553     
   5.8500000000000012E-005    -734986064.17414534     
   5.9000000000000025E-005    -773252720.56867743     
   5.9499999999999983E-005    -813251051.26944554     
   5.9999999999999995E-005    -855054010.02087796     
   6.0500000000000007E-005    -898737585.12167048     
   6.1000000000000019E-005    -944373877.90398717     
   6.1500000000000031E-005    -992047165.69352806     
   6.1999999999999989E-005    -1041840642.1392378     
   6.2500000000000001E-005    -1093842395.1840861     
   6.3000000000000013E-005    -1148140742.2727396     
   6.3500000000000026E-005    -1204825395.2727642     
   6.3999999999999984E-005    -1263994430.3100441     
   6.4499999999999996E-005    -1325749354.3597708     
   6.5000000000000008E-005    -1390189110.6372368     
   6.5500000000000020E-005    -1457413032.7065763     
   6.6000000000000032E-005    -1527534839.1835480     
   6.6499999999999990E-005    -1600661748.3961148     
   6.7000000000000002E-005    -1676908383.2960544     
   6.7500000000000014E-005    -1756390618.7750077     
   6.8000000000000027E-005    -1839222713.2610238     
   6.8499999999999985E-005    -1925534110.1685631     
   6.8999999999999997E-005    -2015442655.5022585     
   6.9500000000000009E-005    -2109081573.2968142     
   7.0000000000000021E-005    -2206583117.0805354     
   7.0499999999999979E-005    -2308075419.7477622     
   7.0999999999999991E-005    -2413694920.8362985     
   7.1500000000000003E-005    -2523587034.8899713     
   7.2000000000000015E-005    -2637884336.2924919     