  -1.9999999999999998E-004     0.0000000000000000     
  -1.9949999999999997E-004     0.0000000000000000     
  -1.9899999999999999E-004     0.0000000000000000     
  -1.9849999999999997E-004     0.0000000000000000     
  -1.9799999999999999E-004     0.0000000000000000     
  -1.9749999999999998E-004     0.0000000000000000     
  -1.9699999999999999E-004     0.0000000000000000     
  -1.9649999999999998E-004     0.0000000000000000     
  -1.9599999999999999E-004     0.0000000000000000     
  -1.9549999999999998E-004     8.0084361878650820E-025
  -1.9499999999999997E-004     1.3148747493301274E-023
  -1.9449999999999998E-004     1.1411240940072247E-022
  -1.9399999999999997E-004     6.9775209577403729E-022
  -1.9349999999999999E-004     3.3253895337599800E-021
  -1.9299999999999997E-004     1.3057756535555852E-020
  -1.9249999999999999E-004     4.3749157061245470E-020
  -1.9199999999999998E-004     1.2788913375521862E-019
  -1.9149999999999999E-004     3.3077275664563584E-019
  -1.9099999999999998E-004     7.6228894003089428E-019
  -1.9050000000000000E-004     1.5648990154200536E-018
  -1.8999999999999998E-004     2.8302064845680700E-018
  -1.8949999999999997E-004     4.3599843478835716E-018
  -1.8899999999999999E-004     5.1506894302148394E-018
  -1.8849999999999997E-004     2.4708749809489236E-018
  -1.8799999999999999E-004    -9.5337870178744706E-018
  -1.8749999999999998E-004    -4.1562501713927444E-017
  -1.8699999999999999E-004    -1.1063368547422944E-016
  -1.8649999999999998E-004    -2.4003820190077019E-016
  -1.8599999999999999E-004    -4.5557584252748091E-016
  -1.8549999999999998E-004    -7.7492098690855193E-016
  -1.8500000000000000E-004    -1.1864218363476936E-015
  -1.8449999999999999E-004    -1.6142399310186484E-015
  -1.8399999999999997E-004    -1.8693872318957088E-015
  -1.8349999999999999E-004    -1.5920917961726377E-015
  -1.8299999999999998E-004    -2.0050570638007129E-016
  -1.8249999999999999E-004     3.1257792351592551E-015
  -1.8199999999999998E-004     9.3835976910747828E-015
  -1.8149999999999999E-004     1.9548414040613981E-014
  -1.8099999999999998E-004     3.4179221011201706E-014
  -1.8050000000000000E-004     5.2777831459341193E-014
  -1.7999999999999998E-004     7.2898091131425294E-014
  -1.7949999999999997E-004     8.9080074246492688E-014
  -1.7899999999999999E-004     9.1810053729444860E-014
  -1.7849999999999997E-004     6.6869568427243708E-014
  -1.7799999999999999E-004    -4.3877321725716175E-015
  -1.7749999999999998E-004    -1.4313981286152259E-013
  -1.7699999999999999E-004    -3.6883815053610686E-013
  -1.7649999999999998E-004    -6.9195672481422701E-013
  -1.7600000000000000E-004    -1.1035209528112305E-012
  -1.7549999999999998E-004    -1.5619146429308761E-012
  -1.7499999999999997E-004    -1.9786093609155887E-012
  -1.7449999999999999E-004    -2.2058804220646589E-012
  -1.7399999999999997E-004    -2.0312644369937147E-012
  -1.7349999999999999E-004    -1.1849231061026045E-012
  -1.7299999999999998E-004     6.3293940404565100E-013
  -1.7249999999999999E-004     3.6979664491904380E-012
  -1.7199999999999998E-004     8.1763029065090546E-012
  -1.7149999999999999E-004     1.4008249558777609E-011
  -1.7099999999999998E-004     2.0768868691081545E-011
  -1.7049999999999997E-004     2.7523518836943603E-011
  -1.6999999999999999E-004     3.2708745257772442E-011
  -1.6949999999999997E-004     3.4081287290637598E-011
  -1.6899999999999999E-004     2.8788468450609992E-011
  -1.6849999999999998E-004     1.3615259764357428E-011
  -1.6799999999999999E-004    -1.4539531535803455E-011
  -1.6749999999999998E-004    -5.7930130478428572E-011
  -1.6699999999999999E-004    -1.1697888632229214E-010
  -1.6649999999999998E-004    -1.8910800441907918E-010
  -1.6599999999999997E-004    -2.6752275001017098E-010
  -1.6549999999999998E-004    -3.4016779909264832E-010
  -1.6500000000000000E-004    -3.8916072467070131E-010
  -1.6449999999999999E-004    -3.9106704444825414E-010
  -1.6399999999999997E-004    -3.1840280737564120E-010
  -1.6349999999999999E-004    -1.4272077080551806E-010
  -1.6299999999999998E-004     1.6051499380074405E-010
  -1.6249999999999999E-004     6.0525253436626485E-010
  -1.6199999999999998E-004     1.1867516663428170E-009
  -1.6149999999999997E-004     1.8727887389303974E-009
  -1.6099999999999998E-004     2.5955073437883681E-009
  -1.6050000000000000E-004     3.2455734167269538E-009
  -1.5999999999999999E-004     3.6708688182987669E-009
  -1.5949999999999997E-004     3.6820251067327705E-009
  -1.5899999999999999E-004     3.0669908471025830E-009
  -1.5849999999999998E-004     1.6163406015582147E-009
  -1.5799999999999999E-004    -8.4014379772109449E-010
  -1.5749999999999998E-004    -4.3867512972995282E-009
  -1.5699999999999999E-004    -8.9680120793022704E-009
  -1.5649999999999998E-004    -1.4333850232682367E-008
  -1.5600000000000000E-004    -1.9991734323833324E-008
  -1.5549999999999999E-004    -2.5176814025095275E-008
  -1.5499999999999997E-004    -2.8852306435186408E-008
  -1.5449999999999999E-004    -2.9752511644265080E-008
  -1.5399999999999998E-004    -2.6479916952032987E-008
  -1.5349999999999999E-004    -1.7662779699906805E-008
  -1.5299999999999998E-004    -2.1746305329203087E-009
  -1.5249999999999999E-004     2.0593271899991100E-008
  -1.5199999999999998E-004     5.0426453355849076E-008
  -1.5150000000000000E-004     8.5980124252107451E-008
  -1.5099999999999998E-004     1.2451519905889752E-007
  -1.5049999999999997E-004     1.6173301647432669E-007
  -1.4999999999999999E-004     1.9176889732780858E-007
  -1.4949999999999997E-004     2.0740590454892454E-007
  -1.4899999999999999E-004     2.0056141019679961E-007
  -1.4849999999999998E-004     1.6307667414893127E-007
  -1.4799999999999999E-004     8.7815846235899967E-008
  -1.4749999999999998E-004    -2.9974225836830908E-008
  -1.4700000000000000E-004    -1.9111998920983700E-007
  -1.4649999999999998E-004    -3.9095063769335631E-007
  -1.4599999999999997E-004    -6.1789443408556184E-007
  -1.4549999999999999E-004    -8.5248302473635510E-007
  -1.4500000000000000E-004    -1.0670444590386744E-006
  -1.4449999999999999E-004    -1.2263499402272849E-006
  -1.4399999999999998E-004    -1.2894588108727626E-006
  -1.4349999999999999E-004    -1.2129295438379256E-006
  -1.4299999999999998E-004    -9.5543746562757121E-007
  -1.4249999999999999E-004    -4.8367870983990260E-007
  -1.4199999999999998E-004     2.2073794270655839E-007
  -1.4149999999999997E-004     1.1539822123105692E-006
  -1.4099999999999998E-004     2.2829927132133080E-006
  -1.4050000000000000E-004     3.5397701656352854E-006
  -1.3999999999999999E-004     4.8180141424748671E-006
  -1.3949999999999998E-004     5.9732834927243765E-006
  -1.3899999999999999E-004     6.8277429360480536E-006
  -1.3850000000000001E-004     7.1803172518587022E-006
  -1.3799999999999999E-004     6.8227071899133976E-006
  -1.3749999999999998E-004     5.5612300663219511E-006
  -1.3699999999999997E-004     3.2436173319050700E-006
  -1.3649999999999998E-004    -2.1082648112814929E-007
  -1.3600000000000000E-004    -4.7800072916957167E-006
  -1.3549999999999999E-004    -1.0310251200696137E-005
  -1.3499999999999997E-004    -1.6493505136638447E-005
  -1.3449999999999999E-004    -2.2855287454478840E-005
  -1.3400000000000000E-004    -2.8757149479937362E-005
  -1.3349999999999999E-004    -3.3418061112876591E-005
  -1.3299999999999998E-004    -3.5957237496363906E-005
  -1.3249999999999997E-004    -3.5459912686131526E-005
  -1.3199999999999998E-004    -3.1065377737853320E-005
  -1.3150000000000000E-004    -2.2073544179113148E-005
  -1.3099999999999999E-004    -8.0642589914104027E-006
  -1.3049999999999997E-004     1.0980254167349187E-005
  -1.2999999999999999E-004     3.4561698927011830E-005
  -1.2950000000000000E-004     6.1574586954723083E-005
  -1.2899999999999999E-004     9.0253798581860272E-005
  -1.2849999999999998E-004     1.1817534024163062E-004
  -1.2799999999999997E-004     1.4232468624860779E-004
  -1.2749999999999998E-004     1.5924288796054478E-004
  -1.2700000000000000E-004     1.6525437462763657E-004
  -1.2649999999999998E-004     1.5677626026419997E-004
  -1.2599999999999997E-004     1.3069641487087235E-004
  -1.2549999999999999E-004     8.4800630640615563E-005
  -1.2500000000000000E-004     1.8218691380823219E-005
  -1.2449999999999999E-004    -6.8148464353925793E-005
  -1.2399999999999998E-004    -1.7127018096193815E-004
  -1.2349999999999997E-004    -2.8574433731954908E-004
  -1.2299999999999998E-004    -4.0372373837171206E-004
  -1.2250000000000000E-004    -5.1505939311661359E-004
  -1.2199999999999998E-004    -6.0769615341054080E-004
  -1.2149999999999999E-004    -6.6834152930355273E-004
  -1.2099999999999999E-004    -6.8340850337691539E-004
  -1.2049999999999999E-004    -6.4020590360596059E-004
  -1.1999999999999999E-004    -5.2831859576375761E-004
  -1.1949999999999999E-004    -3.4110093958848254E-004
  -1.1899999999999999E-004    -7.7153296333966749E-005
  -1.1849999999999998E-004     2.5833668010969498E-004
  -1.1799999999999998E-004     6.5255780940262197E-004
  -1.1749999999999998E-004     1.0844958878671481E-003
  -1.1699999999999998E-004     1.5249617156674218E-003
  -1.1649999999999999E-004     1.9373650723662674E-003
  -1.1599999999999999E-004     2.2793042145280791E-003
  -1.1549999999999999E-004     2.5050235550084440E-003
  -1.1499999999999999E-004     2.5686802298432363E-003
  -1.1449999999999999E-004     2.4283255634300871E-003
  -1.1399999999999999E-004     2.0503653691473995E-003
  -1.1349999999999998E-004     1.4142503403058188E-003
  -1.1299999999999998E-004     5.1698930618589026E-004
  -1.1249999999999998E-004    -6.2290623620286619E-004
  -1.1199999999999998E-004    -1.9625140456342553E-003
  -1.1149999999999999E-004    -3.4330673792440408E-003
  -1.1099999999999999E-004    -4.9404526130759048E-003
  -1.1049999999999999E-004    -6.3678929264396342E-003
  -1.0999999999999999E-004    -7.5811120464240973E-003
  -1.0949999999999999E-004    -8.4359284296832496E-003
  -1.0899999999999999E-004    -8.7881885964865673E-003
  -1.0849999999999998E-004    -8.5056141839161287E-003
  -1.0799999999999998E-004    -7.4809632300571003E-003
  -1.0749999999999998E-004    -5.6456447446071268E-003
  -1.0699999999999999E-004    -2.9828319780868221E-003
  -1.0649999999999999E-004     4.6115994840595787E-004
  -1.0599999999999999E-004     4.5684325396114916E-003
  -1.0549999999999999E-004     9.1452081407990583E-003
  -1.0499999999999999E-004     1.3922770764118129E-002
  -1.0449999999999999E-004     1.8564509117487416E-002
  -1.0399999999999998E-004     2.2679626182297533E-002
  -1.0349999999999998E-004     2.5843562908270362E-002
  -1.0299999999999998E-004     2.7624832969611629E-002
  -1.0249999999999998E-004     2.7617180447900409E-002
  -1.0199999999999999E-004     2.5475683167628851E-002
  -1.0149999999999999E-004     2.0954521242469912E-002
  -1.0099999999999999E-004     1.3944075330722491E-002
  -1.0049999999999999E-004     4.5042394581760754E-003
  -9.9999999999999991E-005    -7.1091348058669760E-003
  -9.9499999999999993E-005    -2.0427773914972226E-002
  -9.8999999999999980E-005    -3.4767497641083590E-002
  -9.8499999999999982E-005    -4.9239995395540054E-002
  -9.7999999999999983E-005    -6.2781930706537842E-002
  -9.7499999999999985E-005    -7.4201679515979752E-002
  -9.6999999999999986E-005    -8.2243814995174927E-002
  -9.6499999999999987E-005    -8.5669248769124268E-002
  -9.5999999999999989E-005    -8.3348425005014201E-002
  -9.5499999999999990E-005    -7.4362352459048472E-002
  -9.4999999999999992E-005    -5.8107017055651744E-002
  -9.4499999999999993E-005    -3.4392316760163653E-002
  -9.3999999999999981E-005    -3.5308743622085945E-003
  -9.3499999999999982E-005     3.3594627657104123E-002
  -9.2999999999999984E-005     7.5490605017635035E-002
  -9.2499999999999985E-005    0.12004826763536934     
  -9.1999999999999987E-005    0.16457871975387292     
  -9.1499999999999988E-005    0.20589584371409442     
  -9.0999999999999989E-005    0.24044530128227828     
  -9.0499999999999991E-005    0.26448178415974227     
  -8.9999999999999992E-005    0.27428904944422933     
  -8.9499999999999994E-005    0.26643651464122631     
  -8.8999999999999981E-005    0.23806138820264583     
  -8.8499999999999983E-005    0.18716176940931228     
  -8.7999999999999984E-005    0.11288613285243521     
  -8.7499999999999986E-005     1.5795971770528862E-002
  -8.6999999999999987E-005   -0.10191441006047805     
  -8.6499999999999988E-005   -0.23626711471210882     
  -8.5999999999999990E-005   -0.38143489047625923     
  -8.5499999999999991E-005   -0.52978321785657223     
  -8.4999999999999993E-005   -0.67203304944037989     
  -8.4499999999999994E-005   -0.79755449811884604     
  -8.3999999999999982E-005   -0.89479573673803192     
  -8.3499999999999983E-005   -0.95184717964738119     
  -8.2999999999999985E-005   -0.95712175281311551     
  -8.2499999999999986E-005   -0.90013726405191752     
  -8.1999999999999987E-005   -0.77236823352915895     
  -8.1499999999999989E-005   -0.56812735681456161     
  -8.0999999999999990E-005   -0.28542744586617769     
  -8.0499999999999992E-005     7.3224060155431203E-002
  -7.9999999999999993E-005    0.50016517864802656     
  -7.9499999999999994E-005    0.98210696266119135     
  -7.8999999999999982E-005     1.4999179191509926     
  -7.8499999999999984E-005     2.0287019696465212     
  -7.7999999999999985E-005     2.5382468371582707     
  -7.7499999999999986E-005     2.9938454516250079     
  -7.7000000000000001E-005     3.3575260264784061     
  -7.6499999999999989E-005     3.5896829421813288     
  -7.5999999999999977E-005     3.6510759520848706     
  -7.5499999999999992E-005     3.5051742503937615     
  -7.4999999999999980E-005     3.1207202404156078     
  -7.4499999999999995E-005     2.4744501106458179     
  -7.3999999999999983E-005     1.5538330922834480     
  -7.3499999999999998E-005    0.35967533473594071     
  -7.2999999999999985E-005    -1.0916060243220551     
  -7.2500000000000000E-005    -2.7661135440676801     
  -7.1999999999999988E-005    -4.6113570606541909     
  -7.1499999999999976E-005    -6.5558426417424567     
  -7.0999999999999991E-005    -8.5097400952751947     
  -7.0499999999999979E-005    -10.366570167201402     
  -6.9999999999999994E-005    -12.006114418401800     
  -6.9499999999999982E-005    -13.298491319321171     
  -6.8999999999999997E-005    -14.109460795606019     
  -6.8499999999999985E-005    -14.306797432394838     
  -6.7999999999999999E-005    -13.767545247386019     
  -6.7499999999999987E-005    -12.386090583347567     
  -6.6999999999999975E-005    -10.082471000335982     
  -6.6499999999999990E-005    -6.8108016040047650     
  -6.5999999999999978E-005    -2.5672918111290084     
  -6.5499999999999993E-005     2.6026513442863974     
  -6.4999999999999981E-005     8.5986044905023729     
  -6.4499999999999996E-005     15.261300640796172     
  -6.3999999999999984E-005     22.370829059768194     
  -6.3499999999999999E-005     29.647946879638415     
  -6.2999999999999986E-005     36.758131559998873     
  -6.2500000000000001E-005     43.319115217003556     
  -6.1999999999999989E-005     48.911895929722334     
  -6.1499999999999977E-005     53.095035854103912     
  -6.0999999999999992E-005     55.422320712814077     
  -6.0499999999999980E-005     55.463160419469418     
  -5.9999999999999995E-005     52.825447606461289     
  -5.9499999999999983E-005     47.179779959315162     
  -5.8999999999999998E-005     38.284619224266550     
  -5.8499999999999985E-005     26.011020220826850     
  -5.8000000000000000E-005     10.365736549017743     
  -5.7499999999999988E-005    -8.4883506834016735     
  -5.6999999999999976E-005    -30.215792653871251     
  -5.6499999999999991E-005    -54.297639609030483     
  -5.5999999999999979E-005    -80.026747782604886     
  -5.5499999999999994E-005    -106.51100152574742     
  -5.4999999999999982E-005    -132.68498153313459     
  -5.4499999999999997E-005    -157.33050156649966     
  -5.3999999999999984E-005    -179.10712033451165     
  -5.3499999999999999E-005    -196.59140927160945     
  -5.2999999999999987E-005    -208.32655464774859     
  -5.2500000000000002E-005    -212.87865444763599     
  -5.1999999999999990E-005    -208.90128612831424     
  -5.1499999999999978E-005    -195.20483893392992     
  -5.0999999999999993E-005    -170.82852202853130     
  -5.0499999999999981E-005    -135.11431673791722     
  -4.9999999999999996E-005    -87.777635518703974     
  -4.9499999999999983E-005    -28.972740517410571     
  -4.8999999999999998E-005     40.650192976838710     
  -4.8499999999999986E-005     119.89926862219397     
  -4.8000000000000001E-005     207.01269924847014     
  -4.7499999999999989E-005     299.64556838370061     
  -4.6999999999999977E-005     394.88158998708013     
  -4.6499999999999992E-005     489.26600877480269     
  -4.5999999999999980E-005     578.86445940721228     
  -4.5499999999999995E-005     659.34971057839653     
  -4.4999999999999983E-005     726.11330625372648     
  -4.4499999999999997E-005     774.40372224093676     
  -4.3999999999999985E-005     799.48989181672414     
  -4.3500000000000000E-005     796.84394653353991     
  -4.2999999999999988E-005     762.34362865085848     
  -4.2500000000000003E-005     692.48342320048744     
  -4.1999999999999991E-005     584.59564951160996     
  -4.1499999999999979E-005     437.06736649565096     
  -4.0999999999999994E-005     249.54706016589756     
  -4.0499999999999982E-005     23.137335469844402     
  -3.9999999999999996E-005    -239.44430370299636     
  -3.9499999999999984E-005    -533.73926275901488     
  -3.8999999999999999E-005    -853.46655645465637     
  -3.8499999999999987E-005    -1190.4975018027396     
  -3.8000000000000002E-005    -1534.8948882539491     
  -3.7499999999999990E-005    -1875.0182569151975     
  -3.6999999999999978E-005    -2197.7048021851842     
  -3.6499999999999993E-005    -2488.5300620271005     
  -3.5999999999999981E-005    -2732.1484705715156     
  -3.5499999999999996E-005    -2912.7087169667439     
  -3.4999999999999983E-005    -3014.3424592483698     
  -3.4499999999999998E-005    -3021.7288139697830     
  -3.3999999999999986E-005    -2920.7030460005240     
  -3.3500000000000001E-005    -2698.9091187724844     
  -3.2999999999999989E-005    -2346.4858482262330     
  -3.2499999999999977E-005    -1856.7593770457399     
  -3.1999999999999992E-005    -1226.9014972692387     
  -3.1499999999999980E-005    -458.57521880588251     
  -3.0999999999999995E-005     441.51585229407374     
  -3.0499999999999982E-005     1461.1453943343395     
  -2.9999999999999997E-005     2582.2375843408495     
  -2.9499999999999985E-005     3780.6554389962416     
  -2.9000000000000000E-005     5026.1875489760132     
  -2.8499999999999988E-005     6282.7336781703316     
  -2.8000000000000003E-005     7508.6992490574712     
  -2.7499999999999991E-005     8657.6484129047785     
  -2.6999999999999979E-005     9679.1536032462645     
  -2.6499999999999994E-005     10519.961316507757     
  -2.5999999999999981E-005     11125.343136516492     
  -2.5499999999999996E-005     11440.709954555070     
  -2.4999999999999984E-005     11413.438486404684     
  -2.4499999999999999E-005     10994.833205808918     
  -2.3999999999999987E-005     10142.305515598688     
  -2.3500000000000002E-005     8821.5406928545817     
  -2.2999999999999990E-005     7008.7874093902192     
  -2.2499999999999978E-005     4693.0605810971028     
  -2.1999999999999993E-005     1878.2361721146576     
  -2.1499999999999980E-005    -1415.0601821091873     
  -2.0999999999999995E-005    -5147.7785490035076     
  -2.0499999999999983E-005    -9261.2421529373205     
  -1.9999999999999998E-005    -13676.300254081716     
  -1.9499999999999986E-005    -18293.024272675953     
  -1.9000000000000001E-005    -22991.096417033823     
  -1.8499999999999989E-005    -27630.745273726494     
  -1.8000000000000004E-005    -32054.519296467653     
  -1.7499999999999992E-005    -36089.794115445337     
  -1.6999999999999980E-005    -39552.019692488131     
  -1.6499999999999994E-005    -42248.932419412929     
  -1.5999999999999982E-005    -43985.203951200987     
  -1.5499999999999997E-005    -44568.253778612663     
  -1.4999999999999985E-005    -43814.232201539984     
  -1.4500000000000000E-005    -41554.961206014501     
  -1.3999999999999988E-005    -37644.983195064633     
  -1.3500000000000003E-005    -31968.958509738084     
  -1.2999999999999991E-005    -24449.216821592276     
  -1.2499999999999979E-005    -15052.826263868887     
  -1.1999999999999994E-005    -3798.7729560780399     
  -1.1499999999999981E-005     9236.0568954711707     
  -1.0999999999999996E-005     23911.297712339197     
  -1.0499999999999984E-005     40019.065019067704     
  -9.9999999999999991E-006     57281.010354996441     
  -9.4999999999999870E-006     75347.414814638541     
  -9.0000000000000019E-006     93797.820882870743     
  -8.4999999999999898E-006     112143.97188840274     
  -7.9999999999999776E-006     129835.06932258721     
  -7.4999999999999926E-006     146265.24033434450     
  -6.9999999999999804E-006     160783.74068825785     
  -6.4999999999999954E-006     172707.44211175464     
  -5.9999999999999832E-006     181335.66217633826     
  -5.4999999999999982E-006     185967.84628913793     
  -4.9999999999999860E-006     185922.68436259479     
  -4.5000000000000010E-006     180559.39929522263     
  -3.9999999999999888E-006     169300.59987626586     
  -3.5000000000000038E-006     151655.97162165819     
  -2.9999999999999916E-006     127246.37266535260     
  -2.4999999999999795E-006     95828.284559588908     
  -1.9999999999999944E-006     57317.307169290478     
  -1.4999999999999823E-006     11809.889805084898     
  -9.9999999999999720E-007    -40396.409112761699     
  -4.9999999999998505E-007    -98785.699733721995     
   0.0000000000000000         -162610.82389751260     
   5.0000000000001215E-007    -230883.94939509302     
   9.9999999999999720E-007    -302373.28353695490     
   1.5000000000000094E-006    -375603.86566490604     
   2.0000000000000215E-006    -448867.29872729041     
   2.5000000000000066E-006    -520235.50946439657     
   3.0000000000000187E-006    -587584.27563358750     
   3.5000000000000038E-006    -648622.14513568417     
   4.0000000000000159E-006    -700928.33083525184     
   4.5000000000000010E-006    -741998.33898643148     
   5.0000000000000131E-006    -769294.99016820360     
   5.4999999999999982E-006    -780307.59148967254     
   6.0000000000000103E-006    -772618.41487021116     
   6.4999999999999954E-006    -743972.36077482253     
   7.0000000000000075E-006    -692350.73708626186     
   7.5000000000000197E-006    -616050.59588206362     
   8.0000000000000047E-006    -513763.88322609523     
   8.5000000000000169E-006    -384657.22084816109     
   9.0000000000000019E-006    -228450.11386316834     
   9.5000000000000141E-006    -45490.408401907684     
   9.9999999999999991E-006     163178.41184403264     
   1.0500000000000011E-005     395750.70298329985     
   1.0999999999999996E-005     649604.23585211637     
   1.1500000000000008E-005     921264.68282007356     
   1.2000000000000021E-005     1206364.6998566985     
   1.2500000000000006E-005     1499630.6125355624     
   1.3000000000000018E-005     1794885.6409190313     
   1.3500000000000003E-005     2085056.4624693610     
   1.4000000000000015E-005     2362209.1786287157     
   1.4500000000000000E-005     2617613.1725341789     
   1.5000000000000012E-005     2841785.2758220220     
   1.5499999999999997E-005     3024595.7736347620     
   1.6000000000000009E-005     3155370.3795862491     
   1.6499999999999994E-005     3223013.1964988005     
   1.7000000000000007E-005     3216133.7589795659     
   1.7500000000000019E-005     3123227.6203481322     
   1.8000000000000004E-005     2932806.4143707315     
   1.8500000000000016E-005     2633590.4079794330     
   1.9000000000000001E-005     2214712.2591288309     
   1.9500000000000013E-005     1665846.6232805785     
   1.9999999999999998E-005     977449.97405322129     
   2.0500000000000010E-005     140913.54243780742     
   2.0999999999999995E-005    -851256.09118389513     
   2.1500000000000008E-005    -2005255.5774931677     
   2.2000000000000020E-005    -3325872.1804502085     
   2.2500000000000005E-005    -4816283.1088181436     
   2.3000000000000017E-005    -6478035.9110811502     
   2.3500000000000002E-005    -8310905.0859985566     
   2.4000000000000014E-005    -10312818.609775919     
   2.4499999999999999E-005    -12479879.986045834     
   2.5000000000000011E-005    -14806356.623701254     
   2.5499999999999996E-005    -17284668.857597213     
   2.6000000000000009E-005    -19905600.506648719     
   2.6500000000000021E-005    -22658241.791036047     
   2.7000000000000006E-005    -25530275.563491173     
   2.7500000000000018E-005    -28508124.089214385     
   2.8000000000000003E-005    -31577089.387946375     
   2.8500000000000015E-005    -34721760.156025685     
   2.9000000000000000E-005    -37926093.098585159     
   2.9500000000000012E-005    -41173971.761529490     
   2.9999999999999997E-005    -44449222.155449949     
   3.0500000000000010E-005    -47736264.001641944     
   3.0999999999999995E-005    -51020257.602482483     
   3.1500000000000007E-005    -54287542.152057894     
   3.2000000000000019E-005    -57526016.089597985     
   3.2500000000000004E-005    -60725387.022065811     
   3.3000000000000016E-005    -63877640.980685644     
   3.3500000000000001E-005    -66977294.658777468     
   3.4000000000000013E-005    -70021708.510753348     
   3.4499999999999998E-005    -73011304.517380446     
   3.5000000000000010E-005    -75949968.456005454     
   3.5499999999999996E-005    -78845029.612194583     
   3.6000000000000008E-005    -81707467.750380456     
   3.6500000000000020E-005    -84552093.909180582     
   3.7000000000000005E-005    -87397685.646908000     
   3.7500000000000017E-005    -90266570.106433749     
   3.8000000000000002E-005    -93185025.382955551     
   3.8500000000000014E-005    -96182978.605394810     
   3.8999999999999999E-005    -99293735.177359611     
   3.9500000000000011E-005    -102554028.89616311     
   3.9999999999999996E-005    -106003447.40453532     
   4.0500000000000009E-005    -109684291.50001593     
   4.0999999999999994E-005    -113641558.17901477     
   4.1500000000000006E-005    -117921583.97946917     
   4.2000000000000018E-005    -122572769.96259435     
   4.2500000000000003E-005    -127644676.41237319     
   4.3000000000000015E-005    -133187115.02314129     
   4.3500000000000000E-005    -139250478.95320559     
   4.4000000000000012E-005    -145885054.93332109     
   4.4499999999999997E-005    -153140060.43552777     
   4.5000000000000010E-005    -161064335.63018912     
   4.5500000000000022E-005    -169704697.69438452     
   4.5999999999999980E-005    -179106587.56719446     
   4.6499999999999992E-005    -189313339.28269526     
   4.7000000000000004E-005    -200365555.58217889     
   4.7500000000000016E-005    -212301694.25253591     
   4.8000000000000028E-005    -225157395.36336920     
   4.8499999999999986E-005    -238965562.23503977     
   4.8999999999999998E-005    -253756294.34631005     
   4.9500000000000011E-005    -269556539.97622907     
   5.0000000000000023E-005    -286391674.29458904     
   5.0499999999999981E-005    -304283949.03801870     
   5.0999999999999993E-005    -323253125.97160780     
   5.1500000000000005E-005    -343317734.92584300     
   5.2000000000000017E-005    -364494675.83294839     
   5.2500000000000029E-005    -386800123.58508331     
   5.2999999999999987E-005    -410248348.83955234     
   5.3499999999999999E-005    -434855206.71776593     
   5.4000000000000012E-005    -460635286.61775362     
   5.4500000000000024E-005    -487605993.11078393     
   5.4999999999999982E-005    -515784736.68576986     
   5.5499999999999994E-005    -545192840.13820958     
   5.6000000000000006E-005    -575853175.80460656     
   5.6500000000000018E-005    -607791278.73717332     
   5.7000000000000030E-005    -641039201.12177742     
   5.7499999999999988E-005    -675631006.10094476     
   5.8000000000000000E-005    -711606116.94318426     
   5.8500000000000012E-005    -749009839.14907336     
   5.9000000000000025E-005    -787892913.64052773     
   5.9499999999999983E-005    -828313789.92539728     
   5.9999999999999995E-005    -870332124.23988855     
   6.0500000000000007E-005    -914019626.27199054     
   6.1000000000000019E-005    -959452819.49895298     
   6.1500000000000031E-005    -1006712654.8123915     
   6.1999999999999989E-005    -1055890309.5644410     
   6.2500000000000001E-005    -1107079907.9753954     
   6.3000000000000013E-005    -1160384757.8854384     
   6.3500000000000026E-005    -1215912220.9958630     
   6.3999999999999984E-005    -1273775761.2956316     
   6.4499999999999996E-005    -1334097000.4252987     
   6.5000000000000008E-005    -1396997628.3369262     
   6.5500000000000020E-005    -1462613179.5035815     
   6.6000000000000032E-005    -1531070140.8783796     
   6.6499999999999990E-005    -1602508564.2813466     
   6.7000000000000002E-005    -1677067202.9879630     
   6.7500000000000014E-005    -1754892819.3865499     
   6.8000000000000027E-005    -1836128216.0634201     
   6.8499999999999985E-005    -1920923660.0251291     
   6.8999999999999997E-005    -2009425547.0613379     
   6.9500000000000009E-005    -2101782800.1668701     
   7.0000000000000021E-005    -2198149068.6479321     
   7.0499999999999979E-005    -2298668924.6509194     
   7.0999999999999991E-005    -2403494719.0582795     
   7.1500000000000003E-005    -2512775460.5494542     
   7.2000000000000015E-005    -2626659604.1340065     