  -1.9999999999999998E-004     0.0000000000000000     
  -1.9949999999999997E-004     0.0000000000000000     
  -1.9899999999999999E-004     0.0000000000000000     
  -1.9849999999999997E-004     0.0000000000000000     
  -1.9799999999999999E-004     0.0000000000000000     
  -1.9749999999999998E-004     0.0000000000000000     
  -1.9699999999999999E-004     1.1135593620787080E-014
  -1.9649999999999998E-004     1.1674630711359223E-013
  -1.9599999999999999E-004     6.2205840990336613E-013
  -1.9549999999999998E-004     2.1801433221460899E-012
  -1.9499999999999997E-004     5.3265979159103537E-012
  -1.9449999999999998E-004     8.0745206178643965E-012
  -1.9399999999999997E-004    -5.4819236371131923E-013
  -1.9349999999999999E-004    -5.3013081493684571E-011
  -1.9299999999999997E-004    -2.2156049082626836E-010
  -1.9249999999999999E-004    -6.3629870873705258E-010
  -1.9199999999999998E-004    -1.4881253168128174E-009
  -1.9149999999999999E-004    -2.9913208361548716E-009
  -1.9099999999999998E-004    -5.2742872960426078E-009
  -1.9050000000000000E-004    -8.1728183849201316E-009
  -1.8999999999999998E-004    -1.0926412286114694E-008
  -1.8949999999999997E-004    -1.1830255114698822E-008
  -1.8899999999999999E-004    -7.9710633315144988E-009
  -1.8849999999999997E-004     4.7441149937599740E-009
  -1.8799999999999999E-004     3.0996290311811874E-008
  -1.8749999999999998E-004     7.4640927839565782E-008
  -1.8699999999999999E-004     1.3633268880555815E-007
  -1.8649999999999998E-004     2.1031675765519071E-007
  -1.8599999999999999E-004     2.8092383083051207E-007
  -1.8549999999999998E-004     3.1981153021730005E-007
  -1.8500000000000000E-004     2.8547496235464118E-007
  -1.8449999999999999E-004     1.2682048680988582E-007
  -1.8399999999999997E-004    -2.0752731632039943E-007
  -1.8349999999999999E-004    -7.5328121672593783E-007
  -1.8299999999999998E-004    -1.5084390341001525E-006
  -1.8249999999999999E-004    -2.4078435374648935E-006
  -1.8199999999999998E-004    -3.2996651894673506E-006
  -1.8149999999999999E-004    -3.9315003036047988E-006
  -1.8099999999999998E-004    -3.9557486117535361E-006
  -1.8050000000000000E-004    -2.9635020009481510E-006
  -1.7999999999999998E-004    -5.5417669248619889E-007
  -1.7949999999999997E-004     3.5577107566012184E-006
  -1.7899999999999999E-004     9.4057221386377100E-006
  -1.7849999999999997E-004     1.6622556662046165E-005
  -1.7799999999999999E-004     2.4308641501284871E-005
  -1.7749999999999998E-004     3.0957917974144299E-005
  -1.7699999999999999E-004     3.4485707543906662E-005
  -1.7649999999999998E-004     3.2400773936775061E-005
  -1.7600000000000000E-004     2.2150794979337388E-005
  -1.7549999999999998E-004     1.6447823543181024E-006
  -1.7499999999999997E-004    -3.0079346617658601E-005
  -1.7449999999999999E-004    -7.2119478292905246E-005
  -1.7399999999999997E-004    -1.2102893035375171E-004
  -1.7349999999999999E-004    -1.7035235854258090E-004
  -1.7299999999999998E-004    -2.1056090294950514E-004
  -1.7249999999999999E-004    -2.2956524461993866E-004
  -1.7199999999999998E-004    -2.1393553348257997E-004
  -1.7149999999999999E-004    -1.5088438328122918E-004
  -1.7099999999999998E-004    -3.0925121803357364E-005
  -1.7049999999999997E-004     1.4901312165609877E-004
  -1.6999999999999999E-004     3.8241977722897535E-004
  -1.6949999999999997E-004     6.5052867548870950E-004
  -1.6899999999999999E-004     9.2079906891985889E-004
  -1.6849999999999998E-004     1.1472269279016478E-003
  -1.6799999999999999E-004     1.2730920053578372E-003
  -1.6749999999999998E-004     1.2365371457227175E-003
  -1.6699999999999999E-004     9.7900563645335185E-004
  -1.6649999999999998E-004     4.5616058070644533E-004
  -1.6599999999999997E-004    -3.4969054861545400E-004
  -1.6549999999999998E-004    -1.4171623917449724E-003
  -1.6500000000000000E-004    -2.6753041893142642E-003
  -1.6449999999999999E-004    -3.9973632996777517E-003
  -1.6399999999999997E-004    -5.2011451085141065E-003
  -1.6349999999999999E-004    -6.0580192336150088E-003
  -1.6299999999999998E-004    -6.3119521443602026E-003
  -1.6249999999999999E-004    -5.7088076490098092E-003
  -1.6199999999999998E-004    -4.0348607915844641E-003
  -1.6149999999999997E-004    -1.1615978910560383E-003
  -1.6099999999999998E-004     2.9077611539679617E-003
  -1.6050000000000000E-004     7.9960892782738584E-003
  -1.5999999999999999E-004     1.3721898156110884E-002
  -1.5949999999999997E-004     1.9488404597400942E-002
  -1.5899999999999999E-004     2.4499223768784086E-002
  -1.5849999999999998E-004     2.7806519120562576E-002
  -1.5799999999999999E-004     2.8394297596820196E-002
  -1.5749999999999998E-004     2.5295627755199657E-002
  -1.5699999999999999E-004     1.7738075531584095E-002
  -1.5649999999999998E-004     5.3056593412148211E-003
  -1.5600000000000000E-004    -1.1899013299421744E-002
  -1.5549999999999999E-004    -3.3113706644327140E-002
  -1.5499999999999997E-004    -5.6820746228447849E-002
  -1.5449999999999999E-004    -8.0721042905525522E-002
  -1.5399999999999998E-004   -0.10180057969528380     
  -1.5349999999999999E-004   -0.11650603114462962     
  -1.5299999999999998E-004   -0.12103720169390053     
  -1.5249999999999999E-004   -0.11175117994915768     
  -1.5199999999999998E-004    -8.5658166309086653E-002
  -1.5150000000000000E-004    -4.0973094746493549E-002
  -1.5099999999999998E-004     2.2329848150124371E-002
  -1.5049999999999997E-004    0.10202506175053572     
  -1.4999999999999999E-004    0.19328199918924632     
  -1.4949999999999997E-004    0.28852678108598628     
  -1.4899999999999999E-004    0.37759047591189193     
  -1.4849999999999998E-004    0.44820134210117213     
  -1.4799999999999999E-004    0.48684843311022563     
  -1.4749999999999998E-004    0.48001203413981292     
  -1.4700000000000000E-004    0.41571071003082771     
  -1.4649999999999998E-004    0.28526915295347444     
  -1.4599999999999997E-004     8.5157955337505808E-002
  -1.4549999999999999E-004   -0.18127419122144595     
  -1.4500000000000000E-004   -0.50240735635947487     
  -1.4449999999999999E-004   -0.85751241555852387     
  -1.4399999999999998E-004    -1.2167139132267044     
  -1.4349999999999999E-004    -1.5419174866107086     
  -1.4299999999999998E-004    -1.7888631017638723     
  -1.4249999999999999E-004    -1.9103084809017785     
  -1.4199999999999998E-004    -1.8602941937153437     
  -1.4149999999999997E-004    -1.5992730546736014     
  -1.4099999999999998E-004    -1.0997791861094290     
  -1.4050000000000000E-004   -0.35214894357247739     
  -1.3999999999999999E-004    0.63023507752726116     
  -1.3949999999999998E-004     1.8068598652561763     
  -1.3899999999999999E-004     3.1077734987089487     
  -1.3850000000000001E-004     4.4337067628492983     
  -1.3799999999999999E-004     5.6590658116511907     
  -1.3749999999999998E-004     6.6381786633920328     
  -1.3699999999999997E-004     7.2147966817480880     
  -1.3649999999999998E-004     7.2346733576290632     
  -1.3600000000000000E-004     6.5606317755984902     
  -1.3549999999999999E-004     5.0891753062800040     
  -1.3499999999999997E-004     2.7674912914782448     
  -1.3449999999999999E-004   -0.39067675905132848     
  -1.3400000000000000E-004    -4.2919734289201079     
  -1.3349999999999999E-004    -8.7548134631345338     
  -1.3299999999999998E-004    -13.506883485763799     
  -1.3249999999999997E-004    -18.190086391620454     
  -1.3199999999999998E-004    -22.373872109713119     
  -1.3150000000000000E-004    -25.577405441007325     
  -1.3099999999999999E-004    -27.300186268923895     
  -1.3049999999999997E-004    -27.060227764685997     
  -1.2999999999999999E-004    -24.437916652810401     
  -1.2950000000000000E-004    -19.122875420230201     
  -1.2899999999999999E-004    -10.960924546002541     
  -1.2849999999999998E-004     3.0265125371364832E-003
  -1.2799999999999997E-004     13.489735117273426     
  -1.2749999999999998E-004     28.962266497948534     
  -1.2700000000000000E-004     45.618307560232665     
  -1.2649999999999998E-004     62.401121507915633     
  -1.2599999999999997E-004     78.031348081273990     
  -1.2549999999999999E-004     91.061177764723979     
  -1.2500000000000000E-004     99.949726550740152     
  -1.2449999999999999E-004     103.15848625326626     
  -1.2399999999999998E-004     99.262802316588477     
  -1.2349999999999997E-004     87.074575171155885     
  -1.2299999999999998E-004     65.769107752681009     
  -1.2250000000000000E-004     35.008819619626166     
  -1.2199999999999998E-004    -4.9456312573409775     
  -1.2149999999999999E-004    -53.144649525447591     
  -1.2099999999999999E-004    -107.89092928424063     
  -1.2049999999999999E-004    -166.71845329561009     
  -1.1999999999999999E-004    -226.41834427681880     
  -1.1949999999999999E-004    -283.11680703434450     
  -1.1899999999999999E-004    -332.40768049950623     
  -1.1849999999999998E-004    -369.54128825168755     
  -1.1799999999999998E-004    -389.66477710803395     
  -1.1749999999999998E-004    -388.11016836687861     
  -1.1699999999999998E-004    -360.71751162859414     
  -1.1649999999999999E-004    -304.18171528112725     
  -1.1599999999999999E-004    -216.40400875705961     
  -1.1549999999999999E-004    -96.831585332032319     
  -1.1499999999999999E-004     53.240546014660879     
  -1.1449999999999999E-004     230.42561345653428     
  -1.1399999999999999E-004     429.08344758959038     
  -1.1349999999999998E-004     641.26197561322010     
  -1.1299999999999998E-004     856.76464966379763     
  -1.1249999999999998E-004     1063.3553797659988     
  -1.1199999999999998E-004     1247.1137397867344     
  -1.1149999999999999E-004     1392.9430915323539     
  -1.1099999999999999E-004     1485.2273978221906     
  -1.1049999999999999E-004     1508.6201484681492     
  -1.0999999999999999E-004     1448.9510339864864     
  -1.0949999999999999E-004     1294.2049836151534     
  -1.0899999999999999E-004     1035.5449964218465     
  -1.0849999999999998E-004     668.32083272405498     
  -1.0799999999999998E-004     193.01234003905415     
  -1.0749999999999998E-004    -383.95506165863162     
  -1.0699999999999999E-004    -1049.5821055392198     
  -1.0649999999999999E-004    -1783.9237360178454     
  -1.0599999999999999E-004    -2560.0069313176355     
  -1.0549999999999999E-004    -3344.1210110802704     
  -1.0499999999999999E-004    -4096.4803059081732     
  -1.0449999999999999E-004    -4772.2981203575409     
  -1.0399999999999998E-004    -5323.2833974260393     
  -1.0349999999999998E-004    -5699.5083455383055     
  -1.0299999999999998E-004    -5851.6548776521822     
  -1.0249999999999998E-004    -5733.5414353827455     
  -1.0199999999999999E-004    -5304.8626759046629     
  -1.0149999999999999E-004    -4534.0164238969928     
  -1.0099999999999999E-004    -3400.9562656376820     
  -1.0049999999999999E-004    -1899.8521137597054     
  -9.9999999999999991E-005    -41.468688948178169     
  -9.9499999999999993E-005     2144.8870856410122     
  -9.8999999999999980E-005     4610.0193832406076     
  -9.8499999999999982E-005     7284.2139933731632     
  -9.7999999999999983E-005     10077.439628682372     
  -9.7499999999999985E-005     12880.507344099879     
  -9.6999999999999986E-005     15567.183013054200     
  -9.6499999999999987E-005     17997.360632946744     
  -9.5999999999999989E-005     20021.225115529865     
  -9.5499999999999990E-005     21484.354395627379     
  -9.4999999999999992E-005     22233.706600635953     
  -9.4499999999999993E-005     22124.287460457057     
  -9.3999999999999981E-005     21026.285149556217     
  -9.3499999999999982E-005     18832.580267103396     
  -9.2999999999999984E-005     15466.128625957677     
  -9.2499999999999985E-005     10887.232208121852     
  -9.1999999999999987E-005     5100.0145077345260     
  -9.1499999999999988E-005    -1841.8106030014897     
  -9.0999999999999989E-005    -9830.5150554657739     
  -9.0499999999999991E-005    -18701.484854383860     
  -8.9999999999999992E-005    -28232.017905766421     
  -8.9499999999999994E-005    -38142.237048830706     
  -8.8999999999999981E-005    -48098.247240209937     
  -8.8499999999999983E-005    -57717.536781743700     
  -8.7999999999999984E-005    -66576.742490631834     
  -8.7499999999999986E-005    -74222.075817812598     
  -8.6999999999999987E-005    -80181.563741659760     
  -8.6499999999999988E-005    -83979.751237579854     
  -8.5999999999999990E-005    -85154.079624734804     
  -8.5499999999999991E-005    -83272.774852793780     
  -8.4999999999999993E-005    -77953.666020978562     
  -8.4499999999999994E-005    -68883.608171945249     
  -8.3999999999999982E-005    -55838.087599705003     
  -8.3499999999999983E-005    -38699.871209166617     
  -8.2999999999999985E-005    -17476.327134755789     
  -8.2499999999999986E-005     7684.8714402947371     
  -8.1999999999999987E-005     36483.360319359839     
  -8.1499999999999989E-005     68456.587704298392     
  -8.0999999999999990E-005     102974.53966092139     
  -8.0499999999999992E-005     139239.26000503695     
  -7.9999999999999993E-005     176289.49668187494     
  -7.9499999999999994E-005     213010.91162977560     
  -7.8999999999999982E-005     248152.77790079295     
  -7.8499999999999984E-005     280349.66849092476     
  -7.7999999999999985E-005     308150.92871406232     
  -7.7499999999999986E-005     330054.38383008767     
  -7.7000000000000001E-005     344547.39098441578     
  -7.6499999999999989E-005     350151.00659190316     
  -7.5999999999999977E-005     345470.79889609560     
  -7.5499999999999992E-005     329247.08522106369     
  -7.4999999999999980E-005     300412.64807759965     
  -7.4499999999999995E-005     258144.69287976262     
  -7.3999999999999983E-005     201921.59637133856     
  -7.3499999999999998E-005     131572.59172587615     
  -7.2999999999999985E-005     47325.489165309118     
  -7.2500000000000000E-005    -50153.464835322928     
  -7.1999999999999988E-005    -159725.95484486604     
  -7.1499999999999976E-005    -279760.95493395266     
  -7.0999999999999991E-005    -408122.98648327199     
  -7.0499999999999979E-005    -542174.51511186431     
  -6.9999999999999994E-005    -678793.13671528315     
  -6.9499999999999982E-005    -814404.29853326990     
  -6.8999999999999997E-005    -945028.49032039498     
  -6.8499999999999985E-005    -1066346.5659020012     
  -6.7999999999999999E-005    -1173778.9115564562     
  -6.7499999999999987E-005    -1262584.0401087697     
  -6.6999999999999975E-005    -1327963.7997830231     
  -6.6499999999999990E-005    -1365190.5591691104     
  -6.5999999999999978E-005    -1369737.6333132985     
  -6.5499999999999993E-005    -1337421.2694496054     
  -6.4999999999999981E-005    -1264548.4741056536     
  -6.4499999999999996E-005    -1148064.2996682152     
  -6.3999999999999984E-005    -985699.95187602844     
  -6.3499999999999999E-005    -776114.61631998955     
  -6.2999999999999986E-005    -519031.56221157592     
  -6.2500000000000001E-005    -215356.92337358952     
  -6.1999999999999989E-005     132711.58828554838     
  -6.1499999999999977E-005     521602.42338964995     
  -6.0999999999999992E-005     946305.11036948673     
  -6.0499999999999980E-005     1400330.8895928205     
  -5.9999999999999995E-005     1875707.9026290919     
  -5.9499999999999983E-005     2362998.4543544492     
  -5.8999999999999998E-005     2851352.9527749829     
  -5.8499999999999985E-005     3328591.6678107274     
  -5.8000000000000000E-005     3781322.3137887688     
  -5.7499999999999988E-005     4195090.8408758538     
  -5.6999999999999976E-005     4554550.4886255097     
  -5.6499999999999991E-005     4843679.0063523958     
  -5.5999999999999979E-005     5045991.8570373673     
  -5.5499999999999994E-005     5144807.2835067092     
  -5.4999999999999982E-005     5123506.6199574824     
  -5.4499999999999997E-005     4965824.3643323332     
  -5.3999999999999984E-005     4656113.9822693346     
  -5.3499999999999999E-005     4179660.6414405769     
  -5.2999999999999987E-005     3522960.0744484225     
  -5.2500000000000002E-005     2673973.2280261838     
  -5.1999999999999990E-005     1622424.1245525233     
  -5.1499999999999978E-005     359994.99621932115     
  -5.0999999999999993E-005    -1119433.3670369517     
  -5.0499999999999981E-005    -2819612.4211866967     
  -4.9999999999999996E-005    -4741801.2529905569     
  -4.9499999999999983E-005    -6884661.8116269987     
  -4.8999999999999998E-005    -9244171.4971513636     
  -4.8499999999999986E-005    -11813684.428159712     
  -4.8000000000000001E-005    -14583962.182626409     
  -4.7499999999999989E-005    -17543187.539935701     
  -4.6999999999999977E-005    -20677257.192487895     
  -4.6499999999999992E-005    -23969835.412597880     
  -4.5999999999999980E-005    -27402758.427090190     
  -4.5499999999999995E-005    -30956177.906677112     
  -4.4999999999999983E-005    -34609008.210079879     
  -4.4499999999999997E-005    -38339217.255144700     
  -4.3999999999999985E-005    -42124297.172220647     
  -4.3500000000000000E-005    -45941751.470030338     
  -4.2999999999999988E-005    -49769358.468205199     
  -4.2500000000000003E-005    -53585824.343474284     
  -4.1999999999999991E-005    -57371156.908510394     
  -4.1499999999999979E-005    -61107282.309811890     
  -4.0999999999999994E-005    -64778144.761439562     
  -4.0499999999999982E-005    -68370612.440866470     
  -3.9999999999999996E-005    -71874559.543999225     
  -3.9499999999999984E-005    -75283499.146703199     
  -3.8999999999999999E-005    -78594472.199246049     
  -3.8499999999999987E-005    -81808964.390401691     
  -3.8000000000000002E-005    -84932806.467088148     
  -3.7499999999999990E-005    -87975991.597843811     
  -3.6999999999999978E-005    -90953786.405909598     
  -3.6499999999999993E-005    -93885972.274737805     
  -3.5999999999999981E-005    -96797003.561567128     
  -3.5499999999999996E-005    -99716060.277624875     
  -3.4999999999999983E-005    -102676734.67360950     
  -3.4499999999999998E-005    -105717351.54750906     
  -3.3999999999999986E-005    -108879716.83453929     
  -3.3500000000000001E-005    -112210255.93202363     
  -3.2999999999999989E-005    -115757751.26657195     
  -3.2499999999999977E-005    -119574315.02291365     
  -3.1999999999999992E-005    -123714912.88010839     
  -3.1499999999999980E-005    -128236086.37707394     
  -3.0999999999999995E-005    -133195825.98319247     
  -3.0499999999999982E-005    -138652943.89470315     
  -2.9999999999999997E-005    -144666461.74207389     
  -2.9499999999999985E-005    -151295303.22806573     
  -2.9000000000000000E-005    -158597324.42396283     
  -2.8499999999999988E-005    -166629055.05257565     
  -2.8000000000000003E-005    -175445100.26960722     
  -2.7499999999999991E-005    -185097573.32385880     
  -2.6999999999999979E-005    -195636252.30354592     
  -2.6499999999999994E-005    -207106011.92277974     
  -2.5999999999999981E-005    -219550818.34583193     
  -2.5499999999999996E-005    -233007657.36718392     
  -2.4999999999999984E-005    -247513050.85191536     
  -2.4499999999999999E-005    -263097243.37535977     
  -2.3999999999999987E-005    -279788097.73161441     
  -2.3500000000000002E-005    -297609032.03551459     
  -2.2999999999999990E-005    -316579236.60897255     
  -2.2499999999999978E-005    -336715957.95003754     
  -2.1999999999999993E-005    -358034159.49801087     
  -2.1499999999999980E-005    -380545525.66659832     
  -2.0999999999999995E-005    -404260415.96086526     
  -2.0499999999999983E-005    -429187566.73822457     
  -1.9999999999999998E-005    -455336023.47228080     
  -1.9499999999999986E-005    -482716081.06710637     
  -1.9000000000000001E-005    -511338282.93236613     
  -1.8499999999999989E-005    -541218841.39878225     
  -1.8000000000000004E-005    -572372011.62895060     
  -1.7499999999999992E-005    -604819419.05649102     
  -1.6999999999999980E-005    -638585738.12878060     
  -1.6499999999999994E-005    -673704022.48592687     
  -1.5999999999999982E-005    -710210426.33471417     
  -1.5499999999999997E-005    -748148896.60004306     
  -1.4999999999999985E-005    -787572264.28467703     
  -1.4500000000000000E-005    -828541126.10320914     
  -1.3999999999999988E-005    -871121146.73159099     
  -1.3500000000000003E-005    -915393567.15048468     
  -1.2999999999999991E-005    -961442374.83996332     
  -1.2499999999999979E-005    -1009362691.7602730     
  -1.1999999999999994E-005    -1059255901.7837577     
  -1.1499999999999981E-005    -1111236773.1619465     
  -1.0999999999999996E-005    -1165420701.9441912     
  -1.0499999999999984E-005    -1221935352.6318817     
  -9.9999999999999991E-006    -1280919719.8637986     
  -9.4999999999999870E-006    -1342505150.4875002     
  -9.0000000000000019E-006    -1406840371.4488189     
  -8.4999999999999898E-006    -1474080521.1680307     
  -7.9999999999999776E-006    -1544376870.3681929     
  -7.4999999999999926E-006    -1617884740.2774665     
  -6.9999999999999804E-006    -1694764620.9550591     
  -6.4999999999999954E-006    -1775173792.3773477     
  -5.9999999999999832E-006    -1859277435.1588039     
  -5.4999999999999982E-006    -1947222426.4403183     
  -4.9999999999999860E-006    -2039188966.1035633     
  -4.5000000000000010E-006    -2135313430.2045999     
  -3.9999999999999888E-006    -2235764253.7469206     
  -3.5000000000000038E-006    -2340688610.1683140     
  -2.9999999999999916E-006    -2450245502.7197943     
  -2.4999999999999795E-006    -2564579003.1289978     
  -1.9999999999999944E-006    -2683843959.9491978     
  -1.4999999999999823E-006    -2808176928.7181225     
  -9.9999999999999720E-007    -2937733503.6556153     
  -4.9999999999998505E-007    -3072646622.9795160     
   0.0000000000000000         -3213054732.9577818     
   5.0000000000001215E-007    -3359103523.3839731     
   9.9999999999999720E-007    -3510937789.1667757     
   1.5000000000000094E-006    -3668695111.4682455     
   2.0000000000000215E-006    -3832521917.2156086     
   2.5000000000000066E-006    -4002563814.7941427     
   3.0000000000000187E-006    -4178997495.9176807     
   3.5000000000000038E-006    -4361959994.1899643     
   4.0000000000000159E-006    -4551618141.5491476     
   4.5000000000000010E-006    -4748171006.8134136     
   5.0000000000000131E-006    -4951772815.4780407     
   5.4999999999999982E-006    -5162610739.8741474     
   6.0000000000000103E-006    -5380889867.7337523     
   6.4999999999999954E-006    -5606786441.6135006     
   7.0000000000000075E-006    -5840537571.5928535     
   7.5000000000000197E-006    -6082345938.9419012     
   8.0000000000000047E-006    -6332443118.4865446     
   8.5000000000000169E-006    -6591055674.7640133     
   9.0000000000000019E-006    -6858441718.9353676     
   9.5000000000000141E-006    -7134807889.2505665     
   9.9999999999999991E-006    -7420462267.9833260     
   1.0500000000000011E-005    -7715621121.3107843     
   1.0999999999999996E-005    -8020529491.7648048     
   1.1500000000000008E-005    -8335455142.6659527     
   1.2000000000000021E-005    -8660708888.1685524     
   1.2500000000000006E-005    -8996506723.8259354     
   1.3000000000000018E-005    -9343131969.7046356     
   1.3500000000000003E-005    -9700845828.3235474     
   1.4000000000000015E-005    -10069883833.869488     
   1.4500000000000000E-005    -10450497292.615532     
   1.5000000000000012E-005    -10842951039.924601     
   1.5499999999999997E-005    -11247508544.460644     
   1.6000000000000009E-005    -11664360052.301975     
   1.6499999999999994E-005    -12093723874.188808     
   1.7000000000000007E-005    -12535895561.858990     
   1.7500000000000019E-005    -12991027366.145947     
   1.8000000000000004E-005    -13459293197.066246     
   1.8500000000000016E-005    -13940901840.163734     
   1.9000000000000001E-005    -14436058616.422207     
   1.9500000000000013E-005    -14944908089.833576     
   1.9999999999999998E-005    -15467618767.344021     
   2.0500000000000010E-005    -16004423358.624174     
   2.0999999999999995E-005    -16555365886.684914     
   2.1500000000000008E-005    -17120631140.235199     
   2.2000000000000020E-005    -17700369900.286999     
   2.2500000000000005E-005    -18294658111.234203     
   2.3000000000000017E-005    -18903623893.636200     
   2.3500000000000002E-005    -19527376790.836193     
   2.4000000000000014E-005    -20165966186.395439     
   2.4499999999999999E-005    -20819548329.511547     
   2.5000000000000011E-005    -21488230781.245602     
   2.5499999999999996E-005    -22171962542.446369     
   2.6000000000000009E-005    -22870788975.385532     
   2.6500000000000021E-005    -23584880098.559708     
   2.7000000000000006E-005    -24314167943.597176     
   2.7500000000000018E-005    -25058716230.247833     
   2.8000000000000003E-005    -25818583844.032604     
   2.8500000000000015E-005    -26593652166.399220     
   2.9000000000000000E-005    -27384205677.038090     
   2.9500000000000012E-005    -28189800422.758877     
   2.9999999999999997E-005    -29010585464.254875     
   3.0500000000000010E-005    -29846532238.147720     
   3.0999999999999995E-005    -30697416781.482170     
   3.1500000000000007E-005    -31563105607.769630     
   3.2000000000000019E-005    -32443741871.724716     
   3.2500000000000004E-005    -33338977947.444687     
   3.3000000000000016E-005    -34248615117.747505     
   3.3500000000000001E-005    -35172476543.318344     
   3.4000000000000013E-005    -36110069378.839340     
   3.4499999999999998E-005    -37061385171.061371     
   3.5000000000000010E-005    -38026086383.067589     
   3.5499999999999996E-005    -39003481697.345253     
   3.6000000000000008E-005    -39993552781.596588     
   3.6500000000000020E-005    -40995638574.935684     
   3.7000000000000005E-005    -42009314691.149216     
   3.7500000000000017E-005    -43034260737.282074     
   3.8000000000000002E-005    -44069930688.439392     
   3.8500000000000014E-005    -45115387412.671089     
   3.8999999999999999E-005    -46170357786.174698     
   3.9500000000000011E-005    -47233959098.651733     
   3.9999999999999996E-005    -48305681953.883102     
   4.0500000000000009E-005    -49384677829.001724     
   4.0999999999999994E-005    -50470184302.087997     
   4.1500000000000006E-005    -51561062200.906342     
   4.2000000000000018E-005    -52656502094.107597     
   4.2500000000000003E-005    -53755958256.905884     
   4.3000000000000015E-005    -54858440160.734566     
   4.3500000000000000E-005    -55962220494.968376     
   4.4000000000000012E-005    -57067028374.158310     
   4.4499999999999997E-005    -58171664921.923431     
   4.5000000000000010E-005    -59275117778.356812     
   4.5500000000000022E-005    -60375897180.035690     
   4.5999999999999980E-005    -61473024439.930710     
   4.6499999999999992E-005    -62564842285.307663     
   4.7000000000000004E-005    -63650267711.492355     
   4.7500000000000016E-005    -64728099642.443611     
   4.8000000000000028E-005    -65796829672.162506     
   4.8499999999999986E-005    -66854719240.600006     
   4.8999999999999998E-005    -67901042434.003220     
   4.9500000000000011E-005    -68933565406.746918     
   5.0000000000000023E-005    -69951037284.142822     
   5.0499999999999981E-005    -70952394234.926224     
   5.0999999999999993E-005    -71935571011.854355     
   5.1500000000000005E-005    -72898675605.162262     
   5.2000000000000017E-005    -73840090371.108810     
   5.2500000000000029E-005    -74757391947.276993     
   5.2999999999999987E-005    -75650321648.456833     
   5.3499999999999999E-005    -76515729290.915680     
   5.4000000000000012E-005    -77352707274.846176     
   5.4500000000000024E-005    -78158026959.988113     
   5.4999999999999982E-005    -78931571883.254288     
   5.5499999999999994E-005    -79670637345.116806     
   5.6000000000000006E-005    -80372060281.809814     
   5.6500000000000018E-005    -81035016337.661606     
   5.7000000000000030E-005    -81656295463.143051     
   5.7499999999999988E-005    -82234469893.050339     
   5.8000000000000000E-005    -82767133293.981049     
   5.8500000000000012E-005    -83250475428.027023     
   5.9000000000000025E-005    -83684797713.069214     
   5.9499999999999983E-005    -84067168292.044373     
   5.9999999999999995E-005    -84395014514.004028     
   6.0500000000000007E-005    -84664905253.854492     
   6.1000000000000019E-005    -84876028995.632263     
   6.1500000000000031E-005    -85025189268.386688     
   6.1999999999999989E-005    -85110515752.599228     
   6.2500000000000001E-005    -85129801823.820740     
   6.3000000000000013E-005    -85080227072.071045     
   6.3500000000000026E-005    -84958980342.852295     
   6.3999999999999984E-005    -84762011561.272583     
   6.4499999999999996E-005    -84490768245.878906     
   6.5000000000000008E-005    -84140400826.347504     
   6.5500000000000020E-005    -83709248119.965881     
   6.6000000000000032E-005    -83195331703.283096     
   6.6499999999999990E-005    -82594880542.747314     
   6.7000000000000002E-005    -81906183150.988724     
   6.7500000000000014E-005    -81127951371.219345     
   6.8000000000000027E-005    -80256478551.610413     
   6.8499999999999985E-005    -79290741841.018005     
   6.8999999999999997E-005    -78227715871.378128     
   6.9500000000000009E-005    -77064939320.247345     
   7.0000000000000021E-005    -75802046143.539093     
   7.0499999999999979E-005    -74435699493.469543     
   7.0999999999999991E-005    -72964123051.539978     
   7.1500000000000003E-005    -71383958517.685272     
   7.2000000000000015E-005    -69694905338.153687     