  -1.99999995E-04     0.00000000    
  -1.99500006E-04     0.00000000    
  -1.99000002E-04     0.00000000    
  -1.98499998E-04     0.00000000    
  -1.97999994E-04     0.00000000    
  -1.97500005E-04     0.00000000    
  -1.97000001E-04    -1.11356228E-14
  -1.96499997E-04    -1.16747432E-13
  -1.95999994E-04    -6.22050046E-13
  -1.95500004E-04    -2.18014560E-12
  -1.95000001E-04    -5.32663670E-12
  -1.94499997E-04    -8.07449333E-12
  -1.93999993E-04     5.48082738E-13
  -1.93500004E-04     5.30132847E-11
  -1.93000000E-04     2.21563920E-10
  -1.92499996E-04     6.36294906E-10
  -1.92000007E-04     1.48812029E-09
  -1.91500003E-04     2.99131808E-09
  -1.90999999E-04     5.27428634E-09
  -1.90499995E-04     8.17279311E-09
  -1.90000006E-04     1.09264073E-08
  -1.89500002E-04     1.18302959E-08
  -1.88999998E-04     7.97107003E-09
  -1.88499995E-04    -4.74407802E-09
  -1.88000005E-04    -3.09962296E-08
  -1.87500002E-04    -7.46410933E-08
  -1.86999998E-04    -1.36332886E-07
  -1.86499994E-04    -2.10317069E-07
  -1.86000005E-04    -2.80924183E-07
  -1.85500001E-04    -3.19812045E-07
  -1.84999997E-04    -2.85474556E-07
  -1.84499993E-04    -1.26819643E-07
  -1.84000004E-04     2.07527833E-07
  -1.83500000E-04     7.53280688E-07
  -1.82999996E-04     1.50843812E-06
  -1.82500007E-04     2.40784402E-06
  -1.82000003E-04     3.29965974E-06
  -1.81500000E-04     3.93150276E-06
  -1.80999996E-04     3.95575262E-06
  -1.80500007E-04     2.96350731E-06
  -1.80000003E-04     5.54181099E-07
  -1.79499999E-04    -3.55771954E-06
  -1.78999995E-04    -9.40573136E-06
  -1.78500006E-04    -1.66225618E-05
  -1.78000002E-04    -2.43086070E-05
  -1.77499998E-04    -3.09579300E-05
  -1.76999994E-04    -3.44856999E-05
  -1.76500005E-04    -3.24007669E-05
  -1.76000001E-04    -2.21507653E-05
  -1.75499998E-04    -1.64481196E-06
  -1.74999994E-04     3.00792726E-05
  -1.74500005E-04     7.21194883E-05
  -1.74000001E-04     1.21028919E-04
  -1.73499997E-04     1.70352199E-04
  -1.72999993E-04     2.10560800E-04
  -1.72500004E-04     2.29565034E-04
  -1.72000000E-04     2.13935928E-04
  -1.71499996E-04     1.50884807E-04
  -1.71000007E-04     3.09256138E-05
  -1.70500003E-04    -1.49013213E-04
  -1.69999999E-04    -3.82419850E-04
  -1.69499996E-04    -6.50528760E-04
  -1.69000006E-04    -9.20799095E-04
  -1.68500002E-04    -1.14722725E-03
  -1.67999999E-04    -1.27309305E-03
  -1.67499995E-04    -1.23653840E-03
  -1.67000006E-04    -9.79005825E-04
  -1.66500002E-04    -4.56160866E-04
  -1.65999998E-04     3.49690032E-04
  -1.65499994E-04     1.41716388E-03
  -1.65000005E-04     2.67530372E-03
  -1.64500001E-04     3.99736129E-03
  -1.63999997E-04     5.20114461E-03
  -1.63499994E-04     6.05801865E-03
  -1.63000004E-04     6.31194608E-03
  -1.62500000E-04     5.70880994E-03
  -1.61999997E-04     4.03487030E-03
  -1.61499993E-04     1.16160337E-03
  -1.61000004E-04    -2.90776882E-03
  -1.60500000E-04    -7.99608696E-03
  -1.59999996E-04    -1.37218917E-02
  -1.59500007E-04    -1.94883887E-02
  -1.59000003E-04    -2.44992096E-02
  -1.58499999E-04    -2.78065223E-02
  -1.57999995E-04    -2.83942986E-02
  -1.57500006E-04    -2.52956301E-02
  -1.57000002E-04    -1.77380629E-02
  -1.56499998E-04    -5.30565856E-03
  -1.55999995E-04     1.18990168E-02
  -1.55500005E-04     3.31136584E-02
  -1.55000002E-04     5.68207316E-02
  -1.54499998E-04     8.07210132E-02
  -1.53999994E-04    0.101800554    
  -1.53500005E-04    0.116506025    
  -1.53000001E-04    0.121037193    
  -1.52499997E-04    0.111751191    
  -1.51999993E-04     8.56581032E-02
  -1.51500004E-04     4.09730636E-02
  -1.51000000E-04    -2.23296788E-02
  -1.50499996E-04   -0.102025047    
  -1.50000007E-04   -0.193281859    
  -1.49500003E-04   -0.288526475    
  -1.49000000E-04   -0.377590299    
  -1.48499996E-04   -0.448201209    
  -1.48000006E-04   -0.486848056    
  -1.47500003E-04   -0.480012000    
  -1.46999999E-04   -0.415710896    
  -1.46499995E-04   -0.285269111    
  -1.46000006E-04    -8.51586163E-02
  -1.45500002E-04    0.181273609    
  -1.44999998E-04    0.502407432    
  -1.44499994E-04    0.857512891    
  -1.44000005E-04     1.21671343    
  -1.43500001E-04     1.54191744    
  -1.42999997E-04     1.78886235    
  -1.42499994E-04     1.91030777    
  -1.42000004E-04     1.86029303    
  -1.41500001E-04     1.59927332    
  -1.40999997E-04     1.09977686    
  -1.40499993E-04    0.352148116    
  -1.40000004E-04   -0.630235612    
  -1.39500000E-04    -1.80685842    
  -1.38999996E-04    -3.10777307    
  -1.38500007E-04    -4.43370438    
  -1.38000003E-04    -5.65906239    
  -1.37499999E-04    -6.63817358    
  -1.36999995E-04    -7.21479082    
  -1.36500006E-04    -7.23466730    
  -1.36000002E-04    -6.56062746    
  -1.35499999E-04    -5.08917046    
  -1.34999995E-04    -2.76748943    
  -1.34500006E-04    0.390678972    
  -1.34000002E-04     4.29197121    
  -1.33499998E-04     8.75480938    
  -1.32999994E-04     13.5068731    
  -1.32500005E-04     18.1900654    
  -1.32000001E-04     22.3738575    
  -1.31499997E-04     25.5773849    
  -1.30999993E-04     27.3001652    
  -1.30500004E-04     27.0602150    
  -1.30000000E-04     24.4378986    
  -1.29499997E-04     19.1228695    
  -1.28999993E-04     10.9609251    
  -1.28500003E-04    -3.01859132E-03
  -1.28000000E-04    -13.4897051    
  -1.27499996E-04    -28.9622345    
  -1.27000007E-04    -45.6182785    
  -1.26500003E-04    -62.4010468    
  -1.25999999E-04    -78.0313034    
  -1.25499995E-04    -91.0611343    
  -1.25000006E-04    -99.9496841    
  -1.24500002E-04    -103.158470    
  -1.23999998E-04    -99.2627945    
  -1.23499995E-04    -87.0746002    
  -1.23000005E-04    -65.7691727    
  -1.22500001E-04    -35.0088081    
  -1.21999998E-04     4.94549799    
  -1.21500001E-04     53.1445122    
  -1.20999997E-04     107.890739    
  -1.20500001E-04     166.718307    
  -1.19999997E-04     226.418198    
  -1.19500000E-04     283.116608    
  -1.18999997E-04     332.407623    
  -1.18500000E-04     369.541229    
  -1.18000004E-04     389.664917    
  -1.17500000E-04     388.110352    
  -1.17000003E-04     360.717804    
  -1.16499999E-04     304.181824    
  -1.16000003E-04     216.404343    
  -1.15499999E-04     96.8322220    
  -1.15000003E-04    -53.2401314    
  -1.14499999E-04    -230.425156    
  -1.14000002E-04    -429.083099    
  -1.13499998E-04    -641.261536    
  -1.13000002E-04    -856.764343    
  -1.12499998E-04    -1063.35510    
  -1.12000002E-04    -1247.11353    
  -1.11499998E-04    -1392.94324    
  -1.11000001E-04    -1485.22717    
  -1.10499997E-04    -1508.62061    
  -1.10000001E-04    -1448.95166    
  -1.09499997E-04    -1294.20618    
  -1.09000001E-04    -1035.54602    
  -1.08499997E-04    -668.322144    
  -1.08000000E-04    -193.014175    
  -1.07499996E-04     383.953064    
  -1.07000000E-04     1049.58032    
  -1.06500003E-04     1783.92175    
  -1.06000000E-04     2560.00537    
  -1.05500003E-04     3344.11963    
  -1.04999999E-04     4096.47900    
  -1.04500003E-04     4772.30029    
  -1.03999999E-04     5323.28613    
  -1.03500002E-04     5699.50879    
  -1.02999998E-04     5851.65869    
  -1.02500002E-04     5733.54688    
  -1.01999998E-04     5304.86475    
  -1.01500002E-04     4534.02197    
  -1.00999998E-04     3400.96338    
  -1.00500001E-04     1899.85913    
  -9.99999975E-05     41.4737511    
  -9.95000009E-05    -2144.88403    
  -9.89999971E-05    -4610.01465    
  -9.85000006E-05    -7284.21094    
  -9.79999968E-05    -10077.4404    
  -9.75000003E-05    -12880.5117    
  -9.69999965E-05    -15567.1953    
  -9.64999999E-05    -17997.3730    
  -9.60000034E-05    -20021.2422    
  -9.54999996E-05    -21484.3691    
  -9.50000031E-05    -22233.7324    
  -9.44999992E-05    -22124.3105    
  -9.40000027E-05    -21026.3184    
  -9.34999989E-05    -18832.6035    
  -9.30000024E-05    -15466.1553    
  -9.24999986E-05    -10887.2451    
  -9.20000020E-05    -5100.01611    
  -9.14999982E-05     1841.81079    
  -9.10000017E-05     9830.54297    
  -9.04999979E-05     18701.5254    
  -9.00000014E-05     28232.0703    
  -8.94999976E-05     38142.2891    
  -8.90000010E-05     48098.3008    
  -8.84999972E-05     57717.5664    
  -8.80000007E-05     66576.8281    
  -8.74999969E-05     74222.1328    
  -8.70000003E-05     80181.6406    
  -8.64999965E-05     83979.8281    
  -8.60000000E-05     85154.1484    
  -8.55000035E-05     83272.8047    
  -8.49999997E-05     77953.6094    
  -8.45000031E-05     68883.5312    
  -8.39999993E-05     55837.9844    
  -8.35000028E-05     38699.7969    
  -8.29999990E-05     17476.2871    
  -8.25000025E-05    -7684.97021    
  -8.19999987E-05    -36483.5352    
  -8.15000021E-05    -68456.8047    
  -8.09999983E-05    -102974.750    
  -8.05000018E-05    -139239.453    
  -7.99999980E-05    -176289.641    
  -7.95000014E-05    -213011.078    
  -7.89999976E-05    -248152.922    
  -7.85000011E-05    -280349.844    
  -7.79999973E-05    -308150.969    
  -7.75000008E-05    -330054.406    
  -7.69999970E-05    -344547.156    
  -7.65000004E-05    -350150.875    
  -7.59999966E-05    -345470.406    
  -7.55000001E-05    -329246.781    
  -7.50000036E-05    -300412.062    
  -7.44999998E-05    -258144.188    
  -7.40000032E-05    -201921.172    
  -7.34999994E-05    -131572.156    
  -7.30000029E-05    -47324.9258    
  -7.24999991E-05     50154.0391    
  -7.20000025E-05     159726.422    
  -7.14999987E-05     279761.312    
  -7.10000022E-05     408123.344    
  -7.04999984E-05     542174.500    
  -7.00000019E-05     678793.062    
  -6.94999981E-05     814403.812    
  -6.90000015E-05     945027.688    
  -6.84999977E-05     1066345.75    
  -6.80000012E-05     1173778.25    
  -6.74999974E-05     1262583.00    
  -6.70000009E-05     1327962.50    
  -6.64999970E-05     1365188.75    
  -6.60000005E-05     1369736.12    
  -6.54999967E-05     1337420.25    
  -6.50000002E-05     1264547.50    
  -6.44999964E-05     1148063.50    
  -6.39999998E-05     985699.562    
  -6.35000033E-05     776114.312    
  -6.29999995E-05     519031.625    
  -6.25000030E-05     215359.047    
  -6.19999992E-05    -132709.500    
  -6.15000026E-05    -521600.750    
  -6.09999988E-05    -946302.750    
  -6.04999987E-05    -1400328.50    
  -5.99999985E-05    -1875705.88    
  -5.94999983E-05    -2362996.00    
  -5.90000018E-05    -2851351.75    
  -5.85000016E-05    -3328591.25    
  -5.80000014E-05    -3781323.25    
  -5.75000013E-05    -4195091.50    
  -5.70000011E-05    -4554552.50    
  -5.65000009E-05    -4843681.00    
  -5.60000008E-05    -5045996.50    
  -5.55000006E-05    -5144812.00    
  -5.50000004E-05    -5123514.00    
  -5.45000003E-05    -4965824.50    
  -5.40000001E-05    -4656116.00    
  -5.34999999E-05    -4179663.00    
  -5.29999998E-05    -3522954.25    
  -5.24999996E-05    -2673973.50    
  -5.19999994E-05    -1622421.12    
  -5.14999992E-05    -359989.406    
  -5.09999991E-05     1119433.62    
  -5.04999989E-05     2819619.00    
  -4.99999987E-05     4741811.50    
  -4.94999986E-05     6884645.50    
  -4.89999984E-05     9244167.00    
  -4.84999982E-05     11813701.0    
  -4.80000017E-05     14583952.0    
  -4.75000015E-05     17543186.0    
  -4.70000014E-05     20677234.0    
  -4.65000012E-05     23969824.0    
  -4.60000010E-05     27402756.0    
  -4.55000009E-05     30956142.0    
  -4.50000007E-05     34608980.0    
  -4.45000005E-05     38339220.0    
  -4.40000003E-05     42124296.0    
  -4.35000002E-05     45941732.0    
  -4.30000000E-05     49769340.0    
  -4.24999998E-05     53585784.0    
  -4.19999997E-05     57371184.0    
  -4.14999995E-05     61107236.0    
  -4.09999993E-05     64778172.0    
  -4.04999992E-05     68370616.0    
  -3.99999990E-05     71874592.0    
  -3.94999988E-05     75283464.0    
  -3.89999987E-05     78594472.0    
  -3.84999985E-05     81809016.0    
  -3.79999983E-05     84932776.0    
  -3.75000018E-05     87976072.0    
  -3.70000016E-05     90953912.0    
  -3.65000014E-05     93886136.0    
  -3.60000013E-05     96797016.0    
  -3.55000011E-05     99715984.0    
  -3.50000009E-05     102676800.    
  -3.45000008E-05     105717328.    
  -3.40000006E-05     108879672.    
  -3.35000004E-05     112210112.    
  -3.30000003E-05     115757472.    
  -3.25000001E-05     119574160.    
  -3.19999999E-05     123714912.    
  -3.14999997E-05     128235792.    
  -3.09999996E-05     133195536.    
  -3.04999994E-05     138652528.    
  -2.99999992E-05     144666192.    
  -2.95000009E-05     151295184.    
  -2.90000007E-05     158597360.    
  -2.85000006E-05     166629088.    
  -2.80000004E-05     175445232.    
  -2.75000002E-05     185097648.    
  -2.70000000E-05     195635792.    
  -2.64999999E-05     207105792.    
  -2.59999997E-05     219549696.    
  -2.54999995E-05     233006912.    
  -2.49999994E-05     247512400.    
  -2.44999992E-05     263097136.    
  -2.40000008E-05     279788256.    
  -2.35000007E-05     297608896.    
  -2.30000005E-05     316579872.    
  -2.25000003E-05     336717056.    
  -2.20000002E-05     358035328.    
  -2.15000000E-05     380546368.    
  -2.09999998E-05     404260608.    
  -2.04999997E-05     429187648.    
  -1.99999995E-05     455336064.    
  -1.94999993E-05     482717472.    
  -1.89999992E-05     511339296.    
  -1.85000008E-05     541219136.    
  -1.80000006E-05     572372288.    
  -1.75000005E-05     604820160.    
  -1.70000003E-05     638586624.    
  -1.65000001E-05     673702016.    
  -1.60000000E-05     710207488.    
  -1.54999998E-05     748145792.    
  -1.49999996E-05     787569152.    
  -1.45000004E-05     828537792.    
  -1.40000002E-05     871119808.    
  -1.35000000E-05     915392896.    
  -1.29999999E-05     961442688.    
  -1.24999997E-05     1.00936294E+09
  -1.20000004E-05     1.05925875E+09
  -1.15000003E-05     1.11123674E+09
  -1.10000001E-05     1.16542144E+09
  -1.04999999E-05     1.22193754E+09
  -9.99999975E-06     1.28091750E+09
  -9.49999958E-06     1.34250406E+09
  -9.00000032E-06     1.40684147E+09
  -8.50000015E-06     1.47407923E+09
  -7.99999998E-06     1.54437517E+09
  -7.49999981E-06     1.61788237E+09
  -7.00000010E-06     1.69476211E+09
  -6.49999993E-06     1.77517312E+09
  -6.00000021E-06     1.85927974E+09
  -5.50000004E-06     1.94723136E+09
  -4.99999987E-06     2.03919232E+09
  -4.50000016E-06     2.13531520E+09
  -3.99999999E-06     2.23576781E+09
  -3.50000005E-06     2.34069478E+09
  -3.00000011E-06     2.45024896E+09
  -2.49999994E-06     2.56458573E+09
  -1.99999999E-06     2.68385229E+09
  -1.50000005E-06     2.80818714E+09
  -9.99999997E-07     2.93773440E+09
  -4.99999999E-07     3.07264410E+09
   0.00000000         3.21304602E+09
   4.99999999E-07     3.35909427E+09
   9.99999997E-07     3.51092198E+09
   1.50000005E-06     3.66867610E+09
   1.99999999E-06     3.83250022E+09
   2.49999994E-06     4.00255770E+09
   3.00000011E-06     4.17899238E+09
   3.50000005E-06     4.36195840E+09
   3.99999999E-06     4.55163443E+09
   4.50000016E-06     4.74817997E+09
   4.99999987E-06     4.95177882E+09
   5.50000004E-06     5.16261530E+09
   6.00000021E-06     5.38088192E+09
   6.49999993E-06     5.60679270E+09
   7.00000010E-06     5.84054989E+09
   7.49999981E-06     6.08235418E+09
   7.99999998E-06     6.33245645E+09
   8.50000015E-06     6.59108506E+09
   9.00000032E-06     6.85844480E+09
   9.49999958E-06     7.13480602E+09
   9.99999975E-06     7.42045286E+09
   1.04999999E-05     7.71560550E+09
   1.10000001E-05     8.02050662E+09
   1.15000003E-05     8.33543680E+09
   1.20000004E-05     8.66067866E+09
   1.24999997E-05     8.99648205E+09
   1.29999999E-05     9.34312550E+09
   1.35000000E-05     9.70084762E+09
   1.40000002E-05     1.00698808E+10
   1.45000004E-05     1.04505201E+10
   1.49999996E-05     1.08429875E+10
   1.54999998E-05     1.12475341E+10
   1.60000000E-05     1.16644035E+10
   1.65000001E-05     1.20937851E+10
   1.70000003E-05     1.25359186E+10
   1.75000005E-05     1.29910016E+10
   1.80000006E-05     1.34592645E+10
   1.85000008E-05     1.39409132E+10
   1.89999992E-05     1.44360366E+10
   1.94999993E-05     1.49449021E+10
   1.99999995E-05     1.54677023E+10
   2.04999997E-05     1.60044800E+10
   2.09999998E-05     1.65554258E+10
   2.15000000E-05     1.71206687E+10
   2.20000002E-05     1.77004052E+10
   2.25000003E-05     1.82946365E+10
   2.30000005E-05     1.89035848E+10
   2.35000007E-05     1.95273974E+10
   2.40000008E-05     2.01659228E+10
   2.44999992E-05     2.08193884E+10
   2.49999994E-05     2.14880358E+10
   2.54999995E-05     2.21717975E+10
   2.59999997E-05     2.28706734E+10
   2.64999999E-05     2.35848131E+10
   2.70000000E-05     2.43141796E+10
   2.75000002E-05     2.50587771E+10
   2.80000004E-05     2.58186076E+10
   2.85000006E-05     2.65937674E+10
   2.90000007E-05     2.73842504E+10
   2.95000009E-05     2.81898598E+10
   2.99999992E-05     2.90106102E+10
   3.04999994E-05     2.98465464E+10
   3.09999996E-05     3.06974740E+10
   3.14999997E-05     3.15634504E+10
   3.19999999E-05     3.24440945E+10
   3.25000001E-05     3.33391462E+10
   3.30000003E-05     3.42486426E+10
   3.35000004E-05     3.51725281E+10
   3.40000006E-05     3.61100288E+10
   3.45000008E-05     3.70612634E+10
   3.50000009E-05     3.80258427E+10
   3.55000011E-05     3.90033777E+10
   3.60000013E-05     3.99933850E+10
   3.65000014E-05     4.09956598E+10
   3.70000016E-05     4.20095549E+10
   3.75000018E-05     4.30345912E+10
   3.79999983E-05     4.40701501E+10
   3.84999985E-05     4.51157156E+10
   3.89999987E-05     4.61708698E+10
   3.94999988E-05     4.72343798E+10
   3.99999990E-05     4.83060204E+10
   4.04999992E-05     4.93850010E+10
   4.09999993E-05     5.04701911E+10
   4.14999995E-05     5.15608781E+10
   4.19999997E-05     5.26565376E+10
   4.24999998E-05     5.37559900E+10
   4.30000000E-05     5.48583096E+10
   4.35000002E-05     5.59625830E+10
   4.40000003E-05     5.70674135E+10
   4.45000005E-05     5.81718221E+10
   4.50000007E-05     5.92747028E+10
   4.55000009E-05     6.03751588E+10
   4.60000010E-05     6.14718915E+10
   4.65000012E-05     6.25636311E+10
   4.70000014E-05     6.36492349E+10
   4.75000015E-05     6.47269663E+10
   4.80000017E-05     6.57956454E+10
   4.84999982E-05     6.68538552E+10
   4.89999984E-05     6.79001252E+10
   4.94999986E-05     6.89328210E+10
   4.99999987E-05     6.99507589E+10
   5.04999989E-05     7.09514035E+10
   5.09999991E-05     7.19345091E+10
   5.14999992E-05     7.28975442E+10
   5.19999994E-05     7.38393293E+10
   5.24999996E-05     7.47574559E+10
   5.29999998E-05     7.56504412E+10
   5.34999999E-05     7.65169910E+10
   5.40000001E-05     7.73543444E+10
   5.45000003E-05     7.81612319E+10
   5.50000004E-05     7.89348352E+10
   5.55000006E-05     7.96722463E+10
   5.60000008E-05     8.03730719E+10
   5.65000009E-05     8.10351985E+10
   5.70000011E-05     8.16561029E+10
   5.75000013E-05     8.22331474E+10
   5.80000014E-05     8.27653407E+10
   5.85000016E-05     8.32502006E+10
   5.90000018E-05     8.36851876E+10
   5.94999983E-05     8.40669512E+10
   5.99999985E-05     8.43945656E+10
   6.04999987E-05     8.46655488E+10
   6.09999988E-05     8.48766812E+10
   6.15000026E-05     8.50256773E+10
   6.19999992E-05     8.51112100E+10
   6.25000030E-05     8.51292815E+10
   6.29999995E-05     8.50797855E+10
   6.35000033E-05     8.49573806E+10
   6.39999998E-05     8.47617884E+10
   6.44999964E-05     8.44911165E+10
   6.50000002E-05     8.41413181E+10
   6.54999967E-05     8.37100012E+10
   6.60000005E-05     8.31962071E+10
   6.64999970E-05     8.25961431E+10
   6.70000009E-05     8.19077038E+10
   6.74999974E-05     8.11292344E+10
   6.80000012E-05     8.02568602E+10
   6.84999977E-05     7.92900813E+10
   6.90000015E-05     7.82264074E+10
   6.94999981E-05     7.70643149E+10
   7.00000019E-05     7.58010348E+10
   7.04999984E-05     7.44336425E+10
   7.10000022E-05     7.29608274E+10
   7.14999987E-05     7.13813443E+10
   7.20000025E-05     6.96929567E+10
   7.24999991E-05     6.78955254E+10
   7.30000029E-05     6.59836232E+10
   7.34999994E-05     6.39569715E+10
   7.40000032E-05     6.18137477E+10
   7.44999998E-05     5.95545661E+10
   7.50000036E-05     5.71764654E+10
   7.55000001E-05     5.46802524E+10
   7.59999966E-05     5.20599429E+10
   7.65000004E-05     4.93187195E+10
   7.69999970E-05     4.64532767E+10
   7.75000008E-05     4.34651832E+10
   7.79999973E-05     4.03516006E+10
   7.85000011E-05     3.71126067E+10
   7.89999976E-05     3.37514496E+10
   7.95000014E-05     3.02613832E+10
   7.99999980E-05     2.66468905E+10
   8.05000018E-05     2.29059768E+10
   8.09999983E-05     1.90380339E+10
   8.15000021E-05     1.50446234E+10
   8.19999987E-05     1.09225370E+10
   8.25000025E-05     6.67510630E+09
   8.29999990E-05     2.30422221E+09
   8.35000028E-05    -2.19240346E+09
   8.39999993E-05    -6.81160294E+09
   8.45000031E-05    -1.15539937E+10
   8.49999997E-05    -1.64132362E+10
   8.55000035E-05    -2.13930066E+10
   8.60000000E-05    -2.64916009E+10
   8.64999965E-05    -3.17031465E+10
   8.70000003E-05    -3.70297446E+10
   8.74999969E-05    -4.24659681E+10
   8.80000007E-05    -4.80125706E+10
   8.84999972E-05    -5.36621056E+10
   8.90000010E-05    -5.94177024E+10
   8.94999976E-05    -6.52733768E+10
   9.00000014E-05    -7.12244675E+10
   9.04999979E-05    -7.72683039E+10
   9.10000017E-05    -8.34031698E+10
   9.14999982E-05    -8.96241500E+10
   9.20000020E-05    -9.59245025E+10
   9.24999986E-05    -1.02307488E+11
   9.30000024E-05    -1.08761522E+11
   9.34999989E-05    -1.15281633E+11
   9.40000027E-05    -1.21867354E+11
   9.44999992E-05    -1.28511222E+11
   9.50000031E-05    -1.35209001E+11
   9.54999996E-05    -1.41953647E+11
   9.60000034E-05    -1.48741636E+11
   9.64999999E-05    -1.55568292E+11
   9.69999965E-05    -1.62423128E+11
   9.75000003E-05    -1.69303179E+11
   9.79999968E-05    -1.76198091E+11
   9.85000006E-05    -1.83107027E+11
   9.89999971E-05    -1.90023107E+11
   9.95000009E-05    -1.96936942E+11
   9.99999975E-05    -2.03843420E+11
   1.00500001E-04    -2.10733842E+11
   1.00999998E-04    -2.17603604E+11
   1.01500002E-04    -2.24439894E+11
   1.01999998E-04    -2.31239549E+11
   1.02500002E-04    -2.37997556E+11
   1.02999998E-04    -2.44699972E+11
   1.03500002E-04    -2.51342995E+11
   1.03999999E-04    -2.57918992E+11
   1.04500003E-04    -2.64416657E+11
   1.04999999E-04    -2.70832697E+11
   1.05500003E-04    -2.77158789E+11
   1.06000000E-04    -2.83387199E+11
   1.06500003E-04    -2.89508655E+11
   1.07000000E-04    -2.95518077E+11
   1.07499996E-04    -3.01400687E+11
   1.08000000E-04    -3.07151733E+11
   1.08499997E-04    -3.12760467E+11
   1.09000001E-04    -3.18215619E+11
   1.09499997E-04    -3.23515482E+11
   1.10000001E-04    -3.28651571E+11
   1.10499997E-04    -3.33615432E+11
   1.11000001E-04    -3.38393104E+11
   1.11499998E-04    -3.42984327E+11
   1.12000002E-04    -3.47379499E+11
   1.12499998E-04    -3.51576752E+11
   1.13000002E-04    -3.55559145E+11
   1.13499998E-04    -3.59325336E+11
   1.14000002E-04    -3.62866475E+11
   1.14499999E-04    -3.66174208E+11
   1.15000003E-04    -3.69239392E+11
   1.15499999E-04    -3.72056195E+11
   1.16000003E-04    -3.74620586E+11
   1.16499999E-04    -3.76919523E+11
   1.17000003E-04    -3.78948190E+11
   1.17500000E-04    -3.80698362E+11
   1.18000004E-04    -3.82171316E+11
   1.18500000E-04    -3.83352308E+11
   1.18999997E-04    -3.84242319E+11
   1.19500000E-04    -3.84835355E+11
   1.19999997E-04    -3.85127875E+11
   1.20500001E-04    -3.85115390E+11
   1.20999997E-04    -3.84790069E+11
   1.21500001E-04    -3.84150929E+11
   1.21999998E-04    -3.83197381E+11
   1.22500001E-04    -3.81921133E+11
   1.23000005E-04    -3.80319498E+11
   1.23499995E-04    -3.78390413E+11
   1.23999998E-04    -3.76127521E+11
   1.24500002E-04    -3.73528429E+11
   1.25000006E-04    -3.70596872E+11
   1.25499995E-04    -3.67326757E+11
   1.25999999E-04    -3.63718443E+11
   1.26500003E-04    -3.59771111E+11
   1.27000007E-04    -3.55487318E+11
   1.27499996E-04    -3.50865490E+11
   1.28000000E-04    -3.45907134E+11
   1.28500003E-04    -3.40613530E+11
   1.28999993E-04    -3.34988968E+11
   1.29499997E-04    -3.29029779E+11
   1.30000000E-04    -3.22742878E+11
   1.30500004E-04    -3.16124856E+11
   1.30999993E-04    -3.09182005E+11
   1.31499997E-04    -3.01916684E+11
   1.32000001E-04    -2.94332334E+11
   1.32500005E-04    -2.86433608E+11
   1.32999994E-04    -2.78224404E+11
   1.33499998E-04    -2.69710197E+11
   1.34000002E-04    -2.60896817E+11
   1.34500006E-04    -2.51788313E+11
   1.34999995E-04    -2.42392383E+11
   1.35499999E-04    -2.32715256E+11
   1.36000002E-04    -2.22764712E+11
   1.36500006E-04    -2.12544733E+11
   1.36999995E-04    -2.02069361E+11
   1.37499999E-04    -1.91343297E+11
   1.38000003E-04    -1.80376781E+11
   1.38500007E-04    -1.69178399E+11
   1.38999996E-04    -1.57756801E+11
   1.39500000E-04    -1.46123833E+11
   1.40000004E-04    -1.34284902E+11
   1.40499993E-04    -1.22253836E+11
   1.40999997E-04    -1.10038974E+11
   1.41500001E-04    -9.76487055E+10
   1.42000004E-04    -8.50950963E+10
   1.42499994E-04    -7.23891651E+10
   1.42999997E-04    -5.95409879E+10
   1.43500001E-04    -4.65658798E+10
   1.44000005E-04    -3.34709535E+10
   1.44499994E-04    -2.02724434E+10
   1.44999998E-04    -6.97977395E+09
   1.45500002E-04     6.39236454E+09
   1.46000006E-04     1.98299279E+10
   1.46499995E-04     3.33211894E+10
   1.46999999E-04     4.68526285E+10
   1.47500003E-04     6.04117893E+10
   1.48000006E-04     7.39805348E+10
   1.48499996E-04     8.75508040E+10
   1.49000000E-04     1.01108449E+11
   1.49500003E-04     1.14638447E+11
   1.50000007E-04     1.28129278E+11
   1.50499996E-04     1.41566935E+11
   1.51000000E-04     1.54940555E+11
   1.51500004E-04     1.68241168E+11
   1.51999993E-04     1.81448557E+11
   1.52499997E-04     1.94554315E+11
   1.53000001E-04     2.07544762E+11
   1.53500005E-04     2.20402893E+11
   1.53999994E-04     2.33113829E+11
   1.54499998E-04     2.45666808E+11
   1.55000002E-04     2.58046886E+11
   1.55500005E-04     2.70245102E+11
   1.55999995E-04     2.82243301E+11
   1.56499998E-04     2.94035423E+11
   1.57000002E-04     3.05607246E+11
   1.57500006E-04     3.16947268E+11
   1.57999995E-04     3.28047985E+11
   1.58499999E-04     3.38897109E+11
   1.59000003E-04     3.49486481E+11
   1.59500007E-04     3.59798407E+11
   1.59999996E-04     3.69833542E+11
   1.60500000E-04     3.79572945E+11
   1.61000004E-04     3.89012357E+11
   1.61499993E-04     3.98138376E+11
   1.61999997E-04     4.06942384E+11
   1.62500000E-04     4.15416975E+11
   1.63000004E-04     4.23556645E+11
   1.63499994E-04     4.31343272E+11
   1.63999997E-04     4.38781936E+11
   1.64500001E-04     4.45853598E+11
   1.65000005E-04     4.52563501E+11
   1.65499994E-04     4.58898178E+11
   1.65999998E-04     4.64853402E+11
   1.66500002E-04     4.70421406E+11
   1.67000006E-04     4.75603141E+11
   1.67499995E-04     4.80395362E+11
   1.67999999E-04     4.84789748E+11
   1.68500002E-04     4.88787804E+11
   1.69000006E-04     4.92390449E+11
   1.69499996E-04     4.95585100E+11
   1.69999999E-04     4.98377392E+11
   1.70500003E-04     5.00761002E+11
   1.71000007E-04     5.02740550E+11
   1.71499996E-04     5.04310235E+11
   1.72000000E-04     5.05469862E+11
   1.72500004E-04     5.06220315E+11
   1.72999993E-04     5.06570277E+11
   1.73499997E-04     5.06508870E+11
   1.74000001E-04     5.06046218E+11
   1.74500005E-04     5.05181897E+11
   1.74999994E-04     5.03914758E+11
   1.75499998E-04     5.02252896E+11
   1.76000001E-04     5.00194607E+11
   1.76500005E-04     4.97748902E+11
   1.76999994E-04     4.94918566E+11
   1.77499998E-04     4.91713397E+11
   1.78000002E-04     4.88137392E+11
   1.78500006E-04     4.84194681E+11
   1.78999995E-04     4.79897911E+11
   1.79499999E-04     4.75250917E+11
   1.80000003E-04     4.70256222E+11
   1.80500007E-04     4.64923918E+11
   1.80999996E-04     4.59256463E+11
   1.81500000E-04     4.53261853E+11
   1.82000003E-04     4.46941200E+11
   1.82500007E-04     4.40315281E+11
   1.82999996E-04     4.33386127E+11
   1.83500000E-04     4.26165371E+11
   1.84000004E-04     4.18662613E+11
   1.84499993E-04     4.10892861E+11
   1.84999997E-04     4.02867913E+11
   1.85500001E-04     3.94595238E+11
   1.86000005E-04     3.86078999E+11
   1.86499994E-04     3.77343607E+11
   1.86999998E-04     3.68385327E+11
   1.87500002E-04     3.59219921E+11
   1.88000005E-04     3.49856727E+11
   1.88499995E-04     3.40297744E+11
   1.88999998E-04     3.30560930E+11
   1.89500002E-04     3.20656998E+11
   1.90000006E-04     3.10593094E+11
   1.90499995E-04     3.00386615E+11
   1.90999999E-04     2.90045493E+11
   1.91500003E-04     2.79594369E+11
   1.92000007E-04     2.69035799E+11
   1.92499996E-04     2.58385560E+11
   1.93000000E-04     2.47649698E+11
   1.93500004E-04     2.36845236E+11
   1.93999993E-04     2.25975239E+11
   1.94499997E-04     2.15059710E+11
   1.95000001E-04     2.04100977E+11
   1.95500004E-04     1.93114079E+11
   1.95999994E-04     1.82109667E+11
   1.96499997E-04     1.71096031E+11
   1.97000001E-04     1.60079593E+11
   1.97500005E-04     1.49081096E+11
   1.97999994E-04     1.38106208E+11
   1.98499998E-04     1.27164129E+11
   1.99000002E-04     1.16272513E+11
   1.99500006E-04     1.05435292E+11
   1.99999995E-04     9.46630410E+10
   2.00499999E-04     8.39704494E+10
   2.01000003E-04     7.33614408E+10
   2.01500006E-04     6.28474593E+10
   2.01999996E-04     5.24372623E+10
   2.02499999E-04     4.21391237E+10
   2.03000003E-04     3.19590707E+10
   2.03500007E-04     2.19030897E+10
   2.03999996E-04     1.19788411E+10
   2.04500000E-04     2.19613747E+09