  -6.6666666666666666E-002     0.0000000000000000     
  -6.6266666666666668E-002     0.0000000000000000     
  -6.5866666666666671E-002     0.0000000000000000     
  -6.5466666666666659E-002     0.0000000000000000     
  -6.5066666666666662E-002     0.0000000000000000     
  -6.4666666666666664E-002     0.0000000000000000     
  -6.4266666666666666E-002     0.0000000000000000     
  -6.3866666666666669E-002     0.0000000000000000     
  -6.3466666666666671E-002     0.0000000000000000     
  -6.3066666666666660E-002     0.0000000000000000     
  -6.2666666666666662E-002     0.0000000000000000     
  -6.2266666666666665E-002     0.0000000000000000     
  -6.1866666666666667E-002     0.0000000000000000     
  -6.1466666666666663E-002     0.0000000000000000     
  -6.1066666666666665E-002     0.0000000000000000     
  -6.0666666666666667E-002     0.0000000000000000     
  -6.0266666666666663E-002     0.0000000000000000     
  -5.9866666666666665E-002     0.0000000000000000     
  -5.9466666666666668E-002     0.0000000000000000     
  -5.9066666666666663E-002     0.0000000000000000     
  -5.8666666666666666E-002     0.0000000000000000     
  -5.8266666666666661E-002     0.0000000000000000     
  -5.7866666666666663E-002     0.0000000000000000     
  -5.7466666666666666E-002     0.0000000000000000     
  -5.7066666666666668E-002     0.0000000000000000     
  -5.6666666666666664E-002     0.0000000000000000     
  -5.6266666666666666E-002     0.0000000000000000     
  -5.5866666666666662E-002     0.0000000000000000     
  -5.5466666666666664E-002     0.0000000000000000     
  -5.5066666666666667E-002     0.0000000000000000     
  -5.4666666666666669E-002     0.0000000000000000     
  -5.4266666666666664E-002     0.0000000000000000     
  -5.3866666666666667E-002     0.0000000000000000     
  -5.3466666666666662E-002     0.0000000000000000     
  -5.3066666666666665E-002     0.0000000000000000     
  -5.2666666666666667E-002     0.0000000000000000     
  -5.2266666666666663E-002     0.0000000000000000     
  -5.1866666666666665E-002     0.0000000000000000     
  -5.1466666666666668E-002     0.0000000000000000     
  -5.1066666666666663E-002     0.0000000000000000     
  -5.0666666666666665E-002     0.0000000000000000     
  -5.0266666666666668E-002     0.0000000000000000     
  -4.9866666666666663E-002     0.0000000000000000     
  -4.9466666666666666E-002     0.0000000000000000     
  -4.9066666666666661E-002     0.0000000000000000     
  -4.8666666666666664E-002     0.0000000000000000     
  -4.8266666666666666E-002     0.0000000000000000     
  -4.7866666666666668E-002     0.0000000000000000     
  -4.7466666666666664E-002     0.0000000000000000     
  -4.7066666666666666E-002     0.0000000000000000     
  -4.6666666666666662E-002     0.0000000000000000     
  -4.6266666666666664E-002     0.0000000000000000     
  -4.5866666666666667E-002     0.0000000000000000     
  -4.5466666666666669E-002     0.0000000000000000     
  -4.5066666666666665E-002     0.0000000000000000     
  -4.4666666666666660E-002     0.0000000000000000     
  -4.4266666666666662E-002     0.0000000000000000     
  -4.3866666666666665E-002     0.0000000000000000     
  -4.3466666666666667E-002     0.0000000000000000     
  -4.3066666666666670E-002     0.0000000000000000     
  -4.2666666666666665E-002     0.0000000000000000     
  -4.2266666666666661E-002     0.0000000000000000     
  -4.1866666666666663E-002     0.0000000000000000     
  -4.1466666666666666E-002     0.0000000000000000     
  -4.1066666666666668E-002     0.0000000000000000     
  -4.0666666666666663E-002     0.0000000000000000     
  -4.0266666666666666E-002     0.0000000000000000     
  -3.9866666666666661E-002     0.0000000000000000     
  -3.9466666666666664E-002     0.0000000000000000     
  -3.9066666666666666E-002     0.0000000000000000     
  -3.8666666666666669E-002     0.0000000000000000     
  -3.8266666666666664E-002     0.0000000000000000     
  -3.7866666666666660E-002     0.0000000000000000     
  -3.7466666666666662E-002     0.0000000000000000     
  -3.7066666666666664E-002     0.0000000000000000     
  -3.6666666666666667E-002     0.0000000000000000     
  -3.6266666666666669E-002     0.0000000000000000     
  -3.5866666666666665E-002     0.0000000000000000     
  -3.5466666666666660E-002     0.0000000000000000     
  -3.5066666666666663E-002     0.0000000000000000     
  -3.4666666666666665E-002     0.0000000000000000     
  -3.4266666666666667E-002     0.0000000000000000     
  -3.3866666666666663E-002     0.0000000000000000     
  -3.3466666666666665E-002     0.0000000000000000     
  -3.3066666666666661E-002     0.0000000000000000     
  -3.2666666666666663E-002     0.0000000000000000     
  -3.2266666666666666E-002     0.0000000000000000     
  -3.1866666666666661E-002     0.0000000000000000     
  -3.1466666666666664E-002     0.0000000000000000     
  -3.1066666666666666E-002     0.0000000000000000     
  -3.0666666666666662E-002     0.0000000000000000     
  -3.0266666666666664E-002     0.0000000000000000     
  -2.9866666666666666E-002     0.0000000000000000     
  -2.9466666666666662E-002     0.0000000000000000     
  -2.9066666666666664E-002     0.0000000000000000     
  -2.8666666666666667E-002     0.0000000000000000     
  -2.8266666666666662E-002     0.0000000000000000     
  -2.7866666666666665E-002     0.0000000000000000     
  -2.7466666666666667E-002     0.0000000000000000     
  -2.7066666666666662E-002     0.0000000000000000     
  -2.6666666666666665E-002     0.0000000000000000     
  -2.6266666666666660E-002     0.0000000000000000     
  -2.5866666666666663E-002     0.0000000000000000     
  -2.5466666666666665E-002     0.0000000000000000     
  -2.5066666666666661E-002     0.0000000000000000     
  -2.4666666666666663E-002     0.0000000000000000     
  -2.4266666666666666E-002     0.0000000000000000     
  -2.3866666666666661E-002     0.0000000000000000     
  -2.3466666666666663E-002     0.0000000000000000     
  -2.3066666666666666E-002     0.0000000000000000     
  -2.2666666666666661E-002     0.0000000000000000     
  -2.2266666666666664E-002     0.0000000000000000     
  -2.1866666666666666E-002     0.0000000000000000     
  -2.1466666666666662E-002     0.0000000000000000     
  -2.1066666666666664E-002     0.0000000000000000     
  -2.0666666666666667E-002     0.0000000000000000     
  -2.0266666666666662E-002     0.0000000000000000     
  -1.9866666666666664E-002     0.0000000000000000     
  -1.9466666666666667E-002     0.0000000000000000     
  -1.9066666666666662E-002     0.0000000000000000     
  -1.8666666666666665E-002     0.0000000000000000     
  -1.8266666666666660E-002     0.0000000000000000     
  -1.7866666666666663E-002     0.0000000000000000     
  -1.7466666666666665E-002     0.0000000000000000     
  -1.7066666666666661E-002     0.0000000000000000     
  -1.6666666666666663E-002     0.0000000000000000     
  -1.6266666666666665E-002     0.0000000000000000     
  -1.5866666666666661E-002     0.0000000000000000     
  -1.5466666666666663E-002     0.0000000000000000     
  -1.5066666666666666E-002     0.0000000000000000     
  -1.4666666666666661E-002     0.0000000000000000     
  -1.4266666666666664E-002     0.0000000000000000     
  -1.3866666666666666E-002     0.0000000000000000     
  -1.3466666666666662E-002     0.0000000000000000     
  -1.3066666666666664E-002     0.0000000000000000     
  -1.2666666666666666E-002     0.0000000000000000     
  -1.2266666666666662E-002     0.0000000000000000     
  -1.1866666666666664E-002     0.0000000000000000     
  -1.1466666666666660E-002     0.0000000000000000     
  -1.1066666666666662E-002     0.0000000000000000     
  -1.0666666666666665E-002     0.0000000000000000     
  -1.0266666666666660E-002     0.0000000000000000     
  -9.8666666666666625E-003     0.0000000000000000     
  -9.4666666666666649E-003     0.0000000000000000     
  -9.0666666666666604E-003     0.0000000000000000     
  -8.6666666666666628E-003     0.0000000000000000     
  -8.2666666666666652E-003     0.0000000000000000     
  -7.8666666666666607E-003     0.0000000000000000     
  -7.4666666666666631E-003     0.0000000000000000     
  -7.0666666666666655E-003     0.0000000000000000     
  -6.6666666666666610E-003     0.0000000000000000     
  -6.2666666666666634E-003     0.0000000000000000     
  -5.8666666666666659E-003     0.0000000000000000     
  -5.4666666666666613E-003     0.0000000000000000     
  -5.0666666666666638E-003     0.0000000000000000     
  -4.6666666666666662E-003     0.0000000000000000     
  -4.2666666666666617E-003     0.0000000000000000     
  -3.8666666666666571E-003     0.0000000000000000     
  -3.4666666666666596E-003     0.0000000000000000     
  -3.0666666666666620E-003     0.0000000000000000     
  -2.6666666666666644E-003     0.0000000000000000     
  -2.2666666666666668E-003     0.0000000000000000     
  -1.8666666666666692E-003     0.0000000000000000     
  -1.4666666666666578E-003     0.0000000000000000     
  -1.0666666666666602E-003     0.0000000000000000     
  -6.6666666666666263E-004     0.0000000000000000     
  -2.6666666666666505E-004     0.0000000000000000     
   1.3333333333333253E-004     0.0000000000000000     
   5.3333333333334398E-004     0.0000000000000000     
   9.3333333333334156E-004     0.0000000000000000     
   1.3333333333333391E-003     0.0000000000000000     
   1.7333333333333367E-003     0.0000000000000000     
   2.1333333333333343E-003     0.0000000000000000     
   2.5333333333333319E-003     0.0000000000000000     
   2.9333333333333433E-003     0.0000000000000000     
   3.3333333333333409E-003     0.0000000000000000     
   3.7333333333333385E-003     0.0000000000000000     
   4.1333333333333361E-003     0.0000000000000000     
   4.5333333333333337E-003     0.0000000000000000     
   4.9333333333333312E-003     0.0000000000000000     
   5.3333333333333427E-003     0.0000000000000000     
   5.7333333333333403E-003     0.0000000000000000     
   6.1333333333333379E-003     0.0000000000000000     
   6.5333333333333354E-003     0.0000000000000000     
   6.9333333333333330E-003     0.0000000000000000     
   7.3333333333333445E-003     0.0000000000000000     
   7.7333333333333421E-003     0.0000000000000000     
   8.1333333333333396E-003     0.0000000000000000     
   8.5333333333333372E-003     0.0000000000000000     
   8.9333333333333348E-003     0.0000000000000000     
   9.3333333333333324E-003     0.0000000000000000     
   9.7333333333333438E-003     0.0000000000000000     
   1.0133333333333341E-002     0.0000000000000000     
   1.0533333333333339E-002     0.0000000000000000     
   1.0933333333333337E-002     0.0000000000000000     
   1.1333333333333334E-002     0.0000000000000000     
   1.1733333333333332E-002     0.0000000000000000     
   1.2133333333333343E-002     0.0000000000000000     
   1.2533333333333341E-002     0.0000000000000000     
   1.2933333333333338E-002     0.0000000000000000     
   1.3333333333333336E-002     0.0000000000000000     
   1.3733333333333334E-002     0.0000000000000000     
   1.4133333333333345E-002     0.0000000000000000     
   1.4533333333333343E-002     0.0000000000000000     
   1.4933333333333340E-002     0.0000000000000000     
   1.5333333333333338E-002     0.0000000000000000     
   1.5733333333333335E-002     0.0000000000000000     
   1.6133333333333333E-002     0.0000000000000000     
   1.6533333333333344E-002     0.0000000000000000     
   1.6933333333333342E-002     0.0000000000000000     
   1.7333333333333339E-002     0.0000000000000000     
   1.7733333333333337E-002     0.0000000000000000     
   1.8133333333333335E-002     0.0000000000000000     
   1.8533333333333332E-002    -1.8690836574710691E-035
   1.8933333333333344E-002    -6.4659226190118919E-035
   1.9333333333333341E-002    -1.3095126454305288E-034
   1.9733333333333339E-002    -1.9950072270648345E-034
   2.0133333333333336E-002    -2.4486141962465872E-034
   2.0533333333333334E-002    -2.3198413155901499E-034
   2.0933333333333332E-002    -1.2892431738960178E-034
   2.1333333333333343E-002     7.3570936997571876E-035
   2.1733333333333341E-002     3.6769966093062618E-034
   2.2133333333333338E-002     6.9877192808008762E-034
   2.2533333333333336E-002     9.7138775655924425E-034
   2.2933333333333333E-002     1.0632899252874462E-033
   2.3333333333333345E-002     8.5232882142666660E-034
   2.3733333333333342E-002     2.5326503333046206E-034
   2.4133333333333340E-002    -7.3544533144482752E-034
   2.4533333333333338E-002    -1.9935001147373857E-033
   2.4933333333333335E-002    -3.2596124067096018E-033
   2.5333333333333333E-002    -4.1465934240660670E-033
   2.5733333333333344E-002    -4.2011264437106361E-033
   2.6133333333333342E-002    -3.0101317305048182E-033
   2.6533333333333339E-002    -3.4265003702672151E-034
   2.6933333333333337E-002     3.6988303607645800E-033
   2.7333333333333334E-002     8.5580213172685798E-033
   2.7733333333333332E-002     1.3184243252435018E-032
   2.8133333333333344E-002     1.6118174296331751E-032
   2.8533333333333341E-002     1.5733947804718162E-032
   2.8933333333333339E-002     1.0634918531763984E-032
   2.9333333333333336E-002     1.5536581155271398E-034
   2.9733333333333334E-002    -1.5130369659137320E-032
   3.0133333333333345E-002    -3.3033092786179094E-032
   3.0533333333333343E-002    -4.9670795912639956E-032
   3.0933333333333340E-002    -5.9833297223803878E-032
   3.1333333333333338E-002    -5.7870445001857314E-032
   3.1733333333333336E-002    -3.9071907017412645E-032
   3.2133333333333333E-002    -1.3571193401193660E-033
   3.2533333333333345E-002     5.3063695787079374E-032
   3.2933333333333342E-002     1.1652252321735040E-031
   3.3333333333333340E-002     1.7573338442745037E-031
   3.3733333333333337E-002     2.1307866362892182E-031
   3.4133333333333335E-002     2.0956214876854993E-031
   3.4533333333333333E-002     1.4928858189058907E-031
   3.4933333333333344E-002     2.4871894117177133E-032
   3.5333333333333342E-002    -1.5729348683070570E-031
   3.5733333333333339E-002    -3.7332297041860969E-031
   3.6133333333333337E-002    -5.8123634730080927E-031
   3.6533333333333334E-002    -7.2476077509270617E-031
   3.6933333333333346E-002    -7.4218921857528580E-031
   3.7333333333333343E-002    -5.7988819633973820E-031
   3.7733333333333341E-002    -2.0873669312551550E-031
   3.8133333333333339E-002     3.5955732031341828E-031
   3.8533333333333336E-002     1.0603405732270346E-030
   3.8933333333333334E-002     1.7725422256162333E-030
   3.9333333333333345E-002     2.3276840089220088E-030
   3.9733333333333343E-002     2.5334818486210335E-030
   4.0133333333333340E-002     2.2113433581906176E-030
   4.0533333333333338E-002     1.2435303651755644E-030
   4.0933333333333335E-002    -3.7789700701675535E-031
   4.1333333333333333E-002    -2.5111995538650385E-030
   4.1733333333333344E-002    -4.8463296142028960E-030
   4.2133333333333342E-002    -6.9187084752675525E-030
   4.2533333333333340E-002    -8.1626613601325765E-030
   4.2933333333333337E-002    -8.0050698854839373E-030
   4.3333333333333335E-002    -5.9909846356324906E-030
   4.3733333333333346E-002    -1.9233931335386133E-030
   4.4133333333333344E-002     4.0090718198071174E-030
   4.4533333333333341E-002     1.1147850516983638E-029
   4.4933333333333339E-002     1.8354831584473965E-029
   4.5333333333333337E-002     2.4101848668243010E-029
   4.5733333333333334E-002     2.6670004026710475E-029
   4.6133333333333346E-002     2.4449796500719176E-029
   4.6533333333333343E-002     1.6309871646359752E-029
   4.6933333333333341E-002     1.9792921216998760E-030
   4.7333333333333338E-002    -1.7629727988208785E-029
   4.7733333333333336E-002    -4.0239967988648186E-029
   4.8133333333333334E-002    -6.2244310428583362E-029
   4.8533333333333345E-002    -7.9012624119447422E-029
   4.8933333333333343E-002    -8.5488298742082149E-029
   4.9333333333333340E-002    -7.7042409823401432E-029
   4.9733333333333338E-002    -5.0497130825448798E-029
   5.0133333333333335E-002    -5.1749293739018157E-030
   5.0533333333333347E-002     5.6212953862649846E-029
   5.0933333333333344E-002     1.2704662897223970E-028
   5.1333333333333342E-002     1.9684456905039348E-028
   5.1733333333333339E-002     2.5202955178669556E-028
   5.2133333333333337E-002     2.7748184748561521E-028
   5.2533333333333335E-002     2.5882993819795397E-028
   5.2933333333333346E-002     1.8528895327288360E-028
   5.3333333333333344E-002     5.2710162757764485E-029
   5.3733333333333341E-002    -1.3362614733006335E-028
   5.4133333333333339E-002    -3.5703233569028137E-028
   5.4533333333333336E-002    -5.8883146193277162E-028
   5.4933333333333334E-002    -7.8968953657958441E-028
   5.5333333333333345E-002    -9.1321088319630695E-028
   5.5733333333333343E-002    -9.1187082114100231E-028
   5.6133333333333341E-002    -7.4498990627657191E-028
   5.6533333333333338E-002    -3.8802064479196922E-028
   5.6933333333333336E-002     1.5802699361290694E-028
   5.7333333333333333E-002     8.5858284328873520E-028
   5.7733333333333345E-002     1.6407465197211348E-027
   5.8133333333333342E-002     2.3935830979253778E-027
   5.8533333333333340E-002     2.9750379111334061E-027
   5.8933333333333351E-002     3.2264010430110950E-027
   5.9333333333333335E-002     2.9942629290242683E-027
   5.9733333333333347E-002     2.1586206076751073E-027
   6.0133333333333330E-002     6.6432237870416115E-028
   6.0533333333333342E-002    -1.4484209406551894E-027
   6.0933333333333353E-002    -4.0199284764873571E-027
   6.1333333333333337E-002    -6.7594733036708139E-027
   6.1733333333333348E-002    -9.2521905639956137E-027
   6.2133333333333332E-002    -1.0989192173442306E-026
   6.2533333333333344E-002    -1.1423208960501725E-026
   6.2933333333333327E-002    -1.0048510981077226E-026
   6.3333333333333339E-002    -6.4994419462994269E-027
   6.3733333333333350E-002    -6.5699431156226493E-028
   6.4133333333333334E-002     7.2517425382001469E-027
   6.4533333333333345E-002     1.6579984223839724E-026
   6.4933333333333329E-002     2.6233754292399409E-026
   6.5333333333333340E-002     3.4709433013977422E-026
   6.5733333333333352E-002     4.0210495988265838E-026
   6.6133333333333336E-002     4.0849026505747760E-026
   6.6533333333333347E-002     3.4925605553911267E-026
   6.6933333333333331E-002     2.1266488224473181E-026
   6.7333333333333342E-002    -4.1851492878879743E-028
   6.7733333333333354E-002    -2.9208558010451577E-026
   6.8133333333333337E-002    -6.2736388321972720E-026
   6.8533333333333349E-002    -9.7110872844486047E-026
   6.8933333333333333E-002    -1.2705805426274528E-025
   6.9333333333333344E-002    -1.4632545185684780E-025
   6.9733333333333328E-002    -1.4836630897436442E-025
   7.0133333333333339E-002    -1.2728210308577969E-025
   7.0533333333333351E-002    -7.8954912473105892E-026
   7.0933333333333334E-002    -2.2514425346818000E-027
   7.1333333333333346E-002     9.9865821644550701E-026
   7.1733333333333330E-002     2.1951977536231130E-025
   7.2133333333333341E-002     3.4360636315841205E-025
   7.2533333333333352E-002     4.5418957510558555E-025
   7.2933333333333336E-002     5.2975732222987454E-025
   7.3333333333333348E-002     5.4740704960425658E-025
   7.3733333333333331E-002     4.8591100330729999E-025
   7.4133333333333343E-002     3.2946423184338537E-025
   7.4533333333333354E-002     7.1758214553460288E-026
   7.4933333333333338E-002    -2.8013057181219018E-025
   7.5333333333333349E-002    -7.0267139252695477E-025
   7.5733333333333333E-002    -1.1543297102029124E-024
   7.6133333333333345E-002    -1.5762202137089354E-024
   7.6533333333333328E-002    -1.8955250757325287E-024
   7.6933333333333340E-002    -2.0319999844880268E-024
   7.7333333333333351E-002    -1.9075400189647236E-024
   7.7733333333333335E-002    -1.4583209085115159E-024
   7.8133333333333346E-002    -6.4852422651161740E-025
   7.8533333333333330E-002     5.1586809479068107E-025
   7.8933333333333341E-002     1.9751736003195260E-024
   7.9333333333333353E-002     3.6082746295994225E-024
   7.9733333333333337E-002     5.2313827633624318E-024
   8.0133333333333348E-002     6.6054080663019066E-024
   8.0533333333333332E-002     7.4534197343486529E-024
   8.0933333333333343E-002     7.4887188932745775E-024
   8.1333333333333355E-002     6.4526802563161400E-024
   8.1733333333333338E-002     4.1599412322690330E-024
   8.2133333333333350E-002     5.4676057809242796E-025
   8.2533333333333334E-002    -4.2832555745427290E-024
   8.2933333333333345E-002    -1.0023192508813085E-023
   8.3333333333333329E-002    -1.6144467565680447E-023
   8.3733333333333340E-002    -2.1903750130359991E-023
   8.4133333333333352E-002    -2.6381613351485764E-023
   8.4533333333333335E-002    -2.8556843655091149E-023
   8.4933333333333347E-002    -2.7416680900669875E-023
   8.5333333333333330E-002    -2.2098414180497759E-023
   8.5733333333333342E-002    -1.2052275285673605E-023
   8.6133333333333353E-002     2.7902327734181539E-024
   8.6533333333333337E-002     2.1863616042945966E-023
   8.6933333333333349E-002     4.3856292885429711E-023
   8.7333333333333332E-002     6.6665789441337311E-023
   8.7733333333333344E-002     8.7446600806280622E-023
   8.8133333333333355E-002     1.0277097488578055E-022
   8.8533333333333339E-002     1.0891383475473657E-022
   8.8933333333333350E-002     1.0225984981718251E-022
   8.9333333333333334E-002     7.9814308439394915E-023
   8.9733333333333345E-002     3.9780665106710700E-023
   9.0133333333333329E-002    -1.7851445813164744E-023
   9.0533333333333341E-002    -9.0780863417160168E-023
   9.0933333333333352E-002    -1.7401785630857904E-022
   9.1333333333333336E-002    -2.5974602145158794E-022
   9.1733333333333347E-002    -3.3750834490432196E-022
   9.2133333333333331E-002    -3.9478537690898294E-022
   9.2533333333333342E-002    -4.1800249998272358E-022
   9.2933333333333354E-002    -3.9395963517872104E-022
   9.3333333333333338E-002    -3.1162171652731341E-022
   9.3733333333333349E-002    -1.6414630337613297E-022
   9.4133333333333333E-002     4.9039333069228841E-023
   9.4533333333333344E-002     3.2035641361025289E-022
   9.4933333333333356E-002     6.3267674535523003E-022
   9.5333333333333339E-002     9.5871626438798890E-022
   9.5733333333333351E-002     1.2615148556803312E-021
   9.6133333333333335E-002     1.4962453278991173E-021
   9.6533333333333346E-002     1.6134981797285090E-021
   9.6933333333333330E-002     1.5640514189343952E-021
   9.7333333333333341E-002     1.3049558732525908E-021
   9.7733333333333353E-002     8.0656395367612999E-022
   9.8133333333333336E-002     5.9915475120924904E-023
   9.8533333333333348E-002    -9.1630690017491557E-022
   9.8933333333333331E-002    -2.0701998228277725E-021
   9.9333333333333343E-002    -3.3134803543214245E-021
   9.9733333333333354E-002    -4.5217803951404249E-021
  0.10013333333333334         -5.5392981746987453E-021
  0.10053333333333335         -6.1884495669292578E-021
  0.10093333333333333         -6.2847434068706604E-021
  0.10133333333333334         -5.6565651629155585E-021
  0.10173333333333336         -4.1688998143877615E-021
  0.10213333333333334         -1.7493143296747188E-021
  0.10253333333333335          1.5861751681717251E-021
  0.10293333333333334          5.7103541170545964E-021
  0.10333333333333335          1.0368602349601365E-020
  0.10373333333333333          1.5172825342043869E-020
  0.10413333333333334          1.9608907725460526E-020
  0.10453333333333335          2.3060465849767218E-020
  0.10493333333333334          2.4850555781165861E-020
  0.10533333333333335          2.4301438716988496E-020
  0.10573333333333333          2.0810544277145786E-020
  0.10613333333333334          1.3938508693814228E-020
  0.10653333333333335          3.5027443675730290E-021
  0.10693333333333334         -1.0332244368946678E-020
  0.10733333333333335         -2.6978536068095345E-020
  0.10773333333333333         -4.5374401196705328E-020
  0.10813333333333335         -6.3972067698622707E-020
  0.10853333333333333         -8.0774904136490601E-020
  0.10893333333333334         -9.3432854847128913E-020
  0.10933333333333335         -9.9401053439578506E-020
  0.10973333333333334         -9.6161038678996581E-020
  0.11013333333333335         -8.1497401165115921E-020
  0.11053333333333333         -5.3814923086628013E-020
  0.11093333333333334         -1.2473435311870002E-020
  0.11133333333333335          4.1890028882122143E-020
  0.11173333333333334          1.0708839830120325E-019
  0.11213333333333335          1.7920180377077160E-019
  0.11253333333333333          2.5252653123689290E-019
  0.11293333333333334          3.1969426906044644E-019
  0.11333333333333336          3.7199247894577605E-019
  0.11373333333333334          3.9990416360212358E-019
  0.11413333333333335          3.9386786478080614E-019
  0.11453333333333333          3.4523664994850067E-019
  0.11493333333333335          2.4739059266294529E-019
  0.11533333333333333          9.6930252025185541E-020
  0.11573333333333334         -1.0514607482535217E-019
  0.11613333333333335         -3.5240119727594629E-019
  0.11653333333333334         -6.3218896486438447E-019
  0.11693333333333335         -9.2529684770615819E-019
  0.11733333333333333         -1.2061370733770994E-018
  0.11773333333333334         -1.4436022224724443E-018
  0.11813333333333335         -1.6026651251584819E-018
  0.11853333333333334         -1.6467535416148286E-018
  0.11893333333333335         -1.5408612917158168E-018
  0.11933333333333333         -1.2552836992792078E-018
  0.11973333333333334         -7.6977779355945090E-019
  0.12013333333333336         -7.7863932776294321E-020
  0.12053333333333334          8.0909399826682602E-019
  0.12093333333333335          1.8584577014958580E-018
  0.12133333333333333          3.0139979979594669E-018
  0.12173333333333335          4.1951684857030314E-018
  0.12213333333333333          5.2984086335767501E-018
  0.12253333333333334          6.2008366256828078E-018
  0.12293333333333335          6.7665661261231373E-018
  0.12333333333333334          6.8556977322578700E-018
  0.12373333333333335          6.3358250570259490E-018
  0.12413333333333333          5.0956269607706004E-018
  0.12453333333333334          3.0598599930467039E-018
  0.12493333333333335          2.0478188600018235E-019
  0.12533333333333335         -3.4272117302621160E-018
  0.12573333333333336         -7.7151532779514917E-018
  0.12613333333333332         -1.2450816051557391E-017
  0.12653333333333333         -1.7335344865643234E-017
  0.12693333333333334         -2.1982680466260108E-017
  0.12733333333333335         -2.5930998818432921E-017
  0.12773333333333337         -2.8663048995881238E-017
  0.12813333333333332         -2.9635661195010889E-017
  0.12853333333333333         -2.8318134532781327E-017
  0.12893333333333334         -2.4238332513520760E-017
  0.12933333333333336         -1.7034568760029152E-017
  0.12973333333333337         -6.5104461930583433E-018
  0.13013333333333332          7.3109820773101192E-018
  0.13053333333333333          2.4138041827332381E-017
  0.13093333333333335          4.3371107763017221E-017
  0.13133333333333336          6.4078188043575630E-017
  0.13173333333333337          8.4990425659659441E-017
  0.13213333333333332          1.0452208559850245E-016
  0.13253333333333334          1.2081868848376487E-016
  0.13293333333333335          1.3183568868667693E-016
  0.13333333333333336          1.3544842979050433E-016
  0.13373333333333337          1.2959192487917989E-016
  0.13413333333333333          1.1242684190774089E-016
  0.13453333333333334          8.2525513461035124E-017
  0.13493333333333335          3.9069143229198387E-017
  0.13533333333333336         -1.7954755906296417E-017
  0.13573333333333332         -8.7567999857713480E-017
  0.13613333333333333         -1.6764517120215495E-016
  0.13653333333333334         -2.5480066601455559E-016
  0.13693333333333335         -3.4433514550354853E-016
  0.13733333333333336         -4.3025663242580786E-016
  0.13773333333333332         -5.0538961951756677E-016
  0.13813333333333333         -5.6158257933180511E-016
  0.13853333333333334         -5.9002133995895382E-016
  0.13893333333333335         -5.8165037803903558E-016
  0.13933333333333336         -5.2769930267794257E-016
  0.13973333333333332         -4.2030719813890163E-016
  0.14013333333333333         -2.5322984341387249E-016
  0.14053333333333334         -2.2611963080343499E-017
  0.14093333333333335          2.7219975507256338E-016
  0.14133333333333337          6.2782976729039278E-016
  0.14173333333333332          1.0360626431150824E-015
  0.14213333333333333          1.4830777165231982E-015
  0.14253333333333335          1.9487589608690754E-015
  0.14293333333333336          2.4061033893107205E-015
  0.14333333333333337          2.8207512162218814E-015
  0.14373333333333332          3.1506466204966714E-015
  0.14413333333333334          3.3458364693454788E-015
  0.14453333333333335          3.3483962029120812E-015
  0.14493333333333336          3.0924658331739048E-015
  0.14533333333333337          2.5043681050381655E-015
  0.14573333333333333          1.5027569388658757E-015
  0.14613333333333334         -1.2483891488735783E-018
  0.14653333333333335         -2.1040116297713161E-015
  0.14693333333333336         -4.9094847009653348E-015
  0.14733333333333337         -8.5295430047867098E-015
  0.14773333333333333         -1.3084633779302055E-014
  0.14813333333333334         -1.8704815121914006E-014
  0.14853333333333335         -2.5531277260534488E-014
  0.14893333333333336         -3.3718386020569965E-014
  0.14933333333333332         -4.3436347590573507E-014
  0.14973333333333333         -5.4874531432496862E-014
  0.15013333333333334         -6.8245471665333290E-014
  0.15053333333333335         -8.3789624002149343E-014
  0.15093333333333336         -1.0178085452358307E-013