 -0.23999999999999999          0.0000000000000000     
 -0.23899999999999999          0.0000000000000000     
 -0.23799999999999999          0.0000000000000000     
 -0.23699999999999999          0.0000000000000000     
 -0.23599999999999999          0.0000000000000000     
 -0.23499999999999999          0.0000000000000000     
 -0.23399999999999999          0.0000000000000000     
 -0.23299999999999998          0.0000000000000000     
 -0.23199999999999998          0.0000000000000000     
 -0.23099999999999998          0.0000000000000000     
 -0.22999999999999998          0.0000000000000000     
 -0.22899999999999998          0.0000000000000000     
 -0.22799999999999998          0.0000000000000000     
 -0.22699999999999998          0.0000000000000000     
 -0.22599999999999998          0.0000000000000000     
 -0.22499999999999998          0.0000000000000000     
 -0.22399999999999998          0.0000000000000000     
 -0.22299999999999998          0.0000000000000000     
 -0.22199999999999998          0.0000000000000000     
 -0.22100000000000000          0.0000000000000000     
 -0.22000000000000000          0.0000000000000000     
 -0.21900000000000000          0.0000000000000000     
 -0.21800000000000000          0.0000000000000000     
 -0.21700000000000000          0.0000000000000000     
 -0.21600000000000000          0.0000000000000000     
 -0.21500000000000000          0.0000000000000000     
 -0.21400000000000000          0.0000000000000000     
 -0.21299999999999999          0.0000000000000000     
 -0.21199999999999999          0.0000000000000000     
 -0.21099999999999999          0.0000000000000000     
 -0.20999999999999999          0.0000000000000000     
 -0.20899999999999999          0.0000000000000000     
 -0.20799999999999999          0.0000000000000000     
 -0.20699999999999999          0.0000000000000000     
 -0.20599999999999999          0.0000000000000000     
 -0.20499999999999999          0.0000000000000000     
 -0.20399999999999999          0.0000000000000000     
 -0.20299999999999999          0.0000000000000000     
 -0.20199999999999999          0.0000000000000000     
 -0.20099999999999998          0.0000000000000000     
 -0.19999999999999998          0.0000000000000000     
 -0.19899999999999998          0.0000000000000000     
 -0.19799999999999998          0.0000000000000000     
 -0.19699999999999998          0.0000000000000000     
 -0.19600000000000001          0.0000000000000000     
 -0.19500000000000001          0.0000000000000000     
 -0.19400000000000001          0.0000000000000000     
 -0.19300000000000000          0.0000000000000000     
 -0.19200000000000000          0.0000000000000000     
 -0.19100000000000000          0.0000000000000000     
 -0.19000000000000000          0.0000000000000000     
 -0.18900000000000000          0.0000000000000000     
 -0.18800000000000000          0.0000000000000000     
 -0.18700000000000000          0.0000000000000000     
 -0.18600000000000000          0.0000000000000000     
 -0.18500000000000000          0.0000000000000000     
 -0.18400000000000000          0.0000000000000000     
 -0.18300000000000000          0.0000000000000000     
 -0.18200000000000000          0.0000000000000000     
 -0.18099999999999999          0.0000000000000000     
 -0.17999999999999999          0.0000000000000000     
 -0.17899999999999999          0.0000000000000000     
 -0.17799999999999999          0.0000000000000000     
 -0.17699999999999999          0.0000000000000000     
 -0.17599999999999999          0.0000000000000000     
 -0.17499999999999999          0.0000000000000000     
 -0.17399999999999999          0.0000000000000000     
 -0.17299999999999999          0.0000000000000000     
 -0.17199999999999999          0.0000000000000000     
 -0.17099999999999999          0.0000000000000000     
 -0.16999999999999998          0.0000000000000000     
 -0.16899999999999998          0.0000000000000000     
 -0.16799999999999998          0.0000000000000000     
 -0.16699999999999998          0.0000000000000000     
 -0.16599999999999998          0.0000000000000000     
 -0.16499999999999998          0.0000000000000000     
 -0.16399999999999998          0.0000000000000000     
 -0.16299999999999998          0.0000000000000000     
 -0.16199999999999998          0.0000000000000000     
 -0.16099999999999998          0.0000000000000000     
 -0.15999999999999998          0.0000000000000000     
 -0.15899999999999997          0.0000000000000000     
 -0.15799999999999997          0.0000000000000000     
 -0.15699999999999997          0.0000000000000000     
 -0.15599999999999997          0.0000000000000000     
 -0.15499999999999997          0.0000000000000000     
 -0.15399999999999997          0.0000000000000000     
 -0.15299999999999997          0.0000000000000000     
 -0.15200000000000000          0.0000000000000000     
 -0.15100000000000000          0.0000000000000000     
 -0.14999999999999999          0.0000000000000000     
 -0.14899999999999999          0.0000000000000000     
 -0.14799999999999999          0.0000000000000000     
 -0.14699999999999999          0.0000000000000000     
 -0.14599999999999999          0.0000000000000000     
 -0.14499999999999999          0.0000000000000000     
 -0.14399999999999999          0.0000000000000000     
 -0.14299999999999999          0.0000000000000000     
 -0.14199999999999999          0.0000000000000000     
 -0.14099999999999999          0.0000000000000000     
 -0.13999999999999999          0.0000000000000000     
 -0.13899999999999998          0.0000000000000000     
 -0.13799999999999998          0.0000000000000000     
 -0.13699999999999998          0.0000000000000000     
 -0.13599999999999998          0.0000000000000000     
 -0.13500000000000001          0.0000000000000000     
 -0.13400000000000001          0.0000000000000000     
 -0.13300000000000001          0.0000000000000000     
 -0.13200000000000001          0.0000000000000000     
 -0.13100000000000001          0.0000000000000000     
 -0.13000000000000000          0.0000000000000000     
 -0.12900000000000000          0.0000000000000000     
 -0.12800000000000000          0.0000000000000000     
 -0.12700000000000000          0.0000000000000000     
 -0.12600000000000000          0.0000000000000000     
 -0.12499999999999999          0.0000000000000000     
 -0.12399999999999999          0.0000000000000000     
 -0.12299999999999998          0.0000000000000000     
 -0.12199999999999998          0.0000000000000000     
 -0.12099999999999998          0.0000000000000000     
 -0.12000000000000000          0.0000000000000000     
 -0.11899999999999999          0.0000000000000000     
 -0.11799999999999999          0.0000000000000000     
 -0.11699999999999999          0.0000000000000000     
 -0.11599999999999999          0.0000000000000000     
 -0.11499999999999999          0.0000000000000000     
 -0.11399999999999999          0.0000000000000000     
 -0.11299999999999999          0.0000000000000000     
 -0.11199999999999999          0.0000000000000000     
 -0.11099999999999999          0.0000000000000000     
 -0.10999999999999999          0.0000000000000000     
 -0.10899999999999999          0.0000000000000000     
 -0.10799999999999998          0.0000000000000000     
 -0.10699999999999998          0.0000000000000000     
 -0.10599999999999998          0.0000000000000000     
 -0.10499999999999998          0.0000000000000000     
 -0.10399999999999998          0.0000000000000000     
 -0.10299999999999998          0.0000000000000000     
 -0.10199999999999998          0.0000000000000000     
 -0.10099999999999998          0.0000000000000000     
  -9.9999999999999978E-002     0.0000000000000000     
  -9.8999999999999977E-002     0.0000000000000000     
  -9.7999999999999976E-002     0.0000000000000000     
  -9.6999999999999975E-002     0.0000000000000000     
  -9.5999999999999974E-002     0.0000000000000000     
  -9.5000000000000001E-002     0.0000000000000000     
  -9.4000000000000000E-002     0.0000000000000000     
  -9.2999999999999999E-002     0.0000000000000000     
  -9.1999999999999998E-002     0.0000000000000000     
  -9.0999999999999998E-002     0.0000000000000000     
  -8.9999999999999997E-002     0.0000000000000000     
  -8.8999999999999996E-002     0.0000000000000000     
  -8.7999999999999995E-002     0.0000000000000000     
  -8.6999999999999994E-002     0.0000000000000000     
  -8.5999999999999993E-002     0.0000000000000000     
  -8.4999999999999992E-002     0.0000000000000000     
  -8.3999999999999991E-002     0.0000000000000000     
  -8.2999999999999990E-002     0.0000000000000000     
  -8.1999999999999990E-002     0.0000000000000000     
  -8.0999999999999989E-002     0.0000000000000000     
  -7.9999999999999988E-002     0.0000000000000000     
  -7.8999999999999987E-002     0.0000000000000000     
  -7.7999999999999986E-002     0.0000000000000000     
  -7.6999999999999985E-002     0.0000000000000000     
  -7.5999999999999984E-002     0.0000000000000000     
  -7.4999999999999983E-002     0.0000000000000000     
  -7.3999999999999982E-002     0.0000000000000000     
  -7.2999999999999982E-002     0.0000000000000000     
  -7.1999999999999981E-002     0.0000000000000000     
  -7.0999999999999980E-002     0.0000000000000000     
  -6.9999999999999979E-002     0.0000000000000000     
  -6.8999999999999978E-002     0.0000000000000000     
  -6.7999999999999977E-002     0.0000000000000000     
  -6.6999999999999976E-002     0.0000000000000000     
  -6.5999999999999975E-002     0.0000000000000000     
  -6.4999999999999974E-002     0.0000000000000000     
  -6.4000000000000001E-002     0.0000000000000000     
  -6.3000000000000000E-002     0.0000000000000000     
  -6.2000000000000000E-002     0.0000000000000000     
  -6.0999999999999999E-002     0.0000000000000000     
  -5.9999999999999998E-002     0.0000000000000000     
  -5.8999999999999997E-002     0.0000000000000000     
  -5.7999999999999996E-002     0.0000000000000000     
  -5.6999999999999995E-002     0.0000000000000000     
  -5.5999999999999994E-002     0.0000000000000000     
  -5.4999999999999993E-002     0.0000000000000000     
  -5.3999999999999992E-002     0.0000000000000000     
  -5.2999999999999992E-002     0.0000000000000000     
  -5.1999999999999991E-002     0.0000000000000000     
  -5.0999999999999990E-002     0.0000000000000000     
  -4.9999999999999989E-002     0.0000000000000000     
  -4.8999999999999988E-002     0.0000000000000000     
  -4.7999999999999987E-002     0.0000000000000000     
  -4.6999999999999986E-002     0.0000000000000000     
  -4.5999999999999985E-002     0.0000000000000000     
  -4.4999999999999984E-002     0.0000000000000000     
  -4.3999999999999984E-002     0.0000000000000000     
  -4.2999999999999983E-002     0.0000000000000000     
  -4.1999999999999982E-002     0.0000000000000000     
  -4.0999999999999981E-002     0.0000000000000000     
  -3.9999999999999980E-002     0.0000000000000000     
  -3.8999999999999979E-002     0.0000000000000000     
  -3.7999999999999978E-002     0.0000000000000000     
  -3.6999999999999977E-002     0.0000000000000000     
  -3.5999999999999976E-002     0.0000000000000000     
  -3.4999999999999976E-002     0.0000000000000000     
  -3.3999999999999975E-002     0.0000000000000000     
  -3.2999999999999974E-002     0.0000000000000000     
  -3.1999999999999973E-002     0.0000000000000000     
  -3.1000000000000000E-002     0.0000000000000000     
  -2.9999999999999999E-002     0.0000000000000000     
  -2.8999999999999998E-002     0.0000000000000000     
  -2.7999999999999997E-002     0.0000000000000000     
  -2.6999999999999996E-002     0.0000000000000000     
  -2.5999999999999995E-002     0.0000000000000000     
  -2.4999999999999994E-002     0.0000000000000000     
  -2.3999999999999994E-002     0.0000000000000000     
  -2.2999999999999993E-002     0.0000000000000000     
  -2.1999999999999992E-002     0.0000000000000000     
  -2.0999999999999991E-002     0.0000000000000000     
  -1.9999999999999990E-002     0.0000000000000000     
  -1.8999999999999989E-002     0.0000000000000000     
  -1.7999999999999988E-002     0.0000000000000000     
  -1.6999999999999987E-002     0.0000000000000000     
  -1.5999999999999986E-002     0.0000000000000000     
  -1.4999999999999986E-002     0.0000000000000000     
  -1.3999999999999985E-002     0.0000000000000000     
  -1.2999999999999984E-002     0.0000000000000000     
  -1.1999999999999983E-002     0.0000000000000000     
  -1.0999999999999982E-002     0.0000000000000000     
  -9.9999999999999811E-003     0.0000000000000000     
  -8.9999999999999802E-003     0.0000000000000000     
  -7.9999999999999793E-003     0.0000000000000000     
  -6.9999999999999785E-003     0.0000000000000000     
  -5.9999999999999776E-003     0.0000000000000000     
  -4.9999999999999767E-003     0.0000000000000000     
  -3.9999999999999758E-003     0.0000000000000000     
  -2.9999999999999749E-003     0.0000000000000000     
  -1.9999999999999740E-003     0.0000000000000000     
  -9.9999999999997313E-004     0.0000000000000000     
   0.0000000000000000          0.0000000000000000     
   1.0000000000000009E-003     0.0000000000000000     
   2.0000000000000018E-003     0.0000000000000000     
   3.0000000000000027E-003     0.0000000000000000     
   4.0000000000000036E-003     0.0000000000000000     
   5.0000000000000044E-003     0.0000000000000000     
   6.0000000000000053E-003     0.0000000000000000     
   7.0000000000000062E-003     0.0000000000000000     
   8.0000000000000071E-003     0.0000000000000000     
   9.0000000000000080E-003     0.0000000000000000     
   1.0000000000000009E-002     0.0000000000000000     
   1.1000000000000010E-002     0.0000000000000000     
   1.2000000000000011E-002     0.0000000000000000     
   1.3000000000000012E-002     0.0000000000000000     
   1.4000000000000012E-002     0.0000000000000000     
   1.5000000000000013E-002     0.0000000000000000     
   1.6000000000000014E-002     0.0000000000000000     
   1.7000000000000015E-002     0.0000000000000000     
   1.8000000000000016E-002     0.0000000000000000     
   1.9000000000000017E-002     0.0000000000000000     
   2.0000000000000018E-002     0.0000000000000000     
   2.1000000000000019E-002     0.0000000000000000     
   2.2000000000000020E-002     0.0000000000000000     
   2.3000000000000020E-002     0.0000000000000000     
   2.4000000000000021E-002     0.0000000000000000     
   2.5000000000000022E-002     0.0000000000000000     
   2.6000000000000023E-002     0.0000000000000000     
   2.7000000000000024E-002     0.0000000000000000     
   2.8000000000000025E-002     0.0000000000000000     
   2.9000000000000026E-002     0.0000000000000000     
   3.0000000000000027E-002     0.0000000000000000     
   3.1000000000000028E-002     0.0000000000000000     
   3.2000000000000028E-002     0.0000000000000000     
   3.3000000000000029E-002     0.0000000000000000     
   3.4000000000000030E-002     0.0000000000000000     
   3.5000000000000031E-002     0.0000000000000000     
   3.6000000000000032E-002     0.0000000000000000     
   3.7000000000000033E-002     0.0000000000000000     
   3.8000000000000034E-002     0.0000000000000000     
   3.9000000000000035E-002     0.0000000000000000     
   4.0000000000000036E-002     0.0000000000000000     
   4.1000000000000036E-002     0.0000000000000000     
   4.2000000000000037E-002     0.0000000000000000     
   4.3000000000000038E-002     0.0000000000000000     
   4.4000000000000039E-002     0.0000000000000000     
   4.5000000000000040E-002     0.0000000000000000     
   4.6000000000000041E-002     0.0000000000000000     
   4.7000000000000042E-002     0.0000000000000000     
   4.8000000000000043E-002     0.0000000000000000     
   4.8999999999999988E-002     0.0000000000000000     
   4.9999999999999989E-002     0.0000000000000000     
   5.0999999999999990E-002     0.0000000000000000     
   5.1999999999999991E-002     0.0000000000000000     
   5.2999999999999992E-002     0.0000000000000000     
   5.3999999999999992E-002     0.0000000000000000     
   5.4999999999999993E-002     0.0000000000000000     
   5.5999999999999994E-002     0.0000000000000000     
   5.6999999999999995E-002     0.0000000000000000     
   5.7999999999999996E-002     0.0000000000000000     
   5.8999999999999997E-002     0.0000000000000000     
   5.9999999999999998E-002     0.0000000000000000     
   6.0999999999999999E-002     0.0000000000000000     
   6.2000000000000000E-002     0.0000000000000000     
   6.3000000000000000E-002     0.0000000000000000     
   6.4000000000000001E-002     0.0000000000000000     
   6.5000000000000002E-002     0.0000000000000000     
   6.6000000000000003E-002     0.0000000000000000     
   6.7000000000000004E-002     0.0000000000000000     
   6.8000000000000005E-002     0.0000000000000000     
   6.9000000000000006E-002     0.0000000000000000     
   7.0000000000000007E-002     0.0000000000000000     
   7.1000000000000008E-002     0.0000000000000000     
   7.2000000000000008E-002     0.0000000000000000     
   7.3000000000000009E-002     0.0000000000000000     
   7.4000000000000010E-002     0.0000000000000000     
   7.5000000000000011E-002     0.0000000000000000     
   7.6000000000000012E-002     0.0000000000000000     
   7.7000000000000013E-002     0.0000000000000000     
   7.8000000000000014E-002     0.0000000000000000     
   7.9000000000000015E-002     0.0000000000000000     
   8.0000000000000016E-002     0.0000000000000000     
   8.1000000000000016E-002     0.0000000000000000     
   8.2000000000000017E-002     0.0000000000000000     
   8.3000000000000018E-002     0.0000000000000000     
   8.4000000000000019E-002     0.0000000000000000     
   8.5000000000000020E-002     0.0000000000000000     
   8.6000000000000021E-002     0.0000000000000000     
   8.7000000000000022E-002     0.0000000000000000     
   8.8000000000000023E-002     0.0000000000000000     
   8.9000000000000024E-002     0.0000000000000000     
   9.0000000000000024E-002     0.0000000000000000     
   9.1000000000000025E-002     0.0000000000000000     
   9.2000000000000026E-002     0.0000000000000000     
   9.3000000000000027E-002     0.0000000000000000     
   9.4000000000000028E-002     0.0000000000000000     
   9.5000000000000029E-002     0.0000000000000000     
   9.6000000000000030E-002     0.0000000000000000     
   9.7000000000000031E-002     0.0000000000000000     
   9.8000000000000032E-002     0.0000000000000000     
   9.9000000000000032E-002     0.0000000000000000     
  0.10000000000000003          0.0000000000000000     
  0.10100000000000003          0.0000000000000000     
  0.10200000000000004          0.0000000000000000     
  0.10300000000000004          0.0000000000000000     
  0.10400000000000004          0.0000000000000000     
  0.10500000000000004          0.0000000000000000     
  0.10600000000000004          0.0000000000000000     
  0.10700000000000004          0.0000000000000000     
  0.10800000000000004          0.0000000000000000     
  0.10900000000000004          0.0000000000000000     
  0.11000000000000004          0.0000000000000000     
  0.11100000000000004          0.0000000000000000     
  0.11199999999999999          0.0000000000000000     
  0.11299999999999999          0.0000000000000000     
  0.11399999999999999          0.0000000000000000     
  0.11499999999999999          0.0000000000000000     
  0.11599999999999999          0.0000000000000000     
  0.11699999999999999          0.0000000000000000     
  0.11799999999999999          0.0000000000000000     
  0.11899999999999999          0.0000000000000000     
  0.12000000000000000          0.0000000000000000     
  0.12100000000000000          0.0000000000000000     
  0.12200000000000000          0.0000000000000000     
  0.12300000000000000          0.0000000000000000     
  0.12400000000000000          0.0000000000000000     
  0.12500000000000000          0.0000000000000000     
  0.12600000000000000          0.0000000000000000     
  0.12700000000000000          0.0000000000000000     
  0.12800000000000000          0.0000000000000000     
  0.12900000000000000          0.0000000000000000     
  0.13000000000000000          0.0000000000000000     
  0.13100000000000001          0.0000000000000000     
  0.13200000000000001          0.0000000000000000     
  0.13300000000000001          0.0000000000000000     
  0.13400000000000001          0.0000000000000000     
  0.13500000000000001          0.0000000000000000     
  0.13600000000000001          0.0000000000000000     
  0.13700000000000001          0.0000000000000000     
  0.13800000000000001          0.0000000000000000     
  0.13900000000000001          0.0000000000000000     
  0.14000000000000001          0.0000000000000000     
  0.14100000000000001          0.0000000000000000     
  0.14200000000000002          0.0000000000000000     
  0.14300000000000002          0.0000000000000000     
  0.14400000000000002          0.0000000000000000     
  0.14500000000000002          0.0000000000000000     
  0.14600000000000002          0.0000000000000000     
  0.14700000000000002          0.0000000000000000     
  0.14800000000000002          0.0000000000000000     
  0.14900000000000002          0.0000000000000000     
  0.15000000000000002          0.0000000000000000     
  0.15100000000000002          0.0000000000000000     
  0.15200000000000002          0.0000000000000000     
  0.15300000000000002          0.0000000000000000     
  0.15400000000000003          0.0000000000000000     
  0.15500000000000003          0.0000000000000000     
  0.15600000000000003          0.0000000000000000     
  0.15700000000000003          0.0000000000000000     
  0.15800000000000003          0.0000000000000000     
  0.15900000000000003          0.0000000000000000     
  0.16000000000000003          0.0000000000000000     
  0.16100000000000003          0.0000000000000000     
  0.16200000000000003          0.0000000000000000     
  0.16300000000000003          0.0000000000000000     
  0.16400000000000003          0.0000000000000000     
  0.16500000000000004          0.0000000000000000     
  0.16600000000000004          0.0000000000000000     
  0.16700000000000004          0.0000000000000000     
  0.16800000000000004          0.0000000000000000     
  0.16900000000000004          0.0000000000000000     
  0.17000000000000004          0.0000000000000000     
  0.17100000000000004          0.0000000000000000     
  0.17200000000000004          0.0000000000000000     
  0.17300000000000004          0.0000000000000000     
  0.17400000000000004          0.0000000000000000     
  0.17500000000000004          0.0000000000000000     
  0.17600000000000005          0.0000000000000000     
  0.17699999999999999          0.0000000000000000     
  0.17799999999999999          0.0000000000000000     
  0.17899999999999999          0.0000000000000000     
  0.17999999999999999          0.0000000000000000     
  0.18099999999999999          0.0000000000000000     
  0.18200000000000000          0.0000000000000000     
  0.18300000000000000          0.0000000000000000     
  0.18400000000000000          0.0000000000000000     
  0.18500000000000000          0.0000000000000000     
  0.18600000000000000          0.0000000000000000     
  0.18700000000000000          0.0000000000000000     
  0.18800000000000000          0.0000000000000000     
  0.18900000000000000          0.0000000000000000     
  0.19000000000000000          0.0000000000000000     
  0.19100000000000000          0.0000000000000000     
  0.19200000000000000          0.0000000000000000     
  0.19300000000000000          0.0000000000000000     
  0.19400000000000001          0.0000000000000000     
  0.19500000000000001          0.0000000000000000     
  0.19600000000000001          0.0000000000000000     
  0.19700000000000001          0.0000000000000000     
  0.19800000000000001          0.0000000000000000     
  0.19900000000000001          0.0000000000000000     
  0.20000000000000001          0.0000000000000000     
  0.20100000000000001          0.0000000000000000     
  0.20200000000000001          0.0000000000000000     
  0.20300000000000001          0.0000000000000000     
  0.20400000000000001          0.0000000000000000     
  0.20500000000000002          0.0000000000000000     
  0.20600000000000002          0.0000000000000000     
  0.20700000000000002          0.0000000000000000     
  0.20800000000000002          0.0000000000000000     
  0.20900000000000002          0.0000000000000000     
  0.21000000000000002          0.0000000000000000     
  0.21100000000000002          0.0000000000000000     
  0.21200000000000002          0.0000000000000000     
  0.21300000000000002          0.0000000000000000     
  0.21400000000000002          0.0000000000000000     
  0.21500000000000002          0.0000000000000000     
  0.21600000000000003          0.0000000000000000     
  0.21700000000000003          0.0000000000000000     
  0.21800000000000003          0.0000000000000000     
  0.21900000000000003          0.0000000000000000     
  0.22000000000000003          0.0000000000000000     
  0.22100000000000003          0.0000000000000000     
  0.22200000000000003          0.0000000000000000     
  0.22300000000000003          0.0000000000000000     
  0.22400000000000003          0.0000000000000000     
  0.22500000000000003          0.0000000000000000     
  0.22600000000000003          0.0000000000000000     
  0.22700000000000004          0.0000000000000000     
  0.22800000000000004          0.0000000000000000     
  0.22900000000000004          0.0000000000000000     
  0.23000000000000004          0.0000000000000000     
  0.23100000000000004          0.0000000000000000     
  0.23200000000000004          0.0000000000000000     
  0.23300000000000004          0.0000000000000000     
  0.23400000000000004          0.0000000000000000     
  0.23500000000000004          0.0000000000000000     
  0.23600000000000004          0.0000000000000000     
  0.23700000000000004          0.0000000000000000     
  0.23800000000000004          0.0000000000000000     
  0.23900000000000005          0.0000000000000000     
  0.23999999999999999          0.0000000000000000     
  0.24099999999999999          0.0000000000000000     
  0.24199999999999999          0.0000000000000000     
  0.24299999999999999          0.0000000000000000     
  0.24399999999999999          0.0000000000000000     
  0.24500000000000000          0.0000000000000000     
  0.24600000000000000          0.0000000000000000     
  0.24700000000000000          0.0000000000000000     
  0.24800000000000000          0.0000000000000000     
  0.24900000000000000          0.0000000000000000     
  0.25000000000000000          0.0000000000000000     
  0.25100000000000000          0.0000000000000000     
  0.25200000000000000          0.0000000000000000     
  0.25300000000000000          0.0000000000000000     
  0.25400000000000000          0.0000000000000000     
  0.25500000000000000          0.0000000000000000     
  0.25600000000000001          0.0000000000000000     
  0.25700000000000001          0.0000000000000000     
  0.25800000000000001          0.0000000000000000     
  0.25900000000000001          0.0000000000000000     
  0.26000000000000001          0.0000000000000000     
  0.26100000000000001          0.0000000000000000     
  0.26200000000000001          0.0000000000000000     
  0.26300000000000001          0.0000000000000000     
  0.26400000000000001          0.0000000000000000     
  0.26500000000000001          0.0000000000000000     
  0.26600000000000001          0.0000000000000000     
  0.26700000000000002          0.0000000000000000     
  0.26800000000000002          0.0000000000000000     
  0.26900000000000002          0.0000000000000000     
  0.27000000000000002          0.0000000000000000     
  0.27100000000000002          0.0000000000000000     
  0.27200000000000002          0.0000000000000000     
  0.27300000000000002          0.0000000000000000     
  0.27400000000000002          0.0000000000000000     
  0.27500000000000002          0.0000000000000000     
  0.27600000000000002          0.0000000000000000     
  0.27700000000000002          0.0000000000000000     
  0.27800000000000002          0.0000000000000000     
  0.27900000000000003          0.0000000000000000     
  0.28000000000000003          0.0000000000000000     
  0.28100000000000003          0.0000000000000000     
  0.28200000000000003          0.0000000000000000     
  0.28300000000000003          0.0000000000000000     
  0.28400000000000003          0.0000000000000000     
  0.28500000000000003          0.0000000000000000     
  0.28600000000000003          0.0000000000000000     
  0.28700000000000003          0.0000000000000000     
  0.28800000000000003          0.0000000000000000     
  0.28900000000000003          0.0000000000000000     
  0.29000000000000004          0.0000000000000000     
  0.29100000000000004          0.0000000000000000     
  0.29200000000000004          0.0000000000000000     
  0.29300000000000004          0.0000000000000000     
  0.29400000000000004          0.0000000000000000     
  0.29500000000000004          0.0000000000000000     
  0.29600000000000004          0.0000000000000000     
  0.29700000000000004          0.0000000000000000     
  0.29800000000000004          0.0000000000000000     
  0.29900000000000004          0.0000000000000000     
  0.30000000000000004          0.0000000000000000     
  0.30100000000000005          0.0000000000000000     
  0.30200000000000005          0.0000000000000000     
  0.30300000000000005          0.0000000000000000     
  0.30400000000000005          0.0000000000000000     