 -0.23999999999999999          0.0000000000000000     
 -0.23899999999999999          0.0000000000000000     
 -0.23799999999999999          0.0000000000000000     
 -0.23699999999999999          0.0000000000000000     
 -0.23599999999999999          0.0000000000000000     
 -0.23499999999999999          0.0000000000000000     
 -0.23399999999999999          0.0000000000000000     
 -0.23299999999999998          0.0000000000000000     
 -0.23199999999999998          0.0000000000000000     
 -0.23099999999999998          0.0000000000000000     
 -0.22999999999999998          0.0000000000000000     
 -0.22899999999999998          0.0000000000000000     
 -0.22799999999999998          0.0000000000000000     
 -0.22699999999999998          0.0000000000000000     
 -0.22599999999999998          0.0000000000000000     
 -0.22499999999999998          0.0000000000000000     
 -0.22399999999999998          0.0000000000000000     
 -0.22299999999999998          0.0000000000000000     
 -0.22199999999999998          0.0000000000000000     
 -0.22100000000000000          0.0000000000000000     
 -0.22000000000000000          0.0000000000000000     
 -0.21900000000000000          0.0000000000000000     
 -0.21800000000000000          0.0000000000000000     
 -0.21700000000000000          0.0000000000000000     
 -0.21600000000000000          0.0000000000000000     
 -0.21500000000000000          0.0000000000000000     
 -0.21400000000000000          0.0000000000000000     
 -0.21299999999999999          0.0000000000000000     
 -0.21199999999999999          0.0000000000000000     
 -0.21099999999999999          0.0000000000000000     
 -0.20999999999999999          0.0000000000000000     
 -0.20899999999999999          0.0000000000000000     
 -0.20799999999999999          0.0000000000000000     
 -0.20699999999999999          0.0000000000000000     
 -0.20599999999999999          0.0000000000000000     
 -0.20499999999999999          0.0000000000000000     
 -0.20399999999999999          0.0000000000000000     
 -0.20299999999999999          0.0000000000000000     
 -0.20199999999999999          0.0000000000000000     
 -0.20099999999999998          0.0000000000000000     
 -0.19999999999999998          0.0000000000000000     
 -0.19899999999999998          0.0000000000000000     
 -0.19799999999999998          0.0000000000000000     
 -0.19699999999999998          0.0000000000000000     
 -0.19600000000000001          0.0000000000000000     
 -0.19500000000000001          0.0000000000000000     
 -0.19400000000000001          0.0000000000000000     
 -0.19300000000000000          0.0000000000000000     
 -0.19200000000000000          0.0000000000000000     
 -0.19100000000000000          0.0000000000000000     
 -0.19000000000000000          0.0000000000000000     
 -0.18900000000000000          0.0000000000000000     
 -0.18800000000000000          0.0000000000000000     
 -0.18700000000000000          0.0000000000000000     
 -0.18600000000000000          0.0000000000000000     
 -0.18500000000000000          0.0000000000000000     
 -0.18400000000000000          0.0000000000000000     
 -0.18300000000000000          0.0000000000000000     
 -0.18200000000000000          0.0000000000000000     
 -0.18099999999999999          0.0000000000000000     
 -0.17999999999999999          0.0000000000000000     
 -0.17899999999999999          0.0000000000000000     
 -0.17799999999999999          0.0000000000000000     
 -0.17699999999999999          0.0000000000000000     
 -0.17599999999999999          0.0000000000000000     
 -0.17499999999999999          0.0000000000000000     
 -0.17399999999999999          0.0000000000000000     
 -0.17299999999999999          0.0000000000000000     
 -0.17199999999999999          0.0000000000000000     
 -0.17099999999999999          0.0000000000000000     
 -0.16999999999999998          0.0000000000000000     
 -0.16899999999999998          0.0000000000000000     
 -0.16799999999999998          0.0000000000000000     
 -0.16699999999999998          0.0000000000000000     
 -0.16599999999999998          0.0000000000000000     
 -0.16499999999999998          0.0000000000000000     
 -0.16399999999999998          0.0000000000000000     
 -0.16299999999999998          0.0000000000000000     
 -0.16199999999999998          0.0000000000000000     
 -0.16099999999999998          0.0000000000000000     
 -0.15999999999999998          0.0000000000000000     
 -0.15899999999999997          0.0000000000000000     
 -0.15799999999999997          0.0000000000000000     
 -0.15699999999999997          0.0000000000000000     
 -0.15599999999999997          0.0000000000000000     
 -0.15499999999999997          0.0000000000000000     
 -0.15399999999999997          0.0000000000000000     
 -0.15299999999999997          0.0000000000000000     
 -0.15200000000000000          0.0000000000000000     
 -0.15100000000000000          0.0000000000000000     
 -0.14999999999999999          0.0000000000000000     
 -0.14899999999999999          0.0000000000000000     
 -0.14799999999999999          0.0000000000000000     
 -0.14699999999999999          0.0000000000000000     
 -0.14599999999999999          0.0000000000000000     
 -0.14499999999999999          0.0000000000000000     
 -0.14399999999999999          0.0000000000000000     
 -0.14299999999999999          0.0000000000000000     
 -0.14199999999999999          0.0000000000000000     
 -0.14099999999999999          0.0000000000000000     
 -0.13999999999999999          0.0000000000000000     
 -0.13899999999999998          0.0000000000000000     
 -0.13799999999999998          0.0000000000000000     
 -0.13699999999999998          0.0000000000000000     
 -0.13599999999999998          0.0000000000000000     
 -0.13500000000000001          0.0000000000000000     
 -0.13400000000000001          0.0000000000000000     
 -0.13300000000000001          0.0000000000000000     
 -0.13200000000000001          0.0000000000000000     
 -0.13100000000000001          0.0000000000000000     
 -0.13000000000000000          0.0000000000000000     
 -0.12900000000000000          0.0000000000000000     
 -0.12800000000000000          0.0000000000000000     
 -0.12700000000000000          0.0000000000000000     
 -0.12600000000000000          0.0000000000000000     
 -0.12499999999999999          0.0000000000000000     
 -0.12399999999999999          0.0000000000000000     
 -0.12299999999999998          0.0000000000000000     
 -0.12199999999999998          0.0000000000000000     
 -0.12099999999999998          0.0000000000000000     
 -0.12000000000000000          0.0000000000000000     
 -0.11899999999999999          0.0000000000000000     
 -0.11799999999999999          0.0000000000000000     
 -0.11699999999999999          0.0000000000000000     
 -0.11599999999999999          0.0000000000000000     
 -0.11499999999999999          0.0000000000000000     
 -0.11399999999999999          0.0000000000000000     
 -0.11299999999999999          0.0000000000000000     
 -0.11199999999999999          0.0000000000000000     
 -0.11099999999999999          0.0000000000000000     
 -0.10999999999999999          0.0000000000000000     
 -0.10899999999999999          0.0000000000000000     
 -0.10799999999999998          0.0000000000000000     
 -0.10699999999999998          0.0000000000000000     
 -0.10599999999999998          0.0000000000000000     
 -0.10499999999999998          0.0000000000000000     
 -0.10399999999999998          0.0000000000000000     
 -0.10299999999999998          0.0000000000000000     
 -0.10199999999999998          0.0000000000000000     
 -0.10099999999999998          0.0000000000000000     
  -9.9999999999999978E-002     0.0000000000000000     
  -9.8999999999999977E-002     0.0000000000000000     
  -9.7999999999999976E-002     0.0000000000000000     
  -9.6999999999999975E-002     0.0000000000000000     
  -9.5999999999999974E-002     0.0000000000000000     
  -9.5000000000000001E-002     0.0000000000000000     
  -9.4000000000000000E-002     0.0000000000000000     
  -9.2999999999999999E-002     0.0000000000000000     
  -9.1999999999999998E-002     0.0000000000000000     
  -9.0999999999999998E-002     0.0000000000000000     
  -8.9999999999999997E-002     0.0000000000000000     
  -8.8999999999999996E-002     0.0000000000000000     
  -8.7999999999999995E-002     0.0000000000000000     
  -8.6999999999999994E-002     0.0000000000000000     
  -8.5999999999999993E-002     1.4012984643248171E-045
  -8.4999999999999992E-002     1.4012984643248171E-045
  -8.3999999999999991E-002     1.4012984643248171E-045
  -8.2999999999999990E-002     1.4012984643248171E-045
  -8.1999999999999990E-002     1.4012984643248171E-045
  -8.0999999999999989E-002     1.4012984643248171E-045
  -7.9999999999999988E-002     0.0000000000000000     
  -7.8999999999999987E-002    -1.4012984643248171E-045
  -7.7999999999999986E-002    -4.2038953929744512E-045
  -7.6999999999999985E-002    -7.0064923216240854E-045
  -7.5999999999999984E-002    -9.8090892502737195E-045
  -7.4999999999999983E-002    -1.1210387714598537E-044
  -7.3999999999999982E-002    -1.2611686178923354E-044
  -7.2999999999999982E-002    -9.8090892502737195E-045
  -7.1999999999999981E-002    -2.8025969286496341E-045
  -7.0999999999999980E-002     8.4077907859489024E-045
  -6.9999999999999979E-002     2.5223372357846707E-044
  -6.8999999999999978E-002     4.6242849322718963E-044
  -6.7999999999999977E-002     6.5861027823266402E-044
  -6.6999999999999976E-002     8.2676609395164207E-044
  -6.5999999999999975E-002     8.6880504788138658E-044
  -6.4999999999999974E-002     7.2867520144890488E-044
  -6.4000000000000001E-002     3.2229864679470793E-044
  -6.3000000000000000E-002    -4.2038953929744512E-044
  -6.2000000000000000E-002    -1.4853763721843061E-043
  -6.0999999999999999E-002    -2.8166099132928823E-043
  -5.9999999999999998E-002    -4.2179083776176994E-043
  -5.8999999999999997E-002    -5.3949990876505457E-043
  -5.7999999999999996E-002    -5.9274925040939762E-043
  -5.6999999999999995E-002    -5.3109211797910567E-043
  -5.5999999999999994E-002    -3.0548306522281012E-043
  -5.4999999999999993E-002     1.2191296639625909E-043
  -5.3999999999999992E-002     7.6230636459270049E-043
  -5.2999999999999992E-002     1.5792633692940688E-042
  -5.1999999999999991E-002     2.4788969833906014E-042
  -5.0999999999999990E-002     3.2902487942346705E-042
  -4.9999999999999989E-002     3.7736967644267324E-042
  -4.8999999999999988E-002     3.6363695149229003E-042
  -4.7999999999999987E-002     2.5699813835717145E-042
  -4.6999999999999986E-002     3.2089734833038311E-043
  -4.5999999999999985E-002    -3.2285916618043785E-042
  -4.4999999999999984E-002    -7.9551713819719865E-042
  -4.3999999999999984E-002    -1.3399215915873901E-041
  -4.2999999999999983E-002    -1.8693321514093060E-041
  -4.1999999999999982E-002    -2.2548293589450631E-041
  -4.0999999999999981E-002    -2.3324612938686580E-041
  -3.9999999999999980E-002    -1.9232821422858114E-041
  -3.8999999999999979E-002    -8.6488141218127710E-042
  -3.7999999999999978E-002     9.4237321725843948E-042
  -3.6999999999999977E-002     3.4816661644614405E-041
  -3.5999999999999976E-002     6.5645227859760381E-041
  -3.4999999999999976E-002     9.7852671763801976E-041
  -3.3999999999999975E-002     1.2502665158398883E-040
  -3.2999999999999974E-002     1.3863606226951145E-040
  -3.1999999999999973E-002     1.2884518989927396E-040
  -3.1000000000000000E-002     8.6029916620293494E-041
  -2.9999999999999999E-002     2.9707527443686122E-042
  -2.8999999999999998E-002    -1.2239781566491547E-040
  -2.7999999999999997E-002    -2.8402778443553285E-040
  -2.6999999999999996E-002    -4.6512879536794356E-040
  -2.5999999999999995E-002    -6.3657906377654925E-040
  -2.4999999999999994E-002    -7.5721124337641545E-040
  -2.3999999999999994E-002    -7.7681540889231964E-040
  -2.2999999999999993E-002    -6.4244910304360591E-040
  -2.1999999999999992E-002    -3.0830528032996030E-040
  -2.0999999999999991E-002     2.5132568217358459E-040
  -1.9999999999999990E-002     1.0272722860180228E-039
  -1.8999999999999989E-002     1.9611494306872610E-039
  -1.7999999999999988E-002     2.9346356777491044E-039
  -1.6999999999999987E-002     3.7662376527011314E-039
  -1.5999999999999986E-002     4.2195857318794962E-039
  -1.4999999999999986E-002     4.0267194190406143E-039
  -1.3999999999999985E-002     2.9283130190780708E-039
  -1.2999999999999984E-002     7.3015917652262486E-040
  -1.1999999999999983E-002    -2.6283398594169858E-039
  -1.0999999999999982E-002    -7.0022477885756455E-039
  -9.9999999999999811E-003    -1.1978665011947725E-038
  -8.9999999999999802E-003    -1.6840453218341106E-038
  -7.9999999999999793E-003    -2.0574644576461593E-038
  -6.9999999999999785E-003    -2.1943096604782637E-038
  -5.9999999999999776E-003    -1.9628089884585608E-038
  -4.9999999999999767E-003    -1.2456097207832441E-038
  -3.9999999999999758E-003     3.1100978636610720E-040
  -2.9999999999999749E-003     1.8645737622139982E-038
  -1.9999999999999740E-003     4.1433528533426832E-038
  -9.9999999999997313E-004     6.6225987600509015E-038
   0.0000000000000000          8.9147222763255053E-038
   1.0000000000000009E-003     1.0503442728695609E-037
   2.0000000000000018E-003     1.0788188818723955E-037
   3.0000000000000027E-003     9.1627756463251986E-038
   4.0000000000000036E-003     5.1273824700501065E-038
   5.0000000000000044E-003    -1.5738696313750362E-038
   6.0000000000000053E-003    -1.0805239818437860E-037
   7.0000000000000062E-003    -2.1905191761582343E-037
   8.0000000000000071E-003    -3.3596009610000172E-037
   9.0000000000000080E-003    -4.3971292944264948E-037
   1.0000000000000009E-002    -5.0594174766605643E-037
   1.1000000000000010E-002    -5.0731546857660333E-037
   1.2000000000000011E-002    -4.1734304917367668E-037
   1.3000000000000012E-002    -2.1550840374234055E-037
   1.4000000000000012E-002     1.0668067272284489E-037
   1.5000000000000013E-002     5.3947112048940348E-037
   1.6000000000000014E-002     1.0495239415381575E-036
   1.7000000000000015E-002     1.5767428257203185E-036
   1.8000000000000016E-002     2.0346527255506095E-036
   1.9000000000000017E-002     2.3155925750589930E-036
   2.0000000000000018E-002     2.3015942984444264E-036
   2.1000000000000019E-002     1.8811437746378139E-036
   2.2000000000000020E-002     9.7105239341629005E-037
   2.3000000000000020E-002    -4.5849665152327306E-037
   2.4000000000000021E-002    -2.3589233243858661E-036
   2.5000000000000022E-002    -4.5825743978606387E-036
   2.6000000000000023E-002    -6.8715214059347602E-036
   2.7000000000000024E-002    -8.8611532144235419E-036
   2.8000000000000025E-002    -1.0103209645875216E-035
   2.9000000000000026E-002    -1.0111252426437178E-035
   3.0000000000000027E-002    -8.4287809365395133E-036
   3.1000000000000028E-002    -4.7164924339358088E-036
   3.2000000000000028E-002     1.1493024906490012E-036
   3.3000000000000029E-002     8.9796138298192133E-036
   3.4000000000000030E-002     1.8193660722455739E-035
   3.5000000000000031E-002     2.7776954468804693E-035
   3.6000000000000032E-002     3.6296134536945102E-035
   3.7000000000000033E-002     4.1987398343159192E-035
   3.8000000000000034E-002     4.2928875760756134E-035
   3.9000000000000035E-002     3.7297124225911676E-035
   4.0000000000000036E-002     2.3694341480338330E-035
   4.1000000000000036E-002     1.5170215927236851E-036
   4.2000000000000037E-002    -2.8679278396586526E-035
   4.3000000000000038E-002    -6.4878535094662712E-035
   4.4000000000000039E-002    -1.0343472110304119E-034
   4.5000000000000040E-002    -1.3910362781080498E-034
   4.6000000000000041E-002    -1.6533603550803948E-034
   4.7000000000000042E-002    -1.7486982274731114E-034
   4.8000000000000043E-002    -1.6062418578891334E-034
   4.8999999999999988E-002    -1.1685277100837423E-034
   4.9999999999999989E-002    -4.0459206899482885E-035
   5.0999999999999990E-002     6.7676469936952701E-035
   5.1999999999999991E-002     2.0155990411908601E-034
   5.2999999999999992E-002     3.4936475004043132E-034
   5.3999999999999992E-002     4.9337325430384951E-034
   5.4999999999999993E-002     6.1078530348382590E-034
   5.5999999999999994E-002     6.7553846590707743E-034
   5.6999999999999995E-002     6.6117240965434247E-034
   5.7999999999999996E-002     5.4462549676592243E-034
   5.8999999999999997E-002     3.1067964421460255E-034
   5.9999999999999998E-002    -4.3408297228730417E-035
   6.0999999999999999E-002    -5.0371310465177390E-034
   6.2000000000000000E-002    -1.0366252134714849E-033
   6.3000000000000000E-002    -1.5877929332304584E-033
   6.4000000000000001E-002    -2.0837439180759666E-033
   6.5000000000000002E-002    -2.4367208107279061E-033
   6.6000000000000003E-002    -2.5529632430288144E-033
   6.7000000000000004E-002    -2.3442354865991010E-033
   6.8000000000000005E-002    -1.7418840795759365E-033
   6.9000000000000006E-002    -7.1216067098270924E-034
   7.0000000000000007E-002     7.2898791853247837E-034
   7.1000000000000008E-002     2.5038681704537446E-033
   7.2000000000000008E-002     4.4661522980210751E-033
   7.3000000000000009E-002     6.4015218293873986E-033
   7.4000000000000010E-002     8.0377960067366068E-033
   7.5000000000000011E-002     9.0657408372757422E-033
   7.6000000000000012E-002     9.1705905252652747E-033
   7.7000000000000013E-002     8.0728962680521603E-033
   7.8000000000000014E-002     5.5756962729744475E-033
   7.9000000000000015E-002     1.6133606700448124E-033
   8.0000000000000016E-002    -3.7039129044639479E-033
   8.1000000000000016E-002    -1.0056980856710452E-032
   8.2000000000000017E-002    -1.6903288442613895E-032
   8.3000000000000018E-002    -2.3487752457819766E-032
   8.4000000000000019E-002    -2.8884050293101486E-032
   8.5000000000000020E-002    -3.2068693710877473E-032
   8.6000000000000021E-002    -3.2026678604043208E-032
   8.7000000000000022E-002    -2.7883096282225169E-032
   8.8000000000000023E-002    -1.9050558095789214E-032
   8.9000000000000024E-002    -5.3776746986868327E-033
   9.0000000000000024E-002     1.2719676130046542E-032
   9.1000000000000025E-002     3.4164888134509563E-032
   9.2000000000000026E-002     5.7185725419975086E-032
   9.3000000000000027E-002     7.9356371722529004E-032
   9.4000000000000028E-002     9.7729830378565195E-032
   9.5000000000000029E-002     1.0906603341166640E-031
   9.6000000000000030E-002     1.1015087363815327E-031
   9.7000000000000031E-002     9.8189466302151972E-032
   9.8000000000000032E-002     7.1243779744933544E-032
   9.9000000000000032E-002     2.8673633865568419E-032
  0.10000000000000003         -2.8470452605764664E-032
  0.10100000000000003         -9.7159292440450089E-032
  0.10200000000000004         -1.7225956352190035E-031
  0.10300000000000004         -2.4662238234489048E-031
  0.10400000000000004         -3.1142423558086299E-031
  0.10500000000000004         -3.5677868676694456E-031
  0.10600000000000004         -3.7261005660472299E-031
  0.10700000000000004         -3.4975017094450794E-031
  0.10800000000000004         -2.8118499605426489E-031
  0.10900000000000004         -1.6334638936173386E-031
  0.11000000000000004          2.6831913030396231E-033
  0.11100000000000004          2.1020432133240415E-031
  0.11199999999999999          4.4632928051569442E-031
  0.11299999999999999          6.9195432643357325E-031
  0.11399999999999999          9.2239706347442367E-031
  0.11499999999999999          1.1087747020628355E-030
  0.11599999999999999          1.2201393441478738E-030
  0.11699999999999999          1.2263082444614411E-030
  0.11799999999999999          1.1012440150537276E-030
  0.11899999999999999          8.2675197820451355E-031
  0.12000000000000000          3.9618118687684658E-031
  0.12100000000000000         -1.8224934944809795E-031
  0.12200000000000000         -8.8292057775008088E-031
  0.12300000000000000         -1.6615052173166562E-030
  0.12400000000000000         -2.4552781842913361E-030
  0.12500000000000000         -3.1853591057565418E-030
  0.12600000000000000         -3.7610816322356101E-030
  0.12700000000000000         -4.0865103783737516E-030
  0.12800000000000000         -4.0689215974617198E-030
  0.12900000000000000         -3.6288413389545447E-030
  0.13000000000000000         -2.7109865737307945E-030
  0.13100000000000001         -1.2952422424591981E-030
  0.13200000000000001          5.9338931319622057E-031
  0.13300000000000001          2.8770451812081806E-030
  0.13400000000000001          5.4206983473480092E-030
  0.13500000000000001          8.0324436694513099E-030
  0.13600000000000001          1.0469351416107091E-029
  0.13700000000000001          1.2449536913513592E-029
  0.13800000000000001          1.3670649472944399E-029
  0.13900000000000001          1.3834440786917919E-029
  0.14000000000000001          1.2676385129888950E-029
  0.14100000000000001          9.9987052952129988E-030
  0.14200000000000002          5.7044051314330931E-030
  0.14300000000000002         -1.7064351739827688E-031
  0.14400000000000002         -7.4310073451073263E-030
  0.14500000000000002         -1.5704055336025057E-029
  0.14600000000000002         -2.4435016493028773E-029
  0.14700000000000002         -3.2897982993638237E-029
  0.14800000000000002         -4.0225336939601919E-029
  0.14900000000000002         -4.5456936049800944E-029
  0.15000000000000002         -4.7608834752710027E-029
  0.15100000000000002         -4.5759529736719560E-029
  0.15200000000000002         -3.9149650898881962E-029
  0.15300000000000002         -2.7288889577277160E-029
  0.15400000000000003         -1.0061990149479348E-029
  0.15500000000000003          1.2176077430902141E-029
  0.15600000000000003          3.8526757006618520E-029
  0.15700000000000003          6.7507846873938296E-029
  0.15800000000000003          9.7057546492479638E-029
  0.15900000000000003          1.2459189885043449E-028
  0.16000000000000003          1.4712216160066767E-028
  0.16100000000000003          1.6143442109288976E-028
  0.16200000000000003          1.6432903361399301E-028
  0.16300000000000003          1.5291153108762001E-028
  0.16400000000000003          1.2492013749826884E-028
  0.16500000000000004          7.9068758958795234E-029
  0.16600000000000004          1.5378822944463277E-029
  0.16700000000000004         -6.4532273072797865E-029
  0.16800000000000004         -1.5724002252644386E-028
  0.16900000000000004         -2.5741462043007240E-028
  0.17000000000000004         -3.5786799669315100E-028
  0.17100000000000004         -4.4977354215818003E-028
  0.17200000000000004         -5.2307568769602207E-028
  0.17300000000000004         -5.6709512769092561E-028
  0.17400000000000004         -5.7131878835546404E-028
  0.17500000000000004         -5.2634606118633743E-028
  0.17600000000000005         -4.2494387553615646E-028
  0.17699999999999999         -2.6314394905100847E-028
  0.17799999999999999         -4.1297053759077115E-029
  0.17899999999999999          2.3501251628057604E-028
  0.17999999999999999          5.5430026025363762E-028
  0.18099999999999999          8.9886973475491906E-028
  0.18200000000000000          1.2449576124243554E-027
  0.18300000000000000          1.5634184102275457E-027
  0.18400000000000000          1.8210058587960026E-027
  0.18500000000000000          1.9822701360153679E-027
  0.18600000000000000          2.0120421240606779E-027
  0.18700000000000000          1.8784241860070025E-027
  0.18800000000000000          1.5561458098680478E-027
  0.18900000000000000          1.0300870011329158E-027
  0.19000000000000000          2.9871717512655317E-028
  0.19100000000000000         -6.2285224402839438E-028
  0.19200000000000000         -1.7005235333350259E-027
  0.19300000000000000         -2.8799195052610259E-027
  0.19400000000000001         -4.0864620375321474E-027
  0.19500000000000001         -5.2270990545133433E-027
  0.19600000000000001         -6.1938912346924475E-027
  0.19700000000000001         -6.8695440518524332E-027
  0.19800000000000001         -7.1348586202472633E-027
  0.19900000000000001         -6.8779025878110738E-027
  0.20000000000000001         -6.0045237877245837E-027
  0.20100000000000001         -4.4496566027466145E-027
  0.20200000000000001         -2.1886909222688029E-027
  0.20300000000000001          7.5197106528723537E-028
  0.20400000000000001          4.2861805875791149E-027
  0.20500000000000002          8.2621693575712661E-027
  0.20600000000000002          1.2460599569466243E-026
  0.20700000000000002          1.6597479371454537E-026
  0.20800000000000002          2.0332724972468340E-026
  0.20900000000000002          2.3284848939495404E-026
  0.21000000000000002          2.5051905070910248E-026
  0.21100000000000002          2.5238353578454399E-026
  0.21200000000000002          2.3486977598274778E-026
  0.21300000000000002          1.9514463591088290E-026
  0.21400000000000002          1.3148661153257916E-026
  0.21500000000000002          4.3650416410119391E-027
  0.21600000000000003         -6.6805818205448684E-027
  0.21700000000000003         -1.9626264594731947E-026
  0.21800000000000003         -3.3888453760259853E-026
  0.21900000000000003         -4.8660052936822138E-026
  0.22000000000000003         -6.2924864448562321E-026
  0.22100000000000003         -7.5490672948658573E-026
  0.22200000000000003         -8.5042213115026228E-026
  0.22300000000000003         -9.0214102306195800E-026
  0.22400000000000003         -8.9682354589294440E-026
  0.22500000000000003         -8.2271320696509958E-026
  0.22600000000000003         -6.7071524122808214E-026
  0.22700000000000004         -4.3561623335963361E-026
  0.22800000000000004         -1.1726693919650354E-026
  0.22900000000000004          2.7836753548175526E-026
  0.23000000000000004          7.3839075547037766E-026
  0.23100000000000004          1.2424984502562657E-025
  0.23200000000000004          1.7629420369048418E-025
  0.23300000000000004          2.2650242696868166E-025
  0.23400000000000004          2.7081935072502712E-025
  0.23500000000000004          3.0477806240965822E-025
  0.23600000000000004          3.2373727423480385E-025
  0.23700000000000004          3.2317925375197313E-025
  0.23800000000000004          2.9905781011877107E-025
  0.23900000000000005          2.4818237075212798E-025
  0.23999999999999999          1.6861768728821371E-025
  0.24099999999999999          6.0074408012183526E-026
  0.24199999999999999         -7.5738812844181335E-026
  0.24299999999999999         -2.3483343907730104E-025
  0.24399999999999999         -4.1076344787455763E-025
  0.24500000000000000         -5.9458329831918875E-025
  0.24600000000000000         -7.7497212151607752E-025
  0.24700000000000000         -9.3854637451818042E-025
  0.24800000000000000         -1.0703766674789635E-024
  0.24900000000000000         -1.1547125049571709E-024
  0.25000000000000000         -1.1759054503911597E-024
  0.25100000000000000         -1.1195050511114782E-024
  0.25200000000000000         -9.7348798223881361E-025
  0.25300000000000000         -7.2956040673470502E-025
  0.25400000000000000         -3.8446208573739045E-025
  0.25500000000000000          5.8818399702627768E-026
  0.25600000000000001          5.9001283544956451E-025
  0.25700000000000001          1.1908325722625911E-024
  0.25800000000000001          1.8346226472667509E-024
  0.25900000000000001          2.4865073226269967E-024
  0.26000000000000001          3.1041124417813160E-024
  0.26100000000000001          3.6389226646281640E-024
  0.26200000000000001          4.0383075581539105E-024
  0.26300000000000001          4.2482056956628542E-024
  0.26400000000000001          4.2164201232087840E-024
  0.26500000000000001          3.8964171192840701E-024
  0.26600000000000001          3.2514791530552006E-024
  0.26700000000000002          2.2590124593357404E-024
  0.26800000000000002          9.1475265328729111E-025
  0.26900000000000002         -7.6341841539440400E-025
  0.27000000000000002         -2.7323613457654616E-024
  0.27100000000000002         -4.9216069466434557E-024
  0.27200000000000002         -7.2326435993871640E-024
  0.27300000000000002         -9.5398661096541287E-024
  0.27400000000000002         -1.1693426404193093E-023
  0.27500000000000002         -1.3524161939349367E-023
  0.27600000000000002         -1.4850667839080138E-023
  0.27700000000000002         -1.5488466614116758E-023
  0.27800000000000002         -1.5261080613630422E-023
  0.27900000000000003         -1.4012667210351099E-023
  0.28000000000000003         -1.1621708692716735E-023
  0.28100000000000003         -8.0151068426668334E-024
  0.28200000000000003         -3.1818872245031871E-024
  0.28300000000000003          2.8144216153549458E-024
  0.28400000000000003          9.8257114363827728E-024
  0.28500000000000003          1.7612564531567527E-023
  0.28600000000000003          2.5841890497351653E-023
  0.28700000000000003          3.4089838313664425E-023
  0.28800000000000003          4.1850774961529954E-023
  0.28900000000000003          4.8552864637084390E-023
  0.29000000000000004          5.3580492911667739E-023
  0.29100000000000004          5.6303394631888243E-023
  0.29200000000000004          5.6111991732732658E-023
  0.29300000000000004          5.2457827092124266E-023
  0.29400000000000004          4.4897715498066282E-023
  0.29500000000000004          3.3139611177115024E-023
  0.29600000000000004          1.7087711705496832E-023
  0.29700000000000004         -3.1158469449617048E-024
  0.29800000000000004         -2.7055862233509026E-023
  0.29900000000000004         -5.4018689367299907E-023
  0.30000000000000004         -8.2979698018571989E-023
  0.30100000000000005         -1.1260667566780613E-022
  0.30200000000000005         -1.4128160548952163E-022
  0.30300000000000005         -1.6714290196514172E-022
  0.30400000000000005         -1.8814911928969926E-022