  -6.6666666666666666E-002     0.0000000000000000     
  -6.6266666666666668E-002     0.0000000000000000     
  -6.5866666666666671E-002     0.0000000000000000     
  -6.5466666666666659E-002     0.0000000000000000     
  -6.5066666666666662E-002     0.0000000000000000     
  -6.4666666666666664E-002     0.0000000000000000     
  -6.4266666666666666E-002     0.0000000000000000     
  -6.3866666666666669E-002     0.0000000000000000     
  -6.3466666666666671E-002     0.0000000000000000     
  -6.3066666666666660E-002     0.0000000000000000     
  -6.2666666666666662E-002     0.0000000000000000     
  -6.2266666666666665E-002     0.0000000000000000     
  -6.1866666666666667E-002     0.0000000000000000     
  -6.1466666666666663E-002     0.0000000000000000     
  -6.1066666666666665E-002     0.0000000000000000     
  -6.0666666666666667E-002     0.0000000000000000     
  -6.0266666666666663E-002     0.0000000000000000     
  -5.9866666666666665E-002     0.0000000000000000     
  -5.9466666666666668E-002     0.0000000000000000     
  -5.9066666666666663E-002     0.0000000000000000     
  -5.8666666666666666E-002     0.0000000000000000     
  -5.8266666666666661E-002     0.0000000000000000     
  -5.7866666666666663E-002     0.0000000000000000     
  -5.7466666666666666E-002     0.0000000000000000     
  -5.7066666666666668E-002     0.0000000000000000     
  -5.6666666666666664E-002     0.0000000000000000     
  -5.6266666666666666E-002     0.0000000000000000     
  -5.5866666666666662E-002     0.0000000000000000     
  -5.5466666666666664E-002     0.0000000000000000     
  -5.5066666666666667E-002     0.0000000000000000     
  -5.4666666666666669E-002     0.0000000000000000     
  -5.4266666666666664E-002     0.0000000000000000     
  -5.3866666666666667E-002     0.0000000000000000     
  -5.3466666666666662E-002     0.0000000000000000     
  -5.3066666666666665E-002     0.0000000000000000     
  -5.2666666666666667E-002     0.0000000000000000     
  -5.2266666666666663E-002     0.0000000000000000     
  -5.1866666666666665E-002     0.0000000000000000     
  -5.1466666666666668E-002     0.0000000000000000     
  -5.1066666666666663E-002     0.0000000000000000     
  -5.0666666666666665E-002     0.0000000000000000     
  -5.0266666666666668E-002     0.0000000000000000     
  -4.9866666666666663E-002     0.0000000000000000     
  -4.9466666666666666E-002     0.0000000000000000     
  -4.9066666666666661E-002     0.0000000000000000     
  -4.8666666666666664E-002     0.0000000000000000     
  -4.8266666666666666E-002     0.0000000000000000     
  -4.7866666666666668E-002     0.0000000000000000     
  -4.7466666666666664E-002     0.0000000000000000     
  -4.7066666666666666E-002     0.0000000000000000     
  -4.6666666666666662E-002     0.0000000000000000     
  -4.6266666666666664E-002     0.0000000000000000     
  -4.5866666666666667E-002     0.0000000000000000     
  -4.5466666666666669E-002     0.0000000000000000     
  -4.5066666666666665E-002     0.0000000000000000     
  -4.4666666666666660E-002     0.0000000000000000     
  -4.4266666666666662E-002     0.0000000000000000     
  -4.3866666666666665E-002     0.0000000000000000     
  -4.3466666666666667E-002     0.0000000000000000     
  -4.3066666666666670E-002     0.0000000000000000     
  -4.2666666666666665E-002     0.0000000000000000     
  -4.2266666666666661E-002     0.0000000000000000     
  -4.1866666666666663E-002     0.0000000000000000     
  -4.1466666666666666E-002     0.0000000000000000     
  -4.1066666666666668E-002     0.0000000000000000     
  -4.0666666666666663E-002     0.0000000000000000     
  -4.0266666666666666E-002     0.0000000000000000     
  -3.9866666666666661E-002     0.0000000000000000     
  -3.9466666666666664E-002     0.0000000000000000     
  -3.9066666666666666E-002     0.0000000000000000     
  -3.8666666666666669E-002     0.0000000000000000     
  -3.8266666666666664E-002     0.0000000000000000     
  -3.7866666666666660E-002     0.0000000000000000     
  -3.7466666666666662E-002     0.0000000000000000     
  -3.7066666666666664E-002     0.0000000000000000     
  -3.6666666666666667E-002     0.0000000000000000     
  -3.6266666666666669E-002     0.0000000000000000     
  -3.5866666666666665E-002     0.0000000000000000     
  -3.5466666666666660E-002     0.0000000000000000     
  -3.5066666666666663E-002     0.0000000000000000     
  -3.4666666666666665E-002     0.0000000000000000     
  -3.4266666666666667E-002     0.0000000000000000     
  -3.3866666666666663E-002     0.0000000000000000     
  -3.3466666666666665E-002     0.0000000000000000     
  -3.3066666666666661E-002     0.0000000000000000     
  -3.2666666666666663E-002     0.0000000000000000     
  -3.2266666666666666E-002     0.0000000000000000     
  -3.1866666666666661E-002     0.0000000000000000     
  -3.1466666666666664E-002     0.0000000000000000     
  -3.1066666666666666E-002     0.0000000000000000     
  -3.0666666666666662E-002    -2.4163483448773060E-038
  -3.0266666666666664E-002    -5.8070587483566584E-038
  -2.9866666666666666E-002    -9.0984448364249749E-038
  -2.9466666666666662E-002    -1.0925259350349123E-037
  -2.9066666666666664E-002    -9.6365255101053613E-038
  -2.8666666666666667E-002    -3.6184051488699490E-038
  -2.8266666666666662E-002     7.8483560052303630E-038
  -2.7866666666666665E-002     2.4514156147392803E-037
  -2.7466666666666667E-002     4.3456911030213223E-037
  -2.7066666666666662E-002     5.9497585761727118E-037
  -2.6666666666666665E-002     6.4817013383716012E-037
  -2.6266666666666660E-002     5.0892707391445402E-037
  -2.5866666666666663E-002     9.9557390582010117E-038
  -2.5466666666666665E-002    -6.1190174940428064E-037
  -2.5066666666666661E-002    -1.5890954174183821E-036
  -2.4666666666666663E-002    -2.6797814812007990E-036
  -2.4266666666666666E-002    -3.6101093162261058E-036
  -2.3866666666666661E-002    -3.9792750964145833E-036
  -2.3466666666666663E-002    -3.3232600677793997E-036
  -2.3066666666666666E-002    -1.2180166966702855E-036
  -2.2666666666666661E-002     2.5746669669040098E-036
  -2.2266666666666664E-002     7.9219171569047066E-036
  -2.1866666666666666E-002     1.4141323314199336E-035
  -2.1466666666666662E-002     1.9883626132332858E-035
  -2.1066666666666664E-002     2.3162437461239383E-035
  -2.0666666666666667E-002     2.1577072681486216E-035
  -2.0266666666666662E-002     1.2800945504673513E-035
  -1.9866666666666664E-002    -4.7027780940212775E-036
  -1.9466666666666667E-002    -3.0795156748629624E-035
  -1.9066666666666662E-002    -6.2784995727060045E-035
  -1.8666666666666665E-002    -9.4825522159651168E-035
  -1.8266666666666660E-002    -1.1789829517325892E-034
  -1.7866666666666663E-002    -1.2069709671304390E-034
  -1.7466666666666665E-002    -9.1606946306646521E-035
  -1.7066666666666661E-002    -2.1801732438610839E-035
  -1.6666666666666663E-002     9.0872830569515069E-035
  -1.6266666666666665E-002     2.3791978109994252E-034
  -1.5866666666666661E-002     3.9714898570221597E-034
  -1.5466666666666663E-002     5.3188277066102420E-034
  -1.5066666666666666E-002     5.9372314073488464E-034
  -1.4666666666666661E-002     5.2981385468582889E-034
  -1.4266666666666664E-002     2.9478985340961419E-034
  -1.3866666666666666E-002    -1.3359034119614508E-034
  -1.3466666666666662E-002    -7.3758179242744703E-034
  -1.3066666666666664E-002    -1.4452410088127281E-033
  -1.2666666666666666E-002    -2.1238293774649605E-033
  -1.2266666666666662E-002    -2.5859935322609667E-033
  -1.1866666666666664E-002    -2.6128638637528257E-033
  -1.1466666666666660E-002    -1.9956362083780206E-033
  -1.1066666666666662E-002    -5.9312171007054595E-034
  -1.0666666666666665E-002     1.6024331643569731E-033
  -1.0266666666666660E-002     4.4043650088639940E-033
  -9.8666666666666625E-003     7.3928955613045141E-033
  -9.4666666666666649E-003     9.9178970998051280E-033
  -9.0666666666666604E-003     1.1159922226832049E-032
  -8.6666666666666628E-003     1.0258744911137497E-032
  -8.2666666666666652E-003     6.5057316076397022E-033
  -7.8666666666666607E-003    -4.2085484966746288E-034
  -7.4666666666666631E-003    -1.0217449059909141E-032
  -7.0666666666666655E-003    -2.1770161254700519E-032
  -6.6666666666666610E-003    -3.3089096275788145E-032
  -6.2666666666666634E-003    -4.1425088016021503E-032
  -5.8666666666666659E-003    -4.3612788797393354E-032
  -5.4666666666666613E-003    -3.6647053189498274E-032
  -5.0666666666666638E-003    -1.8446899134971752E-032
  -4.6666666666666662E-003     1.1300200579871396E-032
  -4.2666666666666617E-003     5.0380224385776469E-032
  -3.8666666666666571E-003     9.3589051610773867E-032
  -3.4666666666666596E-003     1.3278060925942084E-031
  -3.0666666666666620E-003     1.5760507511827817E-031
  -2.6666666666666644E-003     1.5702177131151313E-031
  -2.2666666666666668E-003     1.2152480416244412E-031
  -1.8666666666666692E-003     4.5834946256923684E-032
  -1.4666666666666578E-003    -6.8381327573774438E-032
  -1.0666666666666602E-003    -2.1036527001891873E-031
  -6.6666666666666263E-004    -3.5937173326531046E-031
  -2.6666666666666505E-004    -4.8566254400833302E-031
   1.3333333333333253E-004    -5.5382104487296558E-031
   5.3333333333334398E-004    -5.2845514631611951E-031
   9.3333333333334156E-004    -3.8185428523891156E-031
   1.3333333333333391E-003    -1.0259185721519055E-031
   1.7333333333333367E-003     2.9647340505139851E-031
   2.1333333333333343E-003     7.7272179096218809E-031
   2.5333333333333319E-003     1.2528272089368958E-030
   2.9333333333333433E-003     1.6380192163454191E-030
   3.3333333333333409E-003     1.8164393224160524E-030
   3.7333333333333385E-003     1.6822469561962375E-030
   4.1333333333333361E-003     1.1595933917189404E-030
   4.5333333333333337E-003     2.2796937937728525E-031
   4.9333333333333312E-003    -1.0559374535074985E-030
   5.3333333333333427E-003    -2.5454967174401102E-030
   5.7333333333333403E-003    -4.0059305227435279E-030
   6.1333333333333379E-003    -5.1347022645048118E-030
   6.5333333333333354E-003    -5.6019197034764260E-030
   6.9333333333333330E-003    -5.1084855431368406E-030
   7.3333333333333445E-003    -3.4554309076884718E-030
   7.7333333333333421E-003    -6.1368450528181156E-031
   8.1333333333333396E-003     3.2196496865632490E-030
   8.5333333333333372E-003     7.5936912493628237E-030
   8.9333333333333348E-003     1.1818566152545877E-029
   9.3333333333333324E-003     1.5031643979332096E-029
   9.7333333333333438E-003     1.6316567262182036E-029
   1.0133333333333341E-002     1.4866287847278762E-029
   1.0533333333333339E-002     1.0170250734161831E-029
   1.0933333333333337E-002     2.1957145495393729E-030
   1.1333333333333334E-002    -8.4736689534957340E-030
   1.1733333333333332E-002    -2.0580364005834940E-029
   1.2133333333333343E-002    -3.2249227473340320E-029
   1.2533333333333341E-002    -4.1176707211677218E-029
   1.2933333333333338E-002    -4.4951478745162052E-029
   1.3333333333333336E-002    -4.1479379139499824E-029
   1.3733333333333334E-002    -2.9458690400872430E-029
   1.4133333333333345E-002    -8.8287058632632911E-030
   1.4533333333333343E-002     1.8899657605515116E-029
   1.4933333333333340E-002     5.0522583193370090E-029
   1.5333333333333338E-002     8.1305768718918542E-029
   1.5733333333333335E-002     1.0546971358154035E-028
   1.6133333333333333E-002     1.1698612464761979E-028
   1.6533333333333344E-002     1.1061312616514521E-028
   1.6933333333333342E-002     8.3035789458244062E-029
   1.7333333333333339E-002     3.3927913151851306E-029
   1.7733333333333337E-002    -3.3276864571213354E-029
   1.8133333333333335E-002    -1.1111160498300123E-028
   1.8533333333333332E-002    -1.8846339137784417E-028
   1.8933333333333344E-002    -2.5170106036055601E-028
   1.9333333333333341E-002    -2.8650651446377075E-028
   1.9733333333333339E-002    -2.8023828657027083E-028
   2.0133333333333336E-002    -2.2452315550558970E-028
   2.0533333333333334E-002    -1.1766603810329925E-028
   2.0933333333333332E-002     3.3586788828982793E-029
   2.1333333333333343E-002     2.1337818410340965E-028
   2.1733333333333341E-002     3.9751167570615813E-028
   2.2133333333333338E-002     5.5582882270224916E-028
   2.2533333333333336E-002     6.5610900971507873E-028
   2.2933333333333333E-002     6.6912627391269484E-028
   2.3333333333333345E-002     5.7422328330459443E-028
   2.3733333333333342E-002     3.6454813285350673E-028
   2.4133333333333340E-002     5.0991438801269011E-029
   2.4533333333333338E-002    -3.3609990868134691E-028
   2.4933333333333335E-002    -7.4814997212932249E-028
   2.5333333333333333E-002    -1.1228723354706652E-027
   2.5733333333333344E-002    -1.3919362079847311E-027
   2.6133333333333342E-002    -1.4910767259529696E-027
   2.6533333333333339E-002    -1.3714065651495410E-027
   2.6933333333333337E-002    -1.0102634042153380E-027
   2.7333333333333334E-002    -4.1971097943251052E-028
   2.7733333333333332E-002     3.4912352844777950E-028
   2.8133333333333344E-002     1.2073135783243569E-027
   2.8533333333333341E-002     2.0357520550130348E-027
   2.8933333333333339E-002     2.6989587425004124E-027
   2.9333333333333336E-002     3.0638629557265120E-027
   2.9733333333333334E-002     3.0213403484843862E-027
   3.0133333333333345E-002     2.5074748911166614E-027
   3.0533333333333343E-002     1.5210864700499143E-027
   3.0933333333333340E-002     1.3412746689458735E-028
   3.1333333333333338E-002    -1.5078175831050640E-027
   3.1733333333333336E-002    -3.1965240917838158E-027
   3.2133333333333333E-002    -4.6836066316251207E-027
   3.2533333333333345E-002    -5.7126460231647871E-027
   3.2933333333333342E-002    -6.0573335571716594E-027
   3.3333333333333340E-002    -5.5605306835532389E-027
   3.3733333333333337E-002    -4.1682909490092723E-027
   3.4133333333333335E-002    -1.9528679265193801E-027
   3.4533333333333333E-002     8.8035278500811076E-028
   3.4933333333333344E-002     4.0052147568982275E-027
   3.5333333333333342E-002     7.0070939684805696E-027
   3.5733333333333339E-002     9.4327827037648715E-027
   3.6133333333333337E-002     1.0852592125462741E-026
   3.6533333333333334E-002     1.0926782798780426E-026
   3.6933333333333346E-002     9.4668215896019715E-027
   3.7333333333333343E-002     6.4816440424973555E-027
   3.7733333333333341E-002     2.2002420722962542E-027
   3.8133333333333339E-002    -2.9354752656228090E-027
   3.8533333333333336E-002    -8.3097999162118957E-027
   3.8933333333333334E-002    -1.3201992464533932E-026
   3.9333333333333345E-002    -1.6877700637618925E-026
   3.9733333333333343E-002    -1.8691934348951478E-026
   4.0133333333333340E-002    -1.8189684175078353E-026
   4.0533333333333338E-002    -1.5189301025876811E-026
   4.0933333333333335E-002    -9.8348891427617272E-027
   4.1333333333333333E-002    -2.6073179883286123E-027
   4.1733333333333344E-002     5.7114122724424126E-027
   4.2133333333333342E-002     1.4119305193325795E-026
   4.2533333333333340E-002     2.1513152087286565E-026
   4.2933333333333337E-002     2.6830995953361579E-026
   4.3333333333333335E-002     2.9199855888590858E-026
   4.3733333333333346E-002     2.8068151719877719E-026
   4.4133333333333344E-002     2.3303105214624240E-026
   4.4533333333333341E-002     1.5237128799743746E-026
   4.4933333333333339E-002     4.6535105095701703E-027
   4.5333333333333337E-002    -7.2901109145522294E-027
   4.5733333333333334E-002    -1.9193196905949122E-026
   4.6133333333333346E-002    -2.9583159088354672E-026
   4.6533333333333343E-002    -3.7103721387448434E-026
   4.6933333333333341E-002    -4.0695435903798811E-026
   4.7333333333333338E-002    -3.9743065087043278E-026
   4.7733333333333336E-002    -3.4168410018463892E-026
   4.8133333333333334E-002    -2.4454218134944935E-026
   4.8533333333333345E-002    -1.1594323213828664E-026
   4.8933333333333343E-002     3.0243993030150565E-027
   4.9333333333333340E-002     1.7792702250477523E-026
   4.9733333333333338E-002     3.1078907157387753E-026
   5.0133333333333335E-002     4.1430207451717696E-026
   5.0533333333333347E-002     4.7747106676400190E-026
   5.0933333333333344E-002     4.9406749842956669E-026
   5.1333333333333342E-002     4.6318593592097645E-026
   5.1733333333333339E-002     3.8906330185636666E-026
   5.2133333333333337E-002     2.8021436363146662E-026
   5.2533333333333335E-002     1.4804373881983889E-026
   5.2933333333333346E-002     5.1764808007499857E-028
   5.3333333333333344E-002    -1.3620968509099664E-026
   5.3733333333333341E-002    -2.6577330950014359E-026
   5.4133333333333339E-002    -3.7589690519943688E-026
   5.4533333333333336E-002    -4.6194628414925239E-026
   5.4933333333333334E-002    -5.2189496745466631E-026
   5.5333333333333345E-002    -5.5543326558062119E-026
   5.5733333333333343E-002    -5.6279000981938933E-026
   5.6133333333333341E-002    -5.4356713356262522E-026
   5.6533333333333338E-002    -4.9590264774009529E-026
   5.6933333333333336E-002    -4.1623629366404484E-026
   5.7333333333333333E-002    -2.9984797141189053E-026
   5.7733333333333345E-002    -1.4219319505709801E-026
   5.8133333333333342E-002     5.9111862892717784E-027
   5.8533333333333340E-002     3.0196785020539734E-026
   5.8933333333333351E-002     5.7757486555694482E-026
   5.9333333333333335E-002     8.6882995385456171E-026
   5.9733333333333347E-002     1.1498329318722165E-025
   6.0133333333333330E-002     1.3868876060433936E-025
   6.0533333333333342E-002     1.5411931131876989E-025
   6.0933333333333353E-002     1.5731651526382407E-025
   6.1333333333333337E-002     1.4480364056306332E-025
   6.1733333333333348E-002     1.1421136813955960E-025
   6.2133333333333332E-002     6.4884493544744467E-026
   6.2533333333333344E-002    -1.6267155422972905E-027
   6.2933333333333327E-002    -8.1286218315163575E-026
   6.3333333333333339E-002    -1.6758286201793512E-025
   6.3733333333333350E-002    -2.5188239956855070E-025
   6.4133333333333334E-002    -3.2413002835799076E-025
   6.4533333333333345E-002    -3.7386425716571521E-025
   6.4933333333333329E-002    -3.9145445019365635E-025
   6.5333333333333340E-002    -3.6943071096695339E-025
   6.5733333333333352E-002    -3.0374534487711076E-025
   6.6133333333333336E-002    -1.9479222770891497E-025
   6.6533333333333347E-002    -4.8021531663803949E-026
   6.6933333333333331E-002     1.2598102493403736E-025
   6.7333333333333342E-002     3.1202705317915382E-025
   6.7733333333333354E-002     4.9147843844970386E-025
   6.8133333333333337E-002     6.4395095332501831E-025
   6.8533333333333349E-002     7.4942387502436353E-025
   6.8933333333333333E-002     7.9054655306404938E-025
   6.9333333333333344E-002     7.5488885685670181E-025
   6.9733333333333328E-002     6.3686663726948759E-025
   7.0133333333333339E-002     4.3908836149313314E-025
   7.0533333333333351E-002     1.7291697922166823E-025
   7.0933333333333334E-002    -1.4188367192238774E-025
   7.1333333333333346E-002    -4.7845183041036956E-025
   7.1733333333333330E-002    -8.0500849352043331E-025
   7.2133333333333341E-002    -1.0877393973952648E-024
   7.2533333333333352E-002    -1.2941133974177469E-024
   7.2933333333333336E-002    -1.3963092430053843E-024
   7.3333333333333348E-002    -1.3743934051593736E-024
   7.3733333333333331E-002    -1.2189036945368151E-024
   7.4133333333333343E-002    -9.3254077644673286E-025
   7.4533333333333354E-002    -5.3075345633794238E-025
   7.4933333333333338E-002    -4.1112065395320302E-026
   7.5333333333333349E-002     4.9851562006614763E-025
   7.5733333333333333E-002     1.0428512397359262E-024
   7.6133333333333345E-002     1.5429132243915333E-024
   7.6533333333333328E-002     1.9502225215330643E-024
   7.6933333333333340E-002     2.2211333308192905E-024
   7.7333333333333351E-002     2.3209076692507388E-024
   7.7733333333333335E-002     2.2271762025685097E-024
   7.8133333333333346E-002     1.9324855757248488E-024
   7.8533333333333330E-002     1.4457138265623395E-024
   7.8933333333333341E-002     7.9223170786902119E-025
   7.9333333333333353E-002     1.2787182591623898E-026
   7.9733333333333337E-002    -8.3881788862684804E-025
   8.0133333333333348E-002    -1.6991062045110964E-024
   8.0533333333333332E-002    -2.4991466492656740E-024
   8.0933333333333343E-002    -3.1693599161130511E-024
   8.1333333333333355E-002    -3.6446221846683858E-024
   8.1733333333333338E-002    -3.8693694454267573E-024
   8.2133333333333350E-002    -3.8023983100171143E-024
   8.2533333333333334E-002    -3.4210645261550876E-024
   8.2933333333333345E-002    -2.7245869243292822E-024
   8.3333333333333329E-002    -1.7361810893346735E-024
   8.3733333333333340E-002    -5.0377002534059848E-025
   8.4133333333333352E-002     9.0094423478707622E-025
   8.4533333333333335E-002     2.3851992413805724E-024
   8.4933333333333347E-002     3.8397496905879713E-024
   8.5333333333333330E-002     5.1452505909954230E-024
   8.5733333333333342E-002     6.1802570034593788E-024
   8.6133333333333353E-002     6.8304744212964400E-024
   8.6533333333333337E-002     6.9987321414928400E-024
   8.6933333333333349E-002     6.6149765546517849E-024
   8.7333333333333332E-002     5.6454554580824883E-024
   8.7733333333333344E-002     4.1001873852812571E-024
   8.8133333333333355E-002     2.0377990982175328E-024
   8.8533333333333339E-002    -4.3309158880306274E-025
   8.8933333333333350E-002    -3.1565839193225442E-024
   8.9333333333333334E-002    -5.9366461063049099E-024
   8.9733333333333345E-002    -8.5487018252891884E-024
   9.0133333333333329E-002    -1.0755214408091113E-023
   9.0533333333333341E-002    -1.2324407054425887E-023
   9.0933333333333352E-002    -1.3050824096972319E-023
   9.1333333333333336E-002    -1.2776123008251732E-023
   9.1733333333333347E-002    -1.1408235832015782E-023
   9.2133333333333331E-002    -8.9369878403089279E-024
   9.2533333333333342E-002    -5.4443566695408323E-024
   9.2933333333333354E-002    -1.1078441092105012E-024
   9.3333333333333338E-002     3.8040943609633394E-024
   9.3733333333333349E-002     8.9450137111586465E-024
   9.4133333333333333E-002     1.3911566796737975E-023
   9.4533333333333344E-002     1.8271697260924944E-023
   9.4933333333333356E-002     2.1598189591888063E-023
   9.5333333333333339E-002     2.3505180366447526E-023
   9.5733333333333351E-002     2.3684778751017384E-023
   9.6133333333333335E-002     2.1940683020220628E-023
   9.6533333333333346E-002     1.8215642382721749E-023
   9.6933333333333330E-002     1.2609914748687096E-023
   9.7333333333333341E-002     5.3883621391968870E-024
   9.7733333333333353E-002    -3.0254002950888160E-024
   9.8133333333333336E-002    -1.2068439045621583E-023
   9.8533333333333348E-002    -2.1071094823124729E-023
   9.8933333333333331E-002    -2.9301212805257696E-023
   9.9333333333333343E-002    -3.6017407313797484E-023
   9.9733333333333354E-002    -4.0527867845248800E-023
  0.10013333333333334         -4.2250452916881990E-023
  0.10053333333333335         -4.0769442297976441E-023
  0.10093333333333333         -3.5884168706905655E-023
  0.10133333333333334         -2.7645018267407907E-023
  0.10173333333333336         -1.6372929572441504E-023
  0.10213333333333334         -2.6594378603954734E-024
  0.10253333333333335          1.2654410448046087E-023
  0.10293333333333334          2.8520467701029598E-023
  0.10333333333333335          4.3745839736924286E-023
  0.10373333333333333          5.7072155361244223E-023
  0.10413333333333334          6.7267153886605392E-023
  0.10453333333333335          7.3222725554887460E-023
  0.10493333333333334          7.4052430522337195E-023
  0.10533333333333335          6.9181100836627095E-023
  0.10573333333333333          5.8418848211539600E-023
  0.10613333333333334          4.2012532467867333E-023
  0.10653333333333335          2.0668562769017603E-023
  0.10693333333333334         -4.4572443692155597E-024
  0.10733333333333335         -3.1805076251090913E-023
  0.10773333333333333         -5.9491629622880517E-023
  0.10813333333333335         -8.5422774998492496E-023
  0.10853333333333333         -1.0743285884571085E-022
  0.10893333333333334         -1.2344245644014747E-022
  0.10933333333333335         -1.3162435766603152E-022
  0.10973333333333334         -1.3056590827961666E-022
  0.11013333333333335         -1.1941520161213661E-022
  0.11053333333333333         -9.7998549424923437E-023
  0.11093333333333334         -6.6897910184976783E-023
  0.11133333333333335         -2.7478915715204571E-023
  0.11173333333333334          1.8136953507425953E-023
  0.11213333333333335          6.7158732843791817E-023
  0.11253333333333333          1.1626959035357524E-022
  0.11293333333333334          1.6182186476547046E-022
  0.11333333333333336          2.0007356597656904E-022
  0.11373333333333334          2.2745263083383436E-022
  0.11413333333333335          2.4083183800412755E-022
  0.11453333333333333          2.3779574588275982E-022
  0.11493333333333335          2.1687969851511266E-022
  0.11533333333333333          1.7776196686960073E-022
  0.11573333333333334          1.2139155692609216E-022
  0.11613333333333335          5.0038040441569505E-023
  0.11653333333333334         -3.2746329305982520E-023
  0.11693333333333335         -1.2225621158708680E-022
  0.11733333333333333         -2.1285277185323838E-022
  0.11773333333333334         -2.9826543049948232E-022
  0.11813333333333335         -3.7196162405879619E-022
  0.11853333333333334         -4.2756553888146858E-022
  0.11893333333333335         -4.5930182961706784E-022
  0.11933333333333333         -4.6243743180846377E-022
  0.11973333333333334         -4.3369255211256052E-022
  0.12013333333333336         -3.7159203325836928E-022
  0.12053333333333334         -2.7673036082406461E-022
  0.12093333333333335         -1.5192622948730981E-022
  0.12133333333333333         -2.2485535442390939E-024
  0.12173333333333335          1.6509801041574057E-022
  0.12213333333333333          3.4103209190463559E-022
  0.12253333333333334          5.1499455124500639E-022
  0.12293333333333335          6.7547400194173140E-022
  0.12333333333333334          8.1063669737937952E-022
  0.12373333333333335          9.0903019474966728E-022
  0.12413333333333333          9.6032407650879967E-022
  0.12453333333333334          9.5604539593307677E-022
  0.12493333333333335          8.9026363557656634E-022
  0.12533333333333335          7.6018069949756219E-022
  0.12573333333333336          5.6658252034960518E-022
  0.12613333333333332          3.1411562770396636E-022
  0.12653333333333333          1.1359828171427800E-023
  0.12693333333333334         -3.2932135710332104E-022
  0.12733333333333335         -6.9215847319602822E-022
  0.12773333333333337         -1.0585739885725627E-021
  0.12813333333333332         -1.4079791384776355E-021
  0.12853333333333333         -1.7187351022495742E-021
  0.12893333333333334         -1.9692326951531938E-021
  0.12933333333333336         -2.1390353457899276E-021
  0.12973333333333337         -2.2100264658854790E-021
  0.13013333333333332         -2.1674979521212811E-021
  0.13053333333333333         -2.0011211540019666E-021
  0.13093333333333335         -1.7057480031253866E-021
  0.13133333333333336         -1.2819970674154302E-021
  0.13173333333333337         -7.3659524780084300E-022
  0.13213333333333332         -8.2457301705360152E-023
  0.13253333333333334          6.6149846641418905E-022
  0.13293333333333335          1.4707873097400207E-021
  0.13333333333333336          2.3160229163078655E-021
  0.13373333333333337          3.1637790407529745E-021
  0.13413333333333333          3.9776078353863383E-021
  0.13453333333333334          4.7191744467465606E-021
  0.13493333333333335          5.3494719371245462E-021
  0.13533333333333336          5.8300824522698950E-021
  0.13573333333333332          6.1244581800396880E-021
  0.13613333333333333          6.1992126084152506E-021
  0.13653333333333334          6.0254105718285655E-021
  0.13693333333333335          5.5798635481468719E-021
  0.13733333333333336          4.8464382842511180E-021
  0.13773333333333332          3.8173892515246390E-021
  0.13813333333333333          2.4947199799618535E-021
  0.13853333333333334          8.9157761278740039E-022
  0.13893333333333335         -9.6633708987275631E-022
  0.13933333333333336         -3.0393747924754071E-021
  0.13973333333333332         -5.2726164376813563E-021
  0.14013333333333333         -7.5947079031609060E-021
  0.14053333333333334         -9.9169673897023805E-021
  0.14093333333333335         -1.2132900240200979E-020
  0.14133333333333337         -1.4118310617119407E-020
  0.14173333333333332         -1.5732188459824381E-020
  0.14213333333333333         -1.6818598105946151E-020
  0.14253333333333335         -1.7209825455115323E-020
  0.14293333333333336         -1.6730986431262287E-020
  0.14333333333333337         -1.5206373008879149E-020
  0.14373333333333332         -1.2467746829571566E-020
  0.14413333333333334         -8.3647936664021680E-021
  0.14453333333333335         -2.7779441175399526E-021
  0.14493333333333336          4.3663496037500165E-021
  0.14533333333333337          1.3077728715637635E-020
  0.14573333333333333          2.3281387696804232E-020
  0.14613333333333334          3.4794867790902941E-020
  0.14653333333333335          4.7302210237745515E-020
  0.14693333333333336          6.0325493666970969E-020
  0.14733333333333337          7.3193851983578922E-020
  0.14773333333333333          8.5010023636322353E-020
  0.14813333333333334          9.4614437115721165E-020
  0.14853333333333335          1.0054693769486027E-019
  0.14893333333333336          1.0100593892429623E-019
  0.14933333333333332          9.3804885789973173E-020
  0.14973333333333333          7.6325867975434392E-020
  0.15013333333333334          4.5469617440028425E-020
  0.15053333333333335         -2.3986343488123313E-021
  0.15093333333333336         -7.1508374550274095E-020