-0.6666667E-01  0.0000000E+00
-0.6626666E-01  0.0000000E+00
-0.6586666E-01  0.0000000E+00
-0.6546666E-01  0.0000000E+00
-0.6506667E-01  0.0000000E+00
-0.6466667E-01  0.0000000E+00
-0.6426667E-01  0.0000000E+00
-0.6386667E-01  0.0000000E+00
-0.6346667E-01  0.0000000E+00
-0.6306667E-01  0.0000000E+00
-0.6266667E-01  0.0000000E+00
-0.6226667E-01  0.0000000E+00
-0.6186667E-01  0.0000000E+00
-0.6146667E-01  0.0000000E+00
-0.6106667E-01  0.0000000E+00
-0.6066667E-01  0.0000000E+00
-0.6026667E-01  0.2129185E-37
-0.5986667E-01  0.2036351E-36
-0.5946667E-01  0.1249587E-35
-0.5906667E-01  0.6113914E-35
-0.5866667E-01  0.2538880E-34
-0.5826667E-01  0.9218411E-34
-0.5786667E-01  0.2998195E-33
-0.5746667E-01  0.8931482E-33
-0.5706667E-01  0.2487566E-32
-0.5666667E-01  0.6591391E-32
-0.5626667E-01  0.1681388E-31
-0.5586667E-01  0.4146961E-31
-0.5546667E-01  0.9860170E-31
-0.5506667E-01  0.2242306E-30
-0.5466667E-01  0.4828226E-30
-0.5426667E-01  0.9741572E-30
-0.5386667E-01  0.1822490E-29
-0.5346667E-01  0.3125541E-29
-0.5306667E-01  0.4843706E-29
-0.5266667E-01  0.6645545E-29
-0.5226667E-01  0.7819911E-29
-0.5186667E-01  0.7524533E-29
-0.5146667E-01  0.5805994E-29
-0.5106667E-01  0.5811729E-29
-0.5066667E-01  0.1707903E-28
-0.5026667E-01  0.5831223E-28
-0.4986667E-01  0.1554533E-27
-0.4946667E-01  0.3277227E-27
-0.4906667E-01  0.5528178E-27
-0.4866667E-01  0.7068310E-27
-0.4826667E-01  0.4903840E-27
-0.4786666E-01 -0.6155603E-27
-0.4746667E-01 -0.3275197E-26
-0.4706667E-01 -0.7973878E-26
-0.4666667E-01 -0.1431526E-25
-0.4626667E-01 -0.1991639E-25
-0.4586667E-01 -0.1915439E-25
-0.4546667E-01 -0.2494678E-26
-0.4506667E-01  0.4227371E-25
-0.4466667E-01  0.1251203E-24
-0.4426667E-01  0.2435939E-24
-0.4386667E-01  0.3673235E-24
-0.4346666E-01  0.4206085E-24
-0.4306667E-01  0.2720133E-24
-0.4266667E-01 -0.2536579E-24
-0.4226667E-01 -0.1321139E-23
-0.4186667E-01 -0.2970802E-23
-0.4146667E-01 -0.4943285E-23
-0.4106667E-01 -0.6474942E-23
-0.4066667E-01 -0.6149069E-23
-0.4026667E-01 -0.1948998E-23
-0.3986667E-01  0.8296618E-23
-0.3946667E-01  0.2589981E-22
-0.3906666E-01  0.4967689E-22
-0.3866667E-01  0.7390980E-22
-0.3826667E-01  0.8655473E-22
-0.3786667E-01  0.6886008E-22
-0.3746667E-01 -0.2028133E-23
-0.3706667E-01 -0.1458720E-21
-0.3666667E-01 -0.3666951E-21
-0.3626667E-01 -0.6356458E-21
-0.3586667E-01 -0.8733402E-21
-0.3546667E-01 -0.9394556E-21
-0.3506667E-01 -0.6408739E-21
-0.3466666E-01  0.2289325E-21
-0.3426667E-01  0.1809703E-20
-0.3386667E-01  0.4053814E-20
-0.3346667E-01  0.6583810E-20
-0.3306667E-01  0.8571204E-20
-0.3266667E-01  0.8705776E-20
-0.3226667E-01  0.5341903E-20
-0.3186667E-01 -0.3096830E-20
-0.3146667E-01 -0.1741646E-19
-0.3106667E-01 -0.3670806E-19
-0.3066667E-01 -0.5735159E-19
-0.3026667E-01 -0.7232486E-19
-0.2986667E-01 -0.7131975E-19
-0.2946667E-01 -0.4222088E-19
-0.2906667E-01  0.2562043E-19
-0.2866667E-01  0.1362608E-18
-0.2826667E-01  0.2807929E-18
-0.2786667E-01  0.4312225E-18
-0.2746667E-01  0.5370356E-18
-0.2706667E-01  0.5275777E-18
-0.2666667E-01  0.3233688E-18
-0.2626667E-01 -0.1416556E-18
-0.2586667E-01 -0.8875753E-18
-0.2546667E-01 -0.1850233E-17
-0.2506667E-01 -0.2846955E-17
-0.2466667E-01 -0.3560709E-17
-0.2426667E-01 -0.3559978E-17
-0.2386667E-01 -0.2370282E-17
-0.2346667E-01  0.3943858E-18
-0.2306667E-01  0.4846957E-17
-0.2266667E-01  0.1061816E-16
-0.2226667E-01  0.1667683E-16
-0.2186667E-01  0.2125627E-16
-0.2146667E-01  0.2197367E-16
-0.2106667E-01  0.1621858E-16
-0.2066667E-01  0.1843472E-17
-0.2026667E-01 -0.2188721E-16
-0.1986667E-01 -0.5323979E-16
-0.1946667E-01 -0.8711466E-16
-0.1906667E-01 -0.1146783E-15
-0.1866667E-01 -0.1239321E-15
-0.1826667E-01 -0.1015614E-15
-0.1786667E-01 -0.3620380E-16
-0.1746667E-01  0.7707892E-16
-0.1706667E-01  0.2318165E-15
-0.1666667E-01  0.4058429E-15
-0.1626667E-01  0.5593379E-15
-0.1586667E-01  0.6369865E-15
-0.1546667E-01  0.5757585E-15
-0.1506667E-01  0.3189375E-15
-0.1466667E-01 -0.1644591E-15
-0.1426667E-01 -0.8577003E-15
-0.1386667E-01 -0.1676761E-14
-0.1346667E-01 -0.2459849E-14
-0.1306667E-01 -0.2973436E-14
-0.1266667E-01 -0.2941127E-14
-0.1226667E-01 -0.2098376E-14
-0.1186667E-01 -0.2703274E-15
-0.1146667E-01  0.2537566E-14
-0.1106667E-01  0.6054783E-14
-0.1066667E-01  0.9692457E-14
-0.1026667E-01  0.1255043E-13
-0.9866667E-02  0.1351027E-13
-0.9466667E-02  0.1142855E-13
-0.9066666E-02  0.5424332E-14
-0.8666666E-02 -0.4772630E-14
-0.8266667E-02 -0.1847716E-13
-0.7866667E-02 -0.3379834E-13
-0.7466667E-02 -0.4758932E-13
-0.7066667E-02 -0.5569627E-13
-0.6666667E-02 -0.5357055E-13
-0.6266667E-02 -0.3724237E-13
-0.5866667E-02 -0.4561463E-14
-0.5466667E-02  0.4349588E-13
-0.5066667E-02  0.1017531E-12
-0.4666667E-02  0.1603552E-12
-0.4266667E-02  0.2052477E-12
-0.3866667E-02  0.2198774E-12
-0.3466667E-02  0.1881894E-12
-0.3066667E-02  0.9870044E-13
-0.2666667E-02 -0.5091519E-13
-0.2266667E-02 -0.2496357E-12
-0.1866667E-02 -0.4704564E-12
-0.1466667E-02 -0.6705342E-12
-0.1066667E-02 -0.7951354E-12
-0.6666667E-03 -0.7858839E-12
-0.2666667E-03 -0.5929753E-12
 0.1333333E-03 -0.1899632E-12
 0.5333333E-03  0.4113876E-12
 0.9333334E-03  0.1149605E-11
 0.1333333E-02  0.1909242E-11
 0.1733333E-02  0.2527421E-11
 0.2133333E-02  0.2813517E-11
 0.2533333E-02  0.2582158E-11
 0.2933333E-02  0.1696681E-11
 0.3333333E-02  0.1168816E-12
 0.3733333E-02 -0.2058218E-11
 0.4133333E-02 -0.4563861E-11
 0.4533333E-02 -0.6970713E-11
 0.4933333E-02 -0.8722715E-11
 0.5333333E-02 -0.9215507E-11
 0.5733334E-02 -0.7911536E-11
 0.6133333E-02 -0.4478684E-11
 0.6533334E-02  0.1070200E-11
 0.6933333E-02  0.8266855E-11
 0.7333333E-02  0.1613942E-10
 0.7733333E-02  0.2325659E-10
 0.8133333E-02  0.2788366E-10
 0.8533333E-02  0.2825194E-10
 0.8933334E-02  0.2291934E-10
 0.9333333E-02  0.1117371E-10
 0.9733333E-02 -0.6593163E-11
 0.1013333E-01 -0.2862820E-10
 0.1053333E-01 -0.5176483E-10
 0.1093333E-01 -0.7164765E-10
 0.1133333E-01 -0.8326840E-10
 0.1173333E-01 -0.8179318E-10
 0.1213333E-01 -0.6359469E-10
 0.1253333E-01 -0.2733672E-10
 0.1293333E-01  0.2509551E-10
 0.1333333E-01  0.8805159E-10
 0.1373333E-01  0.1521759E-09
 0.1413333E-01  0.2052260E-09
 0.1453333E-01  0.2336925E-09
 0.1493333E-01  0.2251131E-09
 0.1533333E-01  0.1708065E-09
 0.1573333E-01  0.6859589E-10
 0.1613333E-01 -0.7501912E-10
 0.1653333E-01 -0.2438137E-09
 0.1693333E-01 -0.4124075E-09
 0.1733333E-01 -0.5487570E-09
 0.1773333E-01 -0.6185732E-09
 0.1813333E-01 -0.5912925E-09
 0.1853333E-01 -0.4468363E-09
 0.1893333E-01 -0.1820527E-09
 0.1933333E-01  0.1844692E-09
 0.1973333E-01  0.6105265E-09
 0.2013333E-01  0.1032430E-08
 0.2053333E-01  0.1371676E-08
 0.2093333E-01  0.1545978E-08
 0.2133333E-01  0.1483590E-08
 0.2173333E-01  0.1138999E-08
 0.2213333E-01  0.5073789E-09
 0.2253333E-01 -0.3651620E-09
 0.2293333E-01 -0.1378380E-08
 0.2333333E-01 -0.2383877E-08
 0.2373333E-01 -0.3201175E-08
 0.2413333E-01 -0.3643115E-08
 0.2453333E-01 -0.3547954E-08
 0.2493333E-01 -0.2813730E-08
 0.2533333E-01 -0.1429160E-08
 0.2573333E-01  0.5052203E-09
 0.2613333E-01  0.2771457E-08
 0.2653333E-01  0.5048268E-08
 0.2693333E-01  0.6946220E-08
 0.2733333E-01  0.8061924E-08
 0.2773333E-01  0.8045336E-08
 0.2813333E-01  0.6670833E-08
 0.2853333E-01  0.3900290E-08
 0.2893333E-01 -0.7438111E-10
 0.2933333E-01 -0.4820456E-08
 0.2973333E-01 -0.9693057E-08
 0.3013333E-01 -0.1390541E-07
 0.3053333E-01 -0.1663599E-07
 0.3093333E-01 -0.1716057E-07
 0.3133333E-01 -0.1499097E-07
 0.3173333E-01 -0.9997878E-08
 0.3213333E-01 -0.2494246E-08
 0.3253333E-01  0.6741456E-08
 0.3293333E-01  0.1651582E-07
 0.3333334E-01  0.2534835E-07
 0.3373333E-01  0.3166734E-07
 0.3413333E-01  0.3405174E-07
 0.3453333E-01  0.3148579E-07
 0.3493333E-01  0.2358609E-07
 0.3533333E-01  0.1075956E-07
 0.3573333E-01 -0.5743888E-08
 0.3613333E-01 -0.2390751E-07
 0.3653333E-01 -0.4115869E-07
 0.3693333E-01 -0.5469855E-07
 0.3733333E-01 -0.6191311E-07
 0.3773334E-01 -0.6080989E-07
 0.3813333E-01 -0.5041313E-07
 0.3853333E-01 -0.3104856E-07
 0.3893333E-01 -0.4458432E-08
 0.3933333E-01  0.2629231E-07
 0.3973333E-01  0.5712859E-07
 0.4013333E-01  0.8347226E-07
 0.4053333E-01  0.1008855E-06
 0.4093333E-01  0.1057636E-06
 0.4133333E-01  0.9597451E-07
 0.4173333E-01  0.7133685E-07
 0.4213334E-01  0.3384798E-07
 0.4253333E-01 -0.1240048E-07
 0.4293333E-01 -0.6163508E-07
 0.4333333E-01 -0.1071075E-06
 0.4373333E-01 -0.1420121E-06
 0.4413333E-01 -0.1604904E-06
 0.4453333E-01 -0.1585738E-06
 0.4493333E-01 -0.1349137E-06
 0.4533333E-01 -0.9117089E-07
 0.4573333E-01 -0.3197846E-07
 0.4613333E-01  0.3554460E-07
 0.4653334E-01  0.1026839E-06
 0.4693333E-01  0.1603116E-06
 0.4733333E-01  0.2001935E-06
 0.4773333E-01  0.2162260E-06
 0.4813333E-01  0.2054065E-06
 0.4853333E-01  0.1683742E-06
 0.4893333E-01  0.1094167E-06
 0.4933333E-01  0.3592076E-07
 0.4973333E-01 -0.4266628E-07
 0.5013333E-01 -0.1162147E-06
 0.5053333E-01 -0.1754176E-06
 0.5093333E-01 -0.2131818E-06
 0.5133333E-01 -0.2256708E-06
 0.5173333E-01 -0.2128167E-06
 0.5213333E-01 -0.1782036E-06
 0.5253333E-01 -0.1283263E-06
 0.5293333E-01 -0.7134411E-07
 0.5333333E-01 -0.1554097E-07
 0.5373333E-01  0.3222985E-07
 0.5413333E-01  0.6782171E-07
 0.5453333E-01  0.9053031E-07
 0.5493333E-01  0.1031129E-06
 0.5533333E-01  0.1110390E-06
 0.5573333E-01  0.1210656E-06
 0.5613333E-01  0.1393689E-06
 0.5653333E-01  0.1695768E-06
 0.5693333E-01  0.2111051E-06
 0.5733333E-01  0.2581877E-06
 0.5773333E-01  0.2999118E-06
 0.5813333E-01  0.3214149E-06
 0.5853333E-01  0.3062030E-06
 0.5893333E-01  0.2393340E-06
 0.5933333E-01  0.1110107E-06
 0.5973333E-01 -0.8001918E-07
 0.6013333E-01 -0.3239152E-06
 0.6053333E-01 -0.5986622E-06
 0.6093333E-01 -0.8709110E-06
 0.6133333E-01 -0.1098940E-05
 0.6173333E-01 -0.1237614E-05
 0.6213333E-01 -0.1244860E-05
 0.6253333E-01 -0.1088877E-05
 0.6293333E-01 -0.7550473E-06
 0.6333333E-01 -0.2514155E-06
 0.6373333E-01  0.3883120E-06
 0.6413333E-01  0.1105095E-05
 0.6453333E-01  0.1818644E-05
 0.6493333E-01  0.2435194E-05
 0.6533334E-01  0.2858347E-05
 0.6573334E-01  0.3001833E-05
 0.6613334E-01  0.2802620E-05
 0.6653333E-01  0.2232589E-05
 0.6693333E-01  0.1306959E-05
 0.6733333E-01  0.8795828E-07
 0.6773333E-01 -0.1317309E-05
 0.6813333E-01 -0.2765101E-05
 0.6853333E-01 -0.4088919E-05
 0.6893333E-01 -0.5117727E-05
 0.6933333E-01 -0.5696523E-05
 0.6973334E-01 -0.5706806E-05
 0.7013334E-01 -0.5084299E-05
 0.7053334E-01 -0.3831458E-05
 0.7093333E-01 -0.2022851E-05
 0.7133333E-01  0.1977495E-06
 0.7173333E-01  0.2628665E-05
 0.7213333E-01  0.5029073E-05
 0.7253333E-01  0.7143291E-05
 0.7293333E-01  0.8727909E-05
 0.7333333E-01  0.9578657E-05
 0.7373333E-01  0.9553863E-05
 0.7413334E-01  0.8591760E-05
 0.7453334E-01  0.6719646E-05
 0.7493334E-01  0.4053907E-05
 0.7533333E-01  0.7910149E-06
 0.7573333E-01 -0.2809292E-05
 0.7613333E-01 -0.6446616E-05
 0.7653333E-01 -0.9805683E-05
 0.7693333E-01 -0.1258259E-04
 0.7733333E-01 -0.1450902E-04
 0.7773333E-01 -0.1537251E-04
 0.7813333E-01 -0.1503160E-04
 0.7853334E-01 -0.1342565E-04
 0.7893334E-01 -0.1057951E-04
 0.7933334E-01 -0.6604152E-05
 0.7973333E-01 -0.1693931E-05
 0.8013333E-01  0.3878604E-05
 0.8053333E-01  0.9770280E-05
 0.8093333E-01  0.1557769E-04
 0.8133333E-01  0.2085155E-04
 0.8173333E-01  0.2511643E-04
 0.8213333E-01  0.2789739E-04
 0.8253333E-01  0.2875426E-04
 0.8293334E-01  0.2732314E-04
 0.8333334E-01  0.2336331E-04
 0.8373334E-01  0.1680559E-04
 0.8413333E-01  0.7796533E-05
 0.8453333E-01 -0.3268435E-05
 0.8493333E-01 -0.1573045E-04
 0.8533333E-01 -0.2867809E-04
 0.8573333E-01 -0.4098888E-04
 0.8613333E-01 -0.5140343E-04
 0.8653333E-01 -0.5863043E-04
 0.8693333E-01 -0.6147596E-04
 0.8733334E-01 -0.5898634E-04
 0.8773334E-01 -0.5058959E-04
 0.8813334E-01 -0.3621857E-04
 0.8853333E-01 -0.1639788E-04
 0.8893333E-01  0.7721358E-05
 0.8933333E-01  0.3439076E-04
 0.8973333E-01  0.6136374E-04
 0.9013333E-01  0.8606257E-04
 0.9053333E-01  0.1058030E-03
 0.9093333E-01  0.1180585E-03
 0.9133333E-01  0.1207384E-03
 0.9173334E-01  0.1124516E-03
 0.9213334E-01  0.9272514E-04
 0.9253334E-01  0.6214828E-04
 0.9293333E-01  0.2242189E-04
 0.9333333E-01 -0.2370229E-04
 0.9373333E-01 -0.7259390E-04
 0.9413333E-01 -0.1200186E-03
 0.9453333E-01 -0.1614940E-03
 0.9493333E-01 -0.1926956E-03
 0.9533333E-01 -0.2098753E-03
 0.9573333E-01 -0.2102510E-03
 0.9613334E-01 -0.1923293E-03
 0.9653334E-01 -0.1561246E-03
 0.9693334E-01 -0.1032534E-03
 0.9733333E-01 -0.3688755E-04
 0.9773333E-01  0.3843078E-04
 0.9813333E-01  0.1171000E-03
 0.9853333E-01  0.1928712E-03
 0.9893333E-01  0.2593266E-03
 0.9933333E-01  0.3103870E-03
 0.9973333E-01  0.3408061E-03
 0.1001333E+00  0.3466155E-03
 0.1005333E+00  0.3254854E-03
 0.1009333E+00  0.2769781E-03
 0.1013333E+00  0.2026771E-03
 0.1017333E+00  0.1061827E-03
 0.1021333E+00 -0.7022666E-05
 0.1025333E+00 -0.1298359E-03
 0.1029333E+00 -0.2539069E-03
 0.1033333E+00 -0.3701115E-03
 0.1037333E+00 -0.4691021E-03
 0.1041333E+00 -0.5419181E-03
 0.1045333E+00 -0.5806278E-03
 0.1049333E+00 -0.5789739E-03
 0.1053333E+00 -0.5329878E-03
 0.1057333E+00 -0.4415296E-03
 0.1061333E+00 -0.3067085E-03
 0.1065333E+00 -0.1341337E-03
 0.1069333E+00  0.6705540E-04
 0.1073333E+00  0.2844220E-03
 0.1077333E+00  0.5027599E-03
 0.1081333E+00  0.7049273E-03
 0.1085333E+00  0.8729714E-03
 0.1089333E+00  0.9894969E-03
 0.1093333E+00  0.1039198E-02
 0.1097333E+00  0.1010436E-02
 0.1101333E+00  0.8967355E-03
 0.1105333E+00  0.6980201E-03
 0.1109333E+00  0.4214575E-03
 0.1113333E+00  0.8175036E-04
 0.1117333E+00 -0.2992256E-03
 0.1121333E+00 -0.6934953E-03
 0.1125333E+00 -0.1068765E-02
 0.1129333E+00 -0.1390828E-02
 0.1133333E+00 -0.1626443E-02
 0.1137333E+00 -0.1746461E-02
 0.1141333E+00 -0.1728932E-02
 0.1145333E+00 -0.1561887E-02
 0.1149333E+00 -0.1245489E-02
 0.1153333E+00 -0.7932842E-03
 0.1157333E+00 -0.2323401E-03
 0.1161333E+00  0.3978566E-03
 0.1165333E+00  0.1047755E-02
 0.1169333E+00  0.1661247E-02
 0.1173333E+00  0.2180104E-02
 0.1177333E+00  0.2549022E-02
 0.1181333E+00  0.2720857E-02
 0.1185333E+00  0.2661608E-02
 0.1189333E+00  0.2354670E-02
 0.1193333E+00  0.1803932E-02
 0.1197333E+00  0.1035360E-02
 0.1201333E+00  0.9679981E-04
 0.1205333E+00 -0.9440869E-03
 0.1209333E+00 -0.2003753E-02
 0.1213333E+00 -0.2988349E-02
 0.1217333E+00 -0.3800638E-02
 0.1221333E+00 -0.4347787E-02
 0.1225333E+00 -0.4549482E-02
 0.1229333E+00 -0.4345775E-02
 0.1233333E+00 -0.3704041E-02
 0.1237333E+00 -0.2624475E-02
 0.1241333E+00 -0.1143609E-02
 0.1245333E+00  0.6645467E-03
 0.1249333E+00  0.2690018E-02
 0.1253333E+00  0.4791134E-02
 0.1257333E+00  0.6801501E-02
 0.1261333E+00  0.8539462E-02
 0.1265333E+00  0.9819615E-02
 0.1269333E+00  0.1046588E-01
 0.1273333E+00  0.1032538E-01
 0.1277333E+00  0.9282364E-02
 0.1281333E+00  0.7271253E-02
 0.1285333E+00  0.4287941E-02
 0.1289333E+00  0.3983775E-03
 0.1293333E+00 -0.4256403E-02
 0.1297333E+00 -0.9459546E-02
 0.1301333E+00 -0.1492254E-01
 0.1305333E+00 -0.2029458E-01
 0.1309333E+00 -0.2517732E-01
 0.1313333E+00 -0.2914457E-01
 0.1317333E+00 -0.3176658E-01
 0.1321333E+00 -0.3263774E-01
 0.1325333E+00 -0.3140655E-01
 0.1329333E+00 -0.2780611E-01
 0.1333333E+00 -0.2168344E-01
 0.1337333E+00 -0.1302544E-01
 0.1341333E+00 -0.1979677E-02
 0.1345333E+00  0.1113206E-01
 0.1349333E+00  0.2580905E-01
 0.1353333E+00  0.4137703E-01
 0.1357333E+00  0.5700442E-01
 0.1361333E+00  0.7172959E-01
 0.1365333E+00  0.8449857E-01
 0.1369333E+00  0.9421200E-01
 0.1373333E+00  0.9977956E-01
 0.1377333E+00  0.1001794E+00
 0.1381333E+00  0.9451980E-01
 0.1385333E+00  0.8210022E-01
 0.1389333E+00  0.6246859E-01
 0.1393333E+00  0.3547229E-01
 0.1397333E+00  0.1300515E-02
 0.1401333E+00 -0.3948356E-01
 0.1405333E+00 -0.8592154E-01
 0.1409333E+00 -0.1366493E+00
 0.1413333E+00 -0.1898964E+00
 0.1417333E+00 -0.2434928E+00
 0.1421333E+00 -0.2948812E+00
 0.1425333E+00 -0.3411304E+00
 0.1429333E+00 -0.3789471E+00
 0.1433333E+00 -0.4046817E+00
 0.1437333E+00 -0.4143242E+00
 0.1441333E+00 -0.4034879E+00
 0.1445333E+00 -0.3673760E+00
 0.1449333E+00 -0.3007311E+00
 0.1453333E+00 -0.1977642E+00
 0.1457333E+00 -0.5206240E-01
 0.1461333E+00  0.1435231E+00
 0.1465333E+00  0.3970124E+00
 0.1469333E+00  0.7174517E+00
 0.1473333E+00  0.1115090E+01
 0.1477333E+00  0.1601576E+01
 0.1481333E+00  0.2190177E+01
 0.1485333E+00  0.2896021E+01
 0.1489333E+00  0.3736360E+01
 0.1493333E+00  0.4730867E+01
 0.1497333E+00  0.5901958E+01
 0.1501333E+00  0.7275155E+01
 0.1505333E+00  0.8879484E+01
 0.1509333E+00  0.1074794E+02
 0.1513333E+00  0.1291797E+02
 0.1517333E+00  0.1543208E+02
 0.1521333E+00  0.1833847E+02
 0.1525333E+00  0.2169173E+02
 0.1529333E+00  0.2555374E+02
 0.1533333E+00  0.2999450E+02
 0.1537333E+00  0.3509325E+02
 0.1541333E+00  0.4093958E+02
 0.1545333E+00  0.4763471E+02
 0.1549333E+00  0.5529296E+02
 0.1553333E+00  0.6404330E+02
 0.1557333E+00  0.7403107E+02
 0.1561333E+00  0.8541988E+02
 0.1565333E+00  0.9839367E+02
 0.1569333E+00  0.1131589E+03
 0.1573333E+00  0.1299471E+03
 0.1577333E+00  0.1490173E+03
 0.1581333E+00  0.1706587E+03
 0.1585333E+00  0.1951941E+03
 0.1589333E+00  0.2229825E+03
 0.1593333E+00  0.2544229E+03
 0.1597333E+00  0.2899573E+03
 0.1601333E+00  0.3300752E+03
 0.1605333E+00  0.3753170E+03
 0.1609333E+00  0.4262785E+03
 0.1613333E+00  0.4836152E+03
 0.1617333E+00  0.5480471E+03
 0.1621333E+00  0.6203636E+03
 0.1625333E+00  0.7014291E+03
 0.1629333E+00  0.7921877E+03
 0.1633333E+00  0.8936701E+03
 0.1637333E+00  0.1006999E+04
 0.1641333E+00  0.1133395E+04
 0.1645333E+00  0.1274184E+04
 0.1649333E+00  0.1430805E+04
 0.1653333E+00  0.1604814E+04
 0.1657333E+00  0.1797894E+04
 0.1661333E+00  0.2011862E+04
 0.1665333E+00  0.2248673E+04
 0.1669333E+00  0.2510432E+04
 0.1673333E+00  0.2799398E+04
 0.1677333E+00  0.3117990E+04
 0.1681333E+00  0.3468796E+04
 0.1685333E+00  0.3854575E+04
 0.1689333E+00  0.4278269E+04
 0.1693333E+00  0.4742999E+04
 0.1697333E+00  0.5252078E+04
 0.1701333E+00  0.5809006E+04
 0.1705333E+00  0.6417478E+04
 0.1709333E+00  0.7081382E+04
 0.1713333E+00  0.7804801E+04
 0.1717333E+00  0.8592009E+04
 0.1721333E+00  0.9447469E+04
 0.1725333E+00  0.1037583E+05
 0.1729333E+00  0.1138192E+05
 0.1733333E+00  0.1247073E+05
 0.1737333E+00  0.1364741E+05
 0.1741333E+00  0.1491728E+05
 0.1745333E+00  0.1628577E+05
 0.1749333E+00  0.1775842E+05
 0.1753333E+00  0.1934088E+05
 0.1757333E+00  0.2103887E+05
 0.1761333E+00  0.2285814E+05
 0.1765333E+00  0.2480447E+05
 0.1769333E+00  0.2688362E+05
 0.1773333E+00  0.2910131E+05
 0.1777333E+00  0.3146316E+05
 0.1781333E+00  0.3397467E+05
 0.1785333E+00  0.3664114E+05
 0.1789333E+00  0.3946769E+05
 0.1793333E+00  0.4245913E+05
 0.1797333E+00  0.4561996E+05
 0.1801333E+00  0.4895429E+05
 0.1805333E+00  0.5246577E+05
 0.1809333E+00  0.5615756E+05
 0.1813333E+00  0.6003225E+05
 0.1817333E+00  0.6409179E+05
 0.1821333E+00  0.6833740E+05
 0.1825333E+00  0.7276955E+05
 0.1829333E+00  0.7738786E+05
 0.1833333E+00  0.8219102E+05
 0.1837333E+00  0.8717675E+05
 0.1841333E+00  0.9234171E+05
 0.1845333E+00  0.9768145E+05
 0.1849333E+00  0.1031903E+06
 0.1853333E+00  0.1088614E+06
 0.1857333E+00  0.1146866E+06
 0.1861333E+00  0.1206564E+06
 0.1865333E+00  0.1267597E+06
 0.1869333E+00  0.1329843E+06
 0.1873333E+00  0.1393163E+06
 0.1877333E+00  0.1457405E+06
 0.1881333E+00  0.1522398E+06
 0.1885333E+00  0.1587961E+06
 0.1889333E+00  0.1653893E+06
 0.1893333E+00  0.1719982E+06
 0.1897333E+00  0.1785997E+06
 0.1901333E+00  0.1851696E+06
 0.1905333E+00  0.1916822E+06
 0.1909333E+00  0.1981102E+06
 0.1913333E+00  0.2044255E+06
 0.1917333E+00  0.2105982E+06
 0.1921333E+00  0.2165979E+06
 0.1925333E+00  0.2223929E+06
 0.1929333E+00  0.2279505E+06
 0.1933333E+00  0.2332378E+06
 0.1937333E+00  0.2382207E+06
 0.1941333E+00  0.2428652E+06
 0.1945333E+00  0.2471367E+06
 0.1949333E+00  0.2510009E+06
 0.1953333E+00  0.2544234E+06
 0.1957333E+00  0.2573701E+06
 0.1961333E+00  0.2598077E+06
 0.1965333E+00  0.2617035E+06
 0.1969333E+00  0.2630260E+06
 0.1973333E+00  0.2637447E+06
 0.1977333E+00  0.2638307E+06
 0.1981333E+00  0.2632567E+06
 0.1985333E+00  0.2619976E+06
 0.1989333E+00  0.2600301E+06
 0.1993333E+00  0.2573336E+06
 0.1997333E+00  0.2538898E+06
 0.2001333E+00  0.2496833E+06
 0.2005333E+00  0.2447018E+06
 0.2009333E+00  0.2389360E+06
 0.2013333E+00  0.2323800E+06
 0.2017333E+00  0.2250315E+06
 0.2021333E+00  0.2168914E+06
 0.2025333E+00  0.2079649E+06
 0.2029333E+00  0.1982605E+06
 0.2033333E+00  0.1877909E+06
 0.2037333E+00  0.1765727E+06
 0.2041333E+00  0.1646262E+06
 0.2045333E+00  0.1519758E+06
 0.2049333E+00  0.1386497E+06
 0.2053333E+00  0.1246801E+06
 0.2057333E+00  0.1101027E+06
 0.2061333E+00  0.9495691E+05
 0.2065333E+00  0.7928564E+05
 0.2069333E+00  0.6313504E+05
 0.2073333E+00  0.4655439E+05
 0.2077333E+00  0.2959585E+05
 0.2081333E+00  0.1231422E+05
 0.2085333E+00 -0.5233317E+04
 0.2089333E+00 -0.2298751E+05
 0.2093333E+00 -0.4088731E+05
 0.2097333E+00 -0.5887023E+05
 0.2101333E+00 -0.7687265E+05
 0.2105333E+00 -0.9483018E+05
 0.2109333E+00 -0.1126780E+06
 0.2113333E+00 -0.1303513E+06
 0.2117333E+00 -0.1477855E+06
 0.2121333E+00 -0.1649168E+06
 0.2125333E+00 -0.1816823E+06
 0.2129333E+00 -0.1980207E+06
 0.2133333E+00 -0.2138723E+06
 0.2137333E+00 -0.2291796E+06
 0.2141333E+00 -0.2438874E+06
 0.2145333E+00 -0.2579434E+06
 0.2149333E+00 -0.2712982E+06
 0.2153333E+00 -0.2839058E+06
 0.2157333E+00 -0.2957238E+06
 0.2161333E+00 -0.3067136E+06
 0.2165333E+00 -0.3168403E+06
 0.2169333E+00 -0.3260736E+06
 0.2173333E+00 -0.3343873E+06
 0.2177333E+00 -0.3417597E+06
 0.2181333E+00 -0.3481735E+06
 0.2185333E+00 -0.3536160E+06
 0.2189333E+00 -0.3580793E+06
 0.2193333E+00 -0.3615598E+06
 0.2197333E+00 -0.3640588E+06
 0.2201333E+00 -0.3655817E+06
 0.2205333E+00 -0.3661386E+06
 0.2209333E+00 -0.3657436E+06
 0.2213333E+00 -0.3644153E+06
 0.2217333E+00 -0.3621759E+06
 0.2221333E+00 -0.3590514E+06
 0.2225333E+00 -0.3550716E+06
 0.2229333E+00 -0.3502692E+06
 0.2233333E+00 -0.3446803E+06
 0.2237333E+00 -0.3383435E+06
 0.2241333E+00 -0.3313000E+06
 0.2245333E+00 -0.3235932E+06
 0.2249333E+00 -0.3152684E+06
 0.2253333E+00 -0.3063725E+06
 0.2257333E+00 -0.2969536E+06
 0.2261333E+00 -0.2870609E+06
 0.2265333E+00 -0.2767442E+06
 0.2269333E+00 -0.2660538E+06
 0.2273333E+00 -0.2550399E+06
 0.2277333E+00 -0.2437527E+06
 0.2281333E+00 -0.2322419E+06
 0.2285333E+00 -0.2205564E+06
 0.2289333E+00 -0.2087441E+06
 0.2293333E+00 -0.1968518E+06
 0.2297333E+00 -0.1849249E+06
 0.2301333E+00 -0.1730071E+06
 0.2305333E+00 -0.1611402E+06
 0.2309333E+00 -0.1493643E+06
 0.2313333E+00 -0.1377173E+06
 0.2317333E+00 -0.1262347E+06
 0.2321333E+00 -0.1149500E+06
 0.2325333E+00 -0.1038942E+06
 0.2329333E+00 -0.9309580E+05
 0.2333333E+00 -0.8258079E+05
 0.2337333E+00 -0.7237270E+05
 0.2341333E+00 -0.6249251E+05
 0.2345333E+00 -0.5295864E+05
 0.2349333E+00 -0.4378704E+05
 0.2353333E+00 -0.3499118E+05
 0.2357333E+00 -0.2658210E+05
 0.2361333E+00 -0.1856853E+05
 0.2365333E+00 -0.1095691E+05
 0.2369333E+00 -0.3751540E+04
 0.2373333E+00  0.3045376E+04
 0.2377333E+00  0.9433586E+04
 0.2381333E+00  0.1541469E+05
 0.2385333E+00  0.2099202E+05
 0.2389333E+00  0.2617053E+05
 0.2393333E+00  0.3095664E+05
 0.2397333E+00  0.3535816E+05
 0.2401333E+00  0.3938411E+05
 0.2405333E+00  0.4304463E+05
 0.2409333E+00  0.4635085E+05
 0.2413333E+00  0.4931473E+05
 0.2417333E+00  0.5194898E+05
 0.2421333E+00  0.5426691E+05
 0.2425333E+00  0.5628233E+05
 0.2429333E+00  0.5800943E+05
 0.2433333E+00  0.5946268E+05
 0.2437333E+00  0.6065674E+05
 0.2441333E+00  0.6160635E+05
 0.2445333E+00  0.6232625E+05
 0.2449333E+00  0.6283112E+05
 0.2453333E+00  0.6313547E+05
 0.2457333E+00  0.6325361E+05
 0.2461333E+00  0.6319955E+05
 0.2465333E+00  0.6298697E+05
 0.2469333E+00  0.6262917E+05
 0.2473333E+00  0.6213899E+05
 0.2477333E+00  0.6152883E+05
 0.2481333E+00  0.6081057E+05
 0.2485333E+00  0.5999559E+05
 0.2489333E+00  0.5909471E+05
 0.2493333E+00  0.5811821E+05
 0.2497333E+00  0.5707584E+05
 0.2501333E+00  0.5597677E+05
 0.2505333E+00  0.5482962E+05
 0.2509333E+00  0.5364247E+05
 0.2513333E+00  0.5242284E+05
 0.2517333E+00  0.5117774E+05
 0.2521333E+00  0.4991361E+05
 0.2525333E+00  0.4863639E+05
 0.2529333E+00  0.4735152E+05
 0.2533333E+00  0.4606393E+05
 0.2537333E+00  0.4477810E+05
 0.2541333E+00  0.4349805E+05
 0.2545333E+00  0.4222736E+05
 0.2549333E+00  0.4096924E+05
 0.2553333E+00  0.3972649E+05
 0.2557333E+00  0.3850158E+05
 0.2561333E+00  0.3729664E+05
 0.2565333E+00  0.3611351E+05
 0.2569333E+00  0.3495373E+05
 0.2573333E+00  0.3381857E+05
 0.2577333E+00  0.3270906E+05
 0.2581333E+00  0.3162596E+05
 0.2585333E+00  0.3056984E+05
 0.2589333E+00  0.2954104E+05
 0.2593333E+00  0.2853968E+05
 0.2597333E+00  0.2756572E+05
 0.2601333E+00  0.2661895E+05
 0.2605333E+00  0.2569897E+05
 0.2609333E+00  0.2480525E+05
 0.2613333E+00  0.2393712E+05
 0.2617333E+00  0.2309376E+05
 0.2621333E+00  0.2227425E+05
 0.2625333E+00  0.2147753E+05
 0.2629333E+00  0.2070241E+05
 0.2633333E+00  0.1994760E+05
 0.2637333E+00  0.1921167E+05
 0.2641333E+00  0.1849306E+05
 0.2645333E+00  0.1779009E+05
 0.2649333E+00  0.1710097E+05
 0.2653333E+00  0.1642373E+05
 0.2657333E+00  0.1575629E+05
 0.2661333E+00  0.1509644E+05
 0.2665333E+00  0.1444177E+05
 0.2669333E+00  0.1378977E+05
 0.2673333E+00  0.1313772E+05
 0.2677333E+00  0.1248275E+05
 0.2681333E+00  0.1182180E+05
 0.2685333E+00  0.1115160E+05
 0.2689333E+00  0.1046870E+05
 0.2693333E+00  0.9769430E+04
 0.2697333E+00  0.9049895E+04
 0.2701333E+00  0.8305972E+04
 0.2705333E+00  0.7533301E+04
 0.2709333E+00  0.6727277E+04
 0.2713333E+00  0.5883039E+04
 0.2717333E+00  0.4995458E+04
 0.2721333E+00  0.4059132E+04
 0.2725333E+00  0.3068371E+04
 0.2729333E+00  0.2017184E+04
 0.2733333E+00  0.8992749E+03
 0.2737333E+00 -0.2919731E+03
 0.2741333E+00 -0.1563499E+04
 0.2745333E+00 -0.2922570E+04
 0.2749333E+00 -0.4376779E+04
 0.2753333E+00 -0.5934042E+04
 0.2757333E+00 -0.7602590E+04
 0.2761333E+00 -0.9390957E+04
 0.2765333E+00 -0.1130797E+05
 0.2769333E+00 -0.1336273E+05
 0.2773333E+00 -0.1556458E+05
 0.2777333E+00 -0.1792314E+05
 0.2781333E+00 -0.2044819E+05
 0.2785333E+00 -0.2314975E+05
 0.2789333E+00 -0.2603797E+05
 0.2793333E+00 -0.2912315E+05
 0.2797333E+00 -0.3241567E+05
 0.2801333E+00 -0.3592595E+05
 0.2805333E+00 -0.3966443E+05
 0.2809333E+00 -0.4364146E+05
 0.2813333E+00 -0.4786727E+05
 0.2817333E+00 -0.5235189E+05
 0.2821333E+00 -0.5710505E+05
 0.2825333E+00 -0.6213612E+05
 0.2829333E+00 -0.6745399E+05
 0.2833333E+00 -0.7306702E+05
 0.2837333E+00 -0.7898287E+05
 0.2841333E+00 -0.8520848E+05
 0.2845333E+00 -0.9174989E+05
 0.2849333E+00 -0.9861218E+05
 0.2853333E+00 -0.1057993E+06
 0.2857333E+00 -0.1133141E+06
 0.2861333E+00 -0.1211578E+06
 0.2865333E+00 -0.1293305E+06
 0.2869333E+00 -0.1378306E+06
 0.2873333E+00 -0.1466545E+06
 0.2877333E+00 -0.1557972E+06
 0.2881333E+00 -0.1652514E+06
 0.2885333E+00 -0.1750078E+06
 0.2889333E+00 -0.1850548E+06
 0.2893333E+00 -0.1953787E+06
 0.2897333E+00 -0.2059631E+06
 0.2901333E+00 -0.2167892E+06
 0.2905333E+00 -0.2278355E+06
 0.2909333E+00 -0.2390781E+06
 0.2913333E+00 -0.2504899E+06
 0.2917333E+00 -0.2620414E+06
 0.2921333E+00 -0.2737001E+06
 0.2925333E+00 -0.2854307E+06
 0.2929333E+00 -0.2971952E+06
 0.2933333E+00 -0.3089527E+06
 0.2937333E+00 -0.3206597E+06
 0.2941333E+00 -0.3322699E+06
 0.2945333E+00 -0.3437347E+06
 0.2949333E+00 -0.3550028E+06
 0.2953333E+00 -0.3660209E+06
 0.2957333E+00 -0.3767336E+06
 0.2961333E+00 -0.3870834E+06
 0.2965333E+00 -0.3970114E+06
 0.2969333E+00 -0.4064572E+06
 0.2973333E+00 -0.4153594E+06
 0.2977333E+00 -0.4236556E+06
 0.2981333E+00 -0.4312829E+06
 0.2985333E+00 -0.4381786E+06
 0.2989333E+00 -0.4442798E+06
 0.2993333E+00 -0.4495245E+06
 0.2997333E+00 -0.4538514E+06
 0.3001333E+00 -0.4572010E+06
 0.3005333E+00 -0.4595154E+06
 0.3009333E+00 -0.4607390E+06
 0.3013333E+00 -0.4608189E+06
 0.3017333E+00 -0.4597055E+06
 0.3021333E+00 -0.4573524E+06
 0.3025333E+00 -0.4537176E+06
 0.3029333E+00 -0.4487632E+06
 0.3033333E+00 -0.4424564E+06
 0.3037333E+00 -0.4347691E+06
 0.3041333E+00 -0.4256792E+06
 0.3045333E+00 -0.4151702E+06
 0.3049333E+00 -0.4032319E+06
 0.3053333E+00 -0.3898603E+06
 0.3057333E+00 -0.3750583E+06
 0.3061333E+00 -0.3588356E+06
 0.3065333E+00 -0.3412087E+06
 0.3069333E+00 -0.3222015E+06
 0.3073333E+00 -0.3018449E+06
 0.3077333E+00 -0.2801772E+06
 0.3081333E+00 -0.2572437E+06
 0.3085333E+00 -0.2330968E+06
 0.3089333E+00 -0.2077959E+06
 0.3093333E+00 -0.1814073E+06
 0.3097333E+00 -0.1540036E+06
 0.3101333E+00 -0.1256639E+06
 0.3105333E+00 -0.9647295E+05
 0.3109333E+00 -0.6652121E+05
 0.3113333E+00 -0.3590422E+05
 0.3117333E+00 -0.4722157E+04
 0.3121333E+00  0.2692067E+05
 0.3125333E+00  0.5891631E+05
 0.3129333E+00  0.9115381E+05
 0.3133333E+00  0.1235197E+06
 0.3137333E+00  0.1558988E+06
 0.3141333E+00  0.1881745E+06
 0.3145333E+00  0.2202298E+06
 0.3149333E+00  0.2519478E+06
 0.3153333E+00  0.2832123E+06
 0.3157333E+00  0.3139086E+06
 0.3161333E+00  0.3439240E+06
 0.3165333E+00  0.3731485E+06
 0.3169333E+00  0.4014755E+06
 0.3173333E+00  0.4288024E+06
 0.3177333E+00  0.4550310E+06
 0.3181333E+00  0.4800683E+06
 0.3185333E+00  0.5038270E+06
 0.3189333E+00  0.5262255E+06
 0.3193333E+00  0.5471891E+06
 0.3197333E+00  0.5666496E+06
 0.3201333E+00  0.5845464E+06
 0.3205333E+00  0.6008263E+06
 0.3209333E+00  0.6154437E+06
 0.3213333E+00  0.6283611E+06
 0.3217333E+00  0.6395489E+06
 0.3221333E+00  0.6489861E+06
 0.3225333E+00  0.6566592E+06
 0.3229333E+00  0.6625635E+06
 0.3233333E+00  0.6667019E+06
 0.3237333E+00  0.6690854E+06
 0.3241333E+00  0.6697330E+06
 0.3245333E+00  0.6686709E+06
 0.3249333E+00  0.6659326E+06
 0.3253333E+00  0.6615588E+06
 0.3257333E+00  0.6555965E+06
 0.3261333E+00  0.6480991E+06
 0.3265333E+00  0.6391256E+06
 0.3269333E+00  0.6287407E+06
 0.3273333E+00  0.6170135E+06
 0.3277333E+00  0.6040178E+06
 0.3281333E+00  0.5898311E+06
 0.3285333E+00  0.5745343E+06
 0.3289333E+00  0.5582111E+06
 0.3293333E+00  0.5409474E+06
 0.3297333E+00  0.5228309E+06
 0.3301333E+00  0.5039507E+06
 0.3305333E+00  0.4843963E+06
 0.3309333E+00  0.4642578E+06
 0.3313333E+00  0.4436245E+06
 0.3317333E+00  0.4225854E+06
 0.3321333E+00  0.4012280E+06
 0.3325333E+00  0.3796382E+06
 0.3329333E+00  0.3579000E+06