 -6.666666666666667E-002    0.000000000000000E+000
 -6.626666666666667E-002    0.000000000000000E+000
 -6.586666666666667E-002    0.000000000000000E+000
 -6.546666666666666E-002    0.000000000000000E+000
 -6.506666666666666E-002    0.000000000000000E+000
 -6.466666666666666E-002    0.000000000000000E+000
 -6.426666666666667E-002    0.000000000000000E+000
 -6.386666666666667E-002    0.000000000000000E+000
 -6.346666666666667E-002    0.000000000000000E+000
 -6.306666666666666E-002    0.000000000000000E+000
 -6.266666666666666E-002    0.000000000000000E+000
 -6.226666666666666E-002    0.000000000000000E+000
 -6.186666666666667E-002    0.000000000000000E+000
 -6.146666666666666E-002    0.000000000000000E+000
 -6.106666666666666E-002    0.000000000000000E+000
 -6.066666666666667E-002    0.000000000000000E+000
 -6.026666666666666E-002    0.000000000000000E+000
 -5.986666666666667E-002    0.000000000000000E+000
 -5.946666666666667E-002    0.000000000000000E+000
 -5.906666666666666E-002    0.000000000000000E+000
 -5.866666666666667E-002    0.000000000000000E+000
 -5.826666666666666E-002    0.000000000000000E+000
 -5.786666666666666E-002    0.000000000000000E+000
 -5.746666666666667E-002    0.000000000000000E+000
 -5.706666666666667E-002    0.000000000000000E+000
 -5.666666666666666E-002    0.000000000000000E+000
 -5.626666666666667E-002    0.000000000000000E+000
 -5.586666666666666E-002    0.000000000000000E+000
 -5.546666666666666E-002    0.000000000000000E+000
 -5.506666666666667E-002    0.000000000000000E+000
 -5.466666666666667E-002    0.000000000000000E+000
 -5.426666666666666E-002    0.000000000000000E+000
 -5.386666666666667E-002    0.000000000000000E+000
 -5.346666666666666E-002    0.000000000000000E+000
 -5.306666666666666E-002    0.000000000000000E+000
 -5.266666666666667E-002    0.000000000000000E+000
 -5.226666666666666E-002    0.000000000000000E+000
 -5.186666666666667E-002    0.000000000000000E+000
 -5.146666666666667E-002    0.000000000000000E+000
 -5.106666666666666E-002    0.000000000000000E+000
 -5.066666666666667E-002    0.000000000000000E+000
 -5.026666666666667E-002    0.000000000000000E+000
 -4.986666666666666E-002    0.000000000000000E+000
 -4.946666666666667E-002    0.000000000000000E+000
 -4.906666666666666E-002    0.000000000000000E+000
 -4.866666666666666E-002    0.000000000000000E+000
 -4.826666666666667E-002    0.000000000000000E+000
 -4.786666666666667E-002    0.000000000000000E+000
 -4.746666666666666E-002    0.000000000000000E+000
 -4.706666666666667E-002    0.000000000000000E+000
 -4.666666666666666E-002    0.000000000000000E+000
 -4.626666666666666E-002    0.000000000000000E+000
 -4.586666666666667E-002    0.000000000000000E+000
 -4.546666666666667E-002    0.000000000000000E+000
 -4.506666666666666E-002    0.000000000000000E+000
 -4.466666666666666E-002    0.000000000000000E+000
 -4.426666666666666E-002    0.000000000000000E+000
 -4.386666666666666E-002    0.000000000000000E+000
 -4.346666666666667E-002    0.000000000000000E+000
 -4.306666666666667E-002    0.000000000000000E+000
 -4.266666666666667E-002    0.000000000000000E+000
 -4.226666666666666E-002    0.000000000000000E+000
 -4.186666666666666E-002    0.000000000000000E+000
 -4.146666666666667E-002    0.000000000000000E+000
 -4.106666666666667E-002    0.000000000000000E+000
 -4.066666666666666E-002    0.000000000000000E+000
 -4.026666666666667E-002    0.000000000000000E+000
 -3.986666666666666E-002    0.000000000000000E+000
 -3.946666666666666E-002    0.000000000000000E+000
 -3.906666666666667E-002    0.000000000000000E+000
 -3.866666666666667E-002    0.000000000000000E+000
 -3.826666666666666E-002    0.000000000000000E+000
 -3.786666666666666E-002    0.000000000000000E+000
 -3.746666666666666E-002    0.000000000000000E+000
 -3.706666666666666E-002    0.000000000000000E+000
 -3.666666666666667E-002    0.000000000000000E+000
 -3.626666666666667E-002    0.000000000000000E+000
 -3.586666666666666E-002    0.000000000000000E+000
 -3.546666666666666E-002    0.000000000000000E+000
 -3.506666666666666E-002    0.000000000000000E+000
 -3.466666666666667E-002    0.000000000000000E+000
 -3.426666666666667E-002    0.000000000000000E+000
 -3.386666666666666E-002    0.000000000000000E+000
 -3.346666666666667E-002    0.000000000000000E+000
 -3.306666666666666E-002    0.000000000000000E+000
 -3.266666666666666E-002    0.000000000000000E+000
 -3.226666666666667E-002    0.000000000000000E+000
 -3.186666666666666E-002   -6.956652874688149E-039
 -3.146666666666666E-002   -1.903001284158163E-038
 -3.106666666666667E-002   -3.370570124570618E-038
 -3.066666666666666E-002   -4.563395103699289E-038
 -3.026666666666666E-002   -5.035889419008048E-038
 -2.986666666666667E-002   -4.421478603610771E-038
 -2.946666666666666E-002   -1.620056704381628E-038
 -2.906666666666666E-002    3.903365275388536E-038
 -2.866666666666667E-002    1.254077734785905E-037
 -2.826666666666666E-002    2.350408347680658E-037
 -2.786666666666666E-002    3.389896686084032E-037
 -2.746666666666667E-002    4.045231540829386E-037
 -2.706666666666666E-002    3.822504701991690E-037
 -2.666666666666666E-002    2.169996634055159E-037
 -2.626666666666666E-002   -1.341213047542981E-037
 -2.586666666666666E-002   -6.765928255841998E-037
 -2.546666666666667E-002   -1.363547081031716E-036
 -2.506666666666666E-002   -2.067101376736228E-036
 -2.466666666666666E-002   -2.574758380355062E-036
 -2.426666666666667E-002   -2.604234184517216E-036
 -2.386666666666666E-002   -1.846228462204844E-036
 -2.346666666666666E-002   -4.718217952581109E-038
 -2.306666666666667E-002    2.876227845357908E-036
 -2.266666666666666E-002    6.717683948583194E-036
 -2.226666666666666E-002    1.086697347182770E-035
 -2.186666666666667E-002    1.426311311137031E-035
 -2.146666666666666E-002    1.545243230441826E-035
 -2.106666666666666E-002    1.279883780050625E-035
 -2.066666666666667E-002    4.863963932187573E-036
 -2.026666666666666E-002   -9.060700144300484E-036
 -1.986666666666666E-002   -2.834407771452891E-035
 -1.946666666666667E-002   -5.046437008216948E-035
 -1.906666666666666E-002   -7.070584748816618E-035
 -1.866666666666666E-002   -8.232294502799980E-035
 -1.826666666666666E-002   -7.736622930329759E-035
 -1.786666666666666E-002   -4.827875292341912E-035
 -1.746666666666667E-002    9.792341002664837E-036
 -1.706666666666666E-002    9.625314986516236E-035
 -1.666666666666666E-002    2.024304384337477E-034
 -1.626666666666667E-002    3.098325076262023E-034
 -1.586666666666666E-002    3.902168144381700E-034
 -1.546666666666666E-002    4.083292371347685E-034
 -1.506666666666667E-002    3.278692943394889E-034
 -1.466666666666666E-002    1.206291099484893E-034
 -1.426666666666666E-002   -2.221190722534243E-034
 -1.386666666666667E-002   -6.779417611714398E-034
 -1.346666666666666E-002   -1.184205598419791E-033
 -1.306666666666666E-002   -1.635269762132159E-033
 -1.266666666666667E-002   -1.889501428658006E-033
 -1.226666666666666E-002   -1.788778170222559E-033
 -1.186666666666666E-002   -1.191111265327099E-033
 -1.146666666666666E-002   -1.394279501983971E-035
 -1.106666666666666E-002    1.718124920879500E-033
 -1.066666666666666E-002    3.831250795447984E-033
 -1.026666666666666E-002    5.978942388639147E-033
 -9.866666666666662E-003    7.651228797268866E-033
 -9.466666666666665E-003    8.228140884300056E-033
 -9.066666666666660E-003    7.083201291284913E-033
 -8.666666666666663E-003    3.732700106106807E-033
 -8.266666666666665E-003   -1.986428446534820E-033
 -7.866666666666661E-003   -9.741309951696591E-033
 -7.466666666666663E-003   -1.857372487484880E-032
 -7.066666666666666E-003   -2.686633717367263E-032
 -6.666666666666661E-003   -3.245140157504471E-032
 -6.266666666666663E-003   -3.289350255219146E-032
 -5.866666666666666E-003   -2.594912701778317E-032
 -5.466666666666661E-003   -1.016535657067185E-032
 -5.066666666666664E-003    1.446733140279859E-032
 -4.666666666666666E-003    4.593844586453053E-032
 -4.266666666666662E-003    7.987956702209922E-032
 -3.866666666666657E-003    1.096341624378712E-031
 -3.466666666666660E-003    1.268743514583940E-031
 -3.066666666666662E-003    1.228306991506773E-031
 -2.666666666666664E-003    9.008667864859973E-032
 -2.266666666666667E-003    2.474399039180750E-032
 -1.866666666666669E-003   -7.138913356045459E-032
 -1.466666666666658E-003   -1.890654588320239E-031
 -1.066666666666660E-003   -3.108709138517488E-031
 -6.666666666666626E-004   -4.120235428195645E-031
 -2.666666666666651E-004   -4.630688736104126E-031
  1.333333333333325E-004   -4.345553819364635E-031
  5.333333333333440E-004   -3.033700302693905E-031
  9.333333333333416E-004   -5.994388768781433E-032
  1.333333333333339E-003    2.849209697369235E-031
  1.733333333333337E-003    6.951953345543552E-031
  2.133333333333334E-003    1.108442298524986E-030
  2.533333333333332E-003    1.439804748260089E-030
  2.933333333333343E-003    1.592053460622272E-030
  3.333333333333341E-003    1.471599560074193E-030
  3.733333333333338E-003    1.009094266476070E-030
  4.133333333333336E-003    1.818317440062928E-031
  4.533333333333334E-003   -9.660983844938420E-031
  4.933333333333331E-003   -2.310790761491989E-030
  5.333333333333343E-003   -3.647587781343188E-030
  5.733333333333340E-003   -4.706254237560446E-030
  6.133333333333338E-003   -5.184253470396233E-030
  6.533333333333335E-003   -4.797046916422473E-030
  6.933333333333333E-003   -3.340554260871879E-030
  7.333333333333344E-003   -7.569965220502657E-031
  7.733333333333342E-003    2.808005112422624E-030
  8.133333333333340E-003    6.971063743608284E-030
  8.533333333333337E-003    1.111303713247752E-029
  8.933333333333335E-003    1.442785792653606E-029
  9.333333333333332E-003    1.602245518970248E-029
  9.733333333333344E-003    1.506324900290378E-029
  1.013333333333334E-002    1.095429090911719E-029
  1.053333333333334E-002    3.521707990940838E-030
  1.093333333333334E-002   -6.829303811267725E-030
  1.133333333333333E-002   -1.902286728997926E-029
  1.173333333333333E-002   -3.132214206034301E-029
  1.213333333333334E-002   -4.146690139459284E-029
  1.253333333333334E-002   -4.694840042491853E-029
  1.293333333333334E-002   -4.540748278450341E-029
  1.333333333333334E-002   -3.511486485925395E-029
  1.373333333333333E-002   -1.546601258729529E-029
  1.413333333333334E-002    1.259761844770921E-029
  1.453333333333334E-002    4.633870350543818E-029
  1.493333333333334E-002    8.123714599360717E-029
  1.533333333333334E-002    1.113325903083519E-028
  1.573333333333334E-002    1.299196092891244E-028
  1.613333333333333E-002    1.305597397709275E-028
  1.653333333333334E-002    1.083078467864311E-028
  1.693333333333334E-002    6.098556031645412E-029
  1.733333333333334E-002   -9.715803155854114E-030
  1.773333333333334E-002   -9.754311244965693E-029
  1.813333333333333E-002   -1.916254748092265E-028
  1.853333333333333E-002   -2.772211533642174E-028
  1.893333333333334E-002   -3.373304321302326E-028
  1.933333333333334E-002   -3.550997057550873E-028
  1.973333333333334E-002   -3.167840131427661E-028
  2.013333333333334E-002   -2.148827839497863E-028
  2.053333333333333E-002   -5.094312017604048E-029
  2.093333333333333E-002    1.625333412704732E-028
  2.133333333333334E-002    4.016174025985582E-028
  2.173333333333334E-002    6.323241317985887E-028
  2.213333333333334E-002    8.140147073081381E-028
  2.253333333333334E-002    9.047066131558947E-028
  2.293333333333333E-002    8.678166605112770E-028
  2.333333333333334E-002    6.795132508631868E-028
  2.373333333333334E-002    3.355720266496561E-028
  2.413333333333334E-002   -1.435244930021883E-028
  2.453333333333334E-002   -7.104769032250281E-028
  2.493333333333334E-002   -1.293039638376360E-027
  2.533333333333333E-002   -1.800409718030512E-027
  2.573333333333334E-002   -2.134026706165252E-027
  2.613333333333334E-002   -2.201927505449058E-027
  2.653333333333334E-002   -1.935036992295986E-027
  2.693333333333334E-002   -1.303130341669122E-027
  2.733333333333333E-002   -3.278042094171829E-028
  2.773333333333333E-002    9.102449097334611E-028
  2.813333333333334E-002    2.271947916060152E-027
  2.853333333333334E-002    3.570050973426676E-027
  2.893333333333334E-002    4.588989689822849E-027
  2.933333333333334E-002    5.113147989572805E-027
  2.973333333333333E-002    4.960626498553997E-027
  3.013333333333335E-002    4.018215628236353E-027
  3.053333333333334E-002    2.272298967049588E-027
  3.093333333333334E-002   -1.699306663388061E-028
  3.133333333333334E-002   -3.074035893723310E-027
  3.173333333333334E-002   -6.090379770311126E-027
  3.213333333333333E-002   -8.786110193565308E-027
  3.253333333333334E-002   -1.069570692750259E-026
  3.293333333333334E-002   -1.138558091590372E-026
  3.333333333333334E-002   -1.052528043241337E-026
  3.373333333333334E-002   -7.955571305254485E-027
  3.413333333333333E-002   -3.742508321087994E-027
  3.453333333333333E-002    1.793069916830205E-027
  3.493333333333334E-002    8.079164080688398E-027
  3.533333333333334E-002    1.433428260357823E-026
  3.573333333333334E-002    1.964710932584876E-026
  3.613333333333334E-002    2.308840780183598E-026
  3.653333333333333E-002    2.384367540589189E-026
  3.693333333333335E-002    2.135016108548810E-026
  3.733333333333334E-002    1.541873760388611E-026
  3.773333333333334E-002    6.320439378639932E-027
  3.813333333333334E-002   -5.180358351603490E-027
  3.853333333333334E-002   -1.785884131518980E-026
  3.893333333333333E-002   -3.013368183592200E-026
  3.933333333333335E-002   -4.023723467935649E-026
  3.973333333333334E-002   -4.643693838046140E-026
  4.013333333333334E-002   -4.728335762392273E-026
  4.053333333333334E-002   -4.185317362141256E-026
  4.093333333333334E-002   -2.995182939159708E-026
  4.133333333333333E-002   -1.224184901514073E-026
  4.173333333333334E-002    9.731072675397438E-027
  4.213333333333334E-002    3.363093859141079E-026
  4.253333333333334E-002    5.654531950875698E-026
  4.293333333333334E-002    7.530540704445884E-026
  4.333333333333333E-002    8.688066396628157E-026
  4.373333333333335E-002    8.880248647395337E-026
  4.413333333333334E-002    7.956194815549833E-026
  4.453333333333334E-002    5.892429055083148E-026
  4.493333333333334E-002    2.810821198232989E-026
  4.533333333333334E-002   -1.020890679287365E-026
  4.573333333333333E-002   -5.207853983151275E-026
  4.613333333333335E-002   -9.265559955245375E-026
  4.653333333333334E-002   -1.267281836937430E-025
  4.693333333333334E-002   -1.493465273407118E-025
  4.733333333333334E-002   -1.564769759164644E-025
  4.773333333333334E-002   -1.455968632301876E-025
  4.813333333333333E-002   -1.161474819322619E-025
  4.853333333333334E-002   -6.977493039480576E-026
  4.893333333333334E-002   -1.031178255105579E-026
  4.933333333333334E-002    5.651618704389131E-026
  4.973333333333334E-002    1.236386287302617E-025
  5.013333333333334E-002    1.833900006157338E-025
  5.053333333333335E-002    2.283759020548791E-025
  5.093333333333334E-002    2.523530895794823E-025
  5.133333333333334E-002    2.510140754287284E-025
  5.173333333333334E-002    2.225753677215572E-025
  5.213333333333334E-002    1.680917280728082E-025
  5.253333333333333E-002    9.145218832434146E-026
  5.293333333333335E-002   -9.453018000733850E-028
  5.333333333333334E-002   -1.008022513318628E-025
  5.373333333333334E-002   -1.987365072535993E-025
  5.413333333333334E-002   -2.852073421097897E-025
  5.453333333333334E-002   -3.514379922485348E-025
  5.493333333333333E-002   -3.902302964259848E-025
  5.533333333333335E-002   -3.965875211625876E-025
  5.573333333333334E-002   -3.680943529016623E-025
  5.613333333333334E-002   -3.050426065704409E-025
  5.653333333333334E-002   -2.103287165305058E-025
  5.693333333333334E-002   -8.917995130056865E-026
  5.733333333333333E-002    5.121763112346104E-026
  5.773333333333334E-002    2.021178602837685E-025
  5.813333333333334E-002    3.535864343058879E-025
  5.853333333333334E-002    4.948257043588479E-025
  5.893333333333335E-002    6.144718875149036E-025
  5.933333333333334E-002    7.009225725680974E-025
  5.973333333333335E-002    7.427786551512192E-025
  6.013333333333333E-002    7.294906217698600E-025
  6.053333333333334E-002    6.522778477863628E-025
  6.093333333333335E-002    5.053400320729102E-025
  6.133333333333334E-002    2.873062898112808E-025
  6.173333333333335E-002    2.780146345824015E-027
  6.213333333333333E-002   -3.362493685904696E-025
  6.253333333333334E-002   -7.094268638730420E-025
  6.293333333333333E-002   -1.087808331686663E-024
  6.333333333333334E-002   -1.434705143501738E-024
  6.373333333333335E-002   -1.707818095396486E-024
  6.413333333333333E-002   -1.862742989116921E-024
  6.453333333333335E-002   -1.857732748482863E-024
  6.493333333333333E-002   -1.659377176551030E-024
  6.533333333333334E-002   -1.248637636067757E-024
  6.573333333333335E-002   -6.264835419598000E-025
  6.613333333333334E-002    1.817347593577704E-025
  6.653333333333335E-002    1.124054778937657E-024
  6.693333333333333E-002    2.122572455360787E-024
  6.733333333333334E-002    3.077524784757708E-024
  6.773333333333335E-002    3.874929963797025E-024
  6.813333333333334E-002    4.397471500243414E-024
  6.853333333333335E-002    4.537824304639111E-024
  6.893333333333333E-002    4.213156753047011E-024
  6.933333333333334E-002    3.379176424288541E-024
  6.973333333333333E-002    2.041876573466633E-024
  7.013333333333334E-002    2.651559129307822E-025
  7.053333333333335E-002   -1.827275533596446E-024
  7.093333333333333E-002   -4.056797527576102E-024
  7.133333333333335E-002   -6.201984404081799E-024
  7.173333333333333E-002   -8.017474356253995E-024
  7.213333333333334E-002   -9.258266190544107E-024
  7.253333333333335E-002   -9.707288748051412E-024
  7.293333333333334E-002   -9.203419746662862E-024
  7.333333333333335E-002   -7.666746723063688E-024
  7.373333333333333E-002   -5.117826561603114E-024
  7.413333333333334E-002   -1.688060222140097E-024
  7.453333333333335E-002    2.380984354224263E-024
  7.493333333333334E-002    6.750394862280773E-024
  7.533333333333335E-002    1.100870854971832E-023
  7.573333333333333E-002    1.470711987290147E-023
  7.613333333333334E-002    1.740226532203596E-023
  7.653333333333333E-002    1.870266633670339E-023
  7.693333333333334E-002    1.831419743638637E-023
  7.733333333333335E-002    1.607972779994429E-023
  7.773333333333333E-002    1.200835362812074E-023
  7.813333333333335E-002    6.290446163974543E-024
  7.853333333333333E-002   -7.040479232893016E-025
  7.893333333333334E-002   -8.445015026856278E-024
  7.933333333333335E-002   -1.627857071034371E-023
  7.973333333333334E-002   -2.347798510312040E-023
  8.013333333333335E-002   -2.930520291999828E-023
  8.053333333333333E-002   -3.307782855895805E-023
  8.093333333333334E-002   -3.423579276903634E-023
  8.133333333333335E-002   -3.240174748726679E-023
  8.173333333333334E-002   -2.742960931353353E-023
  8.213333333333335E-002   -1.943651732085076E-023
  8.253333333333333E-002   -8.814750034831676E-024
  8.293333333333335E-002    3.778382732104227E-024
  8.333333333333333E-002    1.745298527437836E-023
  8.373333333333334E-002    3.114009703635820E-023
  8.413333333333335E-002    4.366340840482594E-023
  8.453333333333334E-002    5.382509440122365E-023
  8.493333333333335E-002    6.050045717592816E-023
  8.533333333333333E-002    6.273535601703463E-023
  8.573333333333334E-002    5.983978289548496E-023
  8.613333333333335E-002    5.147067577223356E-023
  8.653333333333334E-002    3.769711344056459E-023
  8.693333333333335E-002    1.904133016193144E-023
  8.733333333333333E-002   -3.510248575842943E-024
  8.773333333333334E-002   -2.853055070146244E-023
  8.813333333333336E-002   -5.421294209289437E-023
  8.853333333333334E-002   -7.847046914891716E-023
  8.893333333333335E-002   -9.907117670045897E-023
  8.933333333333333E-002   -1.138040727563735E-022
  8.973333333333335E-002   -1.206669472863627E-022
  9.013333333333333E-002   -1.180636080599007E-022
  9.053333333333334E-002   -1.049951982846906E-022
  9.093333333333335E-002   -8.122787282697456E-023
  9.133333333333334E-002   -4.741826158745399E-023
  9.173333333333335E-002   -5.178713465029005E-024
  9.213333333333333E-002    4.293291174076655E-023
  9.253333333333334E-002    9.350954248981142E-023
  9.293333333333335E-002    1.424813369592161E-022
  9.333333333333334E-002    1.853881797408265E-022
  9.373333333333335E-002    2.177250426097480E-022
  9.413333333333333E-002    2.353381904496442E-022
  9.453333333333334E-002    2.348417797645028E-022
  9.493333333333336E-002    2.140183848356720E-022
  9.533333333333334E-002    1.721636439158721E-022
  9.573333333333335E-002    1.103355828519096E-022
  9.613333333333333E-002    3.147338825087097E-023
  9.653333333333335E-002   -5.964079899173297E-023
  9.693333333333333E-002   -1.565919091895511E-022
  9.733333333333334E-002   -2.517131779875654E-022
  9.773333333333335E-002   -3.366222659506911E-022
  9.813333333333334E-002   -4.028789233216569E-022
  9.853333333333335E-002   -4.427169371660070E-022
  9.893333333333333E-002   -4.497909598215453E-022
  9.933333333333334E-002   -4.198729467439476E-022
  9.973333333333335E-002   -3.514312455054888E-022
  0.100133333333333        -2.460308749017373E-022
  0.100533333333333        -1.085044810387384E-022
  0.100933333333333         5.313961833694245E-023
  0.101333333333333         2.280862520201306E-022
  0.101733333333333         4.033491969651623E-022
  0.102133333333333         5.646413121921569E-022
  0.102533333333333         6.974247406678609E-022
  0.102933333333333         7.880679193741695E-022
  0.103333333333333         8.250242972890219E-022
  0.103733333333333         7.999396414674775E-022
  0.104133333333333         7.085956900679427E-022
  0.104533333333333         5.516053553229392E-022
  0.104933333333333         3.347881153082552E-022
  0.105333333333333         6.917432361516041E-023
  0.105733333333333        -2.293883031005936E-022
  0.106133333333333        -5.410257915305963E-022
  0.106533333333333        -8.429977830186101E-022
  0.106933333333333        -1.111168653585622E-021
  0.107333333333333        -1.321706761385398E-021
  0.107733333333333        -1.452906355334612E-021
  0.108133333333333        -1.487009704254410E-021
  0.108533333333333        -1.411896763880892E-021
  0.108933333333333        -1.222508527509404E-021
  0.109333333333333        -9.218749272552197E-022
  0.109733333333333        -5.216369849670373E-022
  0.110133333333333        -4.197660927473097E-023
  0.110533333333333         4.890974855626457E-022
  0.110933333333333         1.037115578987295E-021
  0.111333333333333         1.563125529934505E-021
  0.111733333333333         2.026194415122555E-021
  0.112133333333333         2.386292387207432E-021
  0.112533333333333         2.607374802044007E-021
  0.112933333333333         2.660441381870477E-021
  0.113333333333333         2.526332524492852E-021
  0.113733333333333         2.198018092081247E-021
  0.114133333333333         1.682150709390325E-021
  0.114533333333333         9.996947588556151E-022
  0.114933333333333         1.855000196518430E-022
  0.115333333333333        -7.132335675538374E-022
  0.115733333333333        -1.639567269771272E-021
  0.116133333333333        -2.530382180435779E-021
  0.116533333333333        -3.320668905337919E-021
  0.116933333333333        -3.948249310651435E-021
  0.117333333333333        -4.358574653701043E-021
  0.117733333333333        -4.509214365521736E-021
  0.118133333333333        -4.373648459617885E-021
  0.118533333333333        -3.944013780208619E-021
  0.118933333333333        -3.232524759310814E-021
  0.119333333333333        -2.271388520401627E-021
  0.119733333333333        -1.111154643310911E-021
  0.120133333333333         1.824276496840726E-022
  0.120533333333333         1.532836050427628E-021
  0.120933333333333         2.858162635223490E-021
  0.121333333333333         4.077037823230406E-021
  0.121733333333333         5.114605640893201E-021
  0.122133333333333         5.908045409289638E-021
  0.122533333333333         6.411154727532309E-021
  0.122933333333333         6.597575518692667E-021
  0.123333333333333         6.462349013308100E-021
  0.123733333333333         6.021620300120250E-021
  0.124133333333333         5.310468179399024E-021
  0.124533333333333         4.379002816646621E-021
  0.124933333333333         3.287025009817715E-021
  0.125333333333333         2.097692518946139E-021
  0.125733333333333         8.707406971439509E-022
  0.126133333333333        -3.441107510050910E-022
  0.126533333333333        -1.512909441284622E-021
  0.126933333333333        -2.621741080078697E-021
  0.127333333333333        -3.678945943775497E-021
  0.127733333333333        -4.714830027187373E-021
  0.128133333333333        -5.778579228805996E-021
  0.128533333333333        -6.932291398751103E-021
  0.128933333333333        -8.242273340400640E-021
  0.129333333333333        -9.768006360141325E-021
  0.129733333333333        -1.154944998324165E-020
  0.130133333333333        -1.359360180295336E-020
  0.130533333333333        -1.586146449981419E-020
  0.130933333333333        -1.825674317345482E-020
  0.131333333333333        -2.061771572610193E-020
  0.131733333333333        -2.271372125381181E-020
  0.132133333333333        -2.424763321367369E-020
  0.132533333333333        -2.486545424999191E-020
  0.132933333333333        -2.417382139304334E-020
  0.133333333333333        -2.176573401850477E-020
  0.133733333333333        -1.725419922366725E-020
  0.134133333333333        -1.031282578782697E-020
  0.134533333333333        -7.216077591785842E-022
  0.134933333333333         1.158455368729205E-020
  0.135333333333333         2.646778079307724E-020
  0.135733333333333         4.354335859966408E-020
  0.136133333333333         6.214419228566525E-020
  0.136533333333333         8.129795260184287E-020
  0.136933333333333         9.972103099205150E-020
  0.137333333333333         1.158331150999964E-019
  0.137733333333333         1.277954445014604E-019
  0.138133333333333         1.335747321933007E-019
  0.138533333333333         1.310336416036716E-019
  0.138933333333333         1.180471514761625E-019
  0.139333333333333         9.264282532369484E-020
  0.139733333333333         5.316137183856816E-020
  0.140133333333333        -1.567250550011516E-021
  0.140533333333333        -7.203814802407482E-020
  0.140933333333333        -1.578828805439602E-019
  0.141333333333333        -2.576849164263915E-019
  0.141733333333333        -3.688061101039898E-019
  0.142133333333333        -4.872306524110660E-019
  0.142533333333333        -6.074317191625758E-019
  0.142933333333333        -7.222648694445533E-019
  0.143333333333333        -8.228902153259294E-019
  0.143733333333333        -8.987237424291305E-019
  0.144133333333333        -9.374150330780711E-019
  0.144533333333333        -9.248470495619340E-019
  0.144933333333333        -8.451516341602407E-019
  0.145333333333333        -6.807299397045377E-019
  0.145733333333333        -4.122681036613871E-019
  0.146133333333333        -1.873393273651547E-020
  0.146533333333333         5.226597867308932E-019
  0.146933333333333         1.236541048786827E-018
  0.147333333333333         2.149530240475403E-018
  0.147733333333333         3.290473115895808E-018
  0.148133333333333         4.690773464283891E-018
  0.148533333333333         6.384838940895902E-018
  0.148933333333333         8.410656659952548E-018
  0.149333333333333         1.081050613417055E-017
  0.149733333333333         1.363182844409352E-017
  0.150133333333333         1.692825156512491E-017
  0.150533333333333         2.076078184250402E-017
  0.150933333333333         2.519916568310647E-017
  0.151333333333333         3.032342085266606E-017
  0.151733333333333         3.622553919785218E-017
  0.152133333333333         4.301135452386188E-017
  0.152533333333333         5.080259059555287E-017
  0.152933333333333         5.973906030498131E-017
  0.153333333333333         6.998104572616118E-017
  0.153733333333333         8.171184204200017E-017
  0.154133333333333         9.514049641541528E-017
  0.154533333333333         1.105047152981674E-016
  0.154933333333333         1.280739966181550E-016
  0.155333333333333         1.481529845094130E-016
  0.155733333333333         1.710850768433358E-016
  0.156133333333333         1.972563256605885E-016
  0.156533333333333         2.270996634318414E-016
  0.156933333333333         2.610994662120001E-016
  0.157333333333333         2.997965722651158E-016
  0.157733333333333         3.437936265101206E-016
  0.158133333333333         3.937610665286343E-016
  0.158533333333333         4.504434617182902E-016
  0.158933333333333         5.146665443094353E-016
  0.159333333333333         5.873447155773605E-016
  0.159733333333333         6.694891948685213E-016
  0.160133333333333         7.622168663833379E-016
  0.160533333333333         8.667596092687409E-016
  0.160933333333333         9.844743355508864E-016
  0.161333333333333         1.116853752497473E-015
  0.161733333333333         1.265537571233897E-015
  0.162133333333333         1.432324518517394E-015
  0.162533333333333         1.619184742344105E-015
  0.162933333333333         1.828272861358158E-015
  0.163333333333333         2.061941540542980E-015
  0.163733333333333         2.322755555868008E-015
  0.164133333333333         2.613505921433280E-015
  0.164533333333333         2.937225227097835E-015
  0.164933333333333         3.297201814674733E-015
  0.165333333333333         3.696995732203686E-015
  0.165733333333333         4.140453559497234E-015
  0.166133333333333         4.631723629598195E-015
  0.166533333333333         5.175271417557351E-015
  0.166933333333333         5.775894104618324E-015
  0.167333333333333         6.438735095922605E-015
  0.167733333333333         7.169297769928841E-015
  0.168133333333333         7.973458601638532E-015