 -6.666666666666667E-002    0.000000000000000E+000
 -6.626666666666667E-002    0.000000000000000E+000
 -6.586666666666667E-002    0.000000000000000E+000
 -6.546666666666666E-002    0.000000000000000E+000
 -6.506666666666666E-002    0.000000000000000E+000
 -6.466666666666666E-002    0.000000000000000E+000
 -6.426666666666667E-002    0.000000000000000E+000
 -6.386666666666667E-002    0.000000000000000E+000
 -6.346666666666667E-002    0.000000000000000E+000
 -6.306666666666666E-002    0.000000000000000E+000
 -6.266666666666666E-002    0.000000000000000E+000
 -6.226666666666666E-002    0.000000000000000E+000
 -6.186666666666667E-002    0.000000000000000E+000
 -6.146666666666666E-002    0.000000000000000E+000
 -6.106666666666666E-002    0.000000000000000E+000
 -6.066666666666667E-002    0.000000000000000E+000
 -6.026666666666666E-002    0.000000000000000E+000
 -5.986666666666667E-002    0.000000000000000E+000
 -5.946666666666667E-002    0.000000000000000E+000
 -5.906666666666666E-002    0.000000000000000E+000
 -5.866666666666667E-002    0.000000000000000E+000
 -5.826666666666666E-002    0.000000000000000E+000
 -5.786666666666666E-002    0.000000000000000E+000
 -5.746666666666667E-002    0.000000000000000E+000
 -5.706666666666667E-002    0.000000000000000E+000
 -5.666666666666666E-002    0.000000000000000E+000
 -5.626666666666667E-002    0.000000000000000E+000
 -5.586666666666666E-002    0.000000000000000E+000
 -5.546666666666666E-002    0.000000000000000E+000
 -5.506666666666667E-002    0.000000000000000E+000
 -5.466666666666667E-002    0.000000000000000E+000
 -5.426666666666666E-002    0.000000000000000E+000
 -5.386666666666667E-002    0.000000000000000E+000
 -5.346666666666666E-002    0.000000000000000E+000
 -5.306666666666666E-002    0.000000000000000E+000
 -5.266666666666667E-002    0.000000000000000E+000
 -5.226666666666666E-002    0.000000000000000E+000
 -5.186666666666667E-002    0.000000000000000E+000
 -5.146666666666667E-002    0.000000000000000E+000
 -5.106666666666666E-002    0.000000000000000E+000
 -5.066666666666667E-002    0.000000000000000E+000
 -5.026666666666667E-002    0.000000000000000E+000
 -4.986666666666666E-002    0.000000000000000E+000
 -4.946666666666667E-002    0.000000000000000E+000
 -4.906666666666666E-002    0.000000000000000E+000
 -4.866666666666666E-002    0.000000000000000E+000
 -4.826666666666667E-002    0.000000000000000E+000
 -4.786666666666667E-002    0.000000000000000E+000
 -4.746666666666666E-002    0.000000000000000E+000
 -4.706666666666667E-002    0.000000000000000E+000
 -4.666666666666666E-002    0.000000000000000E+000
 -4.626666666666666E-002    0.000000000000000E+000
 -4.586666666666667E-002    0.000000000000000E+000
 -4.546666666666667E-002    0.000000000000000E+000
 -4.506666666666666E-002    0.000000000000000E+000
 -4.466666666666666E-002    0.000000000000000E+000
 -4.426666666666666E-002    0.000000000000000E+000
 -4.386666666666666E-002    0.000000000000000E+000
 -4.346666666666667E-002    0.000000000000000E+000
 -4.306666666666667E-002    0.000000000000000E+000
 -4.266666666666667E-002    0.000000000000000E+000
 -4.226666666666666E-002    0.000000000000000E+000
 -4.186666666666666E-002    0.000000000000000E+000
 -4.146666666666667E-002    0.000000000000000E+000
 -4.106666666666667E-002    0.000000000000000E+000
 -4.066666666666666E-002    0.000000000000000E+000
 -4.026666666666667E-002    0.000000000000000E+000
 -3.986666666666666E-002    0.000000000000000E+000
 -3.946666666666666E-002    0.000000000000000E+000
 -3.906666666666667E-002    0.000000000000000E+000
 -3.866666666666667E-002    0.000000000000000E+000
 -3.826666666666666E-002    0.000000000000000E+000
 -3.786666666666666E-002    0.000000000000000E+000
 -3.746666666666666E-002    0.000000000000000E+000
 -3.706666666666666E-002    0.000000000000000E+000
 -3.666666666666667E-002    0.000000000000000E+000
 -3.626666666666667E-002    0.000000000000000E+000
 -3.586666666666666E-002    0.000000000000000E+000
 -3.546666666666666E-002    0.000000000000000E+000
 -3.506666666666666E-002    0.000000000000000E+000
 -3.466666666666667E-002    0.000000000000000E+000
 -3.426666666666667E-002    0.000000000000000E+000
 -3.386666666666666E-002    0.000000000000000E+000
 -3.346666666666667E-002    0.000000000000000E+000
 -3.306666666666666E-002    0.000000000000000E+000
 -3.266666666666666E-002    0.000000000000000E+000
 -3.226666666666667E-002    0.000000000000000E+000
 -3.186666666666666E-002    7.008282846094081E-039
 -3.146666666666666E-002    1.905808166770225E-038
 -3.106666666666667E-002    3.391601682242949E-038
 -3.066666666666666E-002    4.574383557995470E-038
 -3.026666666666666E-002    4.950808400869218E-038
 -2.986666666666667E-002    4.385310442840158E-038
 -2.946666666666666E-002    1.669900611184352E-038
 -2.906666666666666E-002   -3.896466163682443E-038
 -2.866666666666667E-002   -1.261445055973939E-037
 -2.826666666666666E-002   -2.310601773854338E-037
 -2.786666666666666E-002   -3.343328583426617E-037
 -2.746666666666667E-002   -3.986546516017165E-037
 -2.706666666666666E-002   -3.740953860582705E-037
 -2.666666666666666E-002   -2.054228752685337E-037
 -2.626666666666666E-002    1.497090530528812E-037
 -2.586666666666666E-002    6.990318962926572E-037
 -2.546666666666667E-002    1.389493748777898E-036
 -2.506666666666666E-002    2.095620907251954E-036
 -2.466666666666666E-002    2.603245978232438E-036
 -2.426666666666667E-002    2.628447854192523E-036
 -2.386666666666666E-002    1.860855663110257E-036
 -2.346666666666666E-002    4.658664664669238E-038
 -2.306666666666667E-002   -2.897267384734043E-036
 -2.266666666666666E-002   -6.761114394817271E-036
 -2.226666666666666E-002   -1.092987789152439E-035
 -2.186666666666667E-002   -1.433546059746858E-035
 -2.146666666666666E-002   -1.551774434792035E-035
 -2.106666666666666E-002   -1.283346772226057E-035
 -2.066666666666667E-002   -4.839791423454754E-036
 -2.026666666666666E-002    9.171052735976767E-036
 -1.986666666666666E-002    2.855832769683162E-035
 -1.946666666666667E-002    5.078011397300482E-035
 -1.906666666666666E-002    7.108980086550369E-035
 -1.866666666666666E-002    8.270303598059450E-035
 -1.826666666666666E-002    7.762994772019098E-035
 -1.786666666666666E-002    4.828216678351670E-035
 -1.746666666666667E-002   -1.020210612046547E-035
 -1.706666666666666E-002   -9.719969489883374E-035
 -1.666666666666666E-002   -2.039586120902174E-034
 -1.626666666666667E-002   -3.118532177015627E-034
 -1.586666666666666E-002   -3.924591086203245E-034
 -1.546666666666666E-002   -4.103167335849789E-034
 -1.506666666666667E-002   -3.289393802735007E-034
 -1.466666666666666E-002   -1.200123410043673E-034
 -1.426666666666666E-002    2.251505858664683E-034
 -1.386666666666667E-002    6.838611997555657E-034
 -1.346666666666666E-002    1.192978163025527E-033
 -1.306666666666666E-002    1.646104990706373E-033
 -1.266666666666667E-002    1.900680208231449E-033
 -1.226666666666666E-002    1.797634755053728E-033
 -1.186666666666666E-002    1.194249826200666E-033
 -1.146666666666666E-002    7.746284613913393E-036
 -1.106666666666666E-002   -1.736687051530718E-033
 -1.066666666666666E-002   -3.863579245966066E-033
 -1.026666666666666E-002   -6.023682520541643E-033
 -9.866666666666662E-003   -7.703310853593331E-033
 -9.466666666666665E-003   -8.278302082358282E-033
 -9.066666666666660E-003   -7.118326645704112E-033
 -8.666666666666663E-003   -3.737266341166942E-033
 -8.266666666666665E-003    2.027661308086006E-033
 -7.866666666666661E-003    9.839473406730216E-033
 -7.466666666666663E-003    1.873131076425183E-032
 -7.066666666666666E-003    2.707276051744133E-032
 -6.666666666666661E-003    3.267976496931336E-032
 -6.266666666666663E-003    3.309985814472275E-032
 -5.866666666666666E-003    2.607548813570100E-032
 -5.466666666666661E-003    1.014731744354827E-032
 -5.066666666666664E-003   -1.468823605200588E-032
 -4.666666666666666E-003   -4.639856333537148E-032
 -4.266666666666662E-003   -8.057539437206131E-032
 -3.866666666666657E-003   -1.105065480845494E-031
 -3.466666666666660E-003   -1.277990432568524E-031
 -3.066666666666662E-003   -1.236200859484267E-031
 -2.666666666666664E-003   -9.050679895584533E-032
 -2.266666666666667E-003   -2.454888097563896E-032
 -1.866666666666669E-003    7.240664788521600E-032
 -1.466666666666658E-003    1.910116815377522E-031
 -1.066666666666660E-003    3.136875475450361E-031
 -6.666666666666626E-004    4.154361985524974E-031
 -2.666666666666651E-004    4.665637774464891E-031
  1.333333333333325E-004    4.374005737701835E-031
  5.333333333333440E-004    3.046929455112243E-031
  9.333333333333416E-004    5.886923595125688E-032
  1.333333333333339E-003   -2.890812490132988E-031
  1.733333333333337E-003   -7.027219506752673E-031
  2.133333333333334E-003   -1.118996366657340E-030
  2.533333333333332E-003   -1.452271864733835E-030
  2.933333333333343E-003   -1.604498779477078E-030
  3.333333333333341E-003   -1.481382677314010E-030
  3.733333333333338E-003   -1.013177249239826E-030
  4.133333333333336E-003   -1.772812834810396E-031
  4.533333333333334E-003    9.814543555149945E-031
  4.933333333333331E-003    2.337635608360533E-030
  5.333333333333343E-003    3.684451307770992E-030
  5.733333333333340E-003    4.749069428784908E-030
  6.133333333333338E-003    5.226304477756276E-030
  6.533333333333335E-003    4.829450147345078E-030
  6.933333333333333E-003    3.353354737557671E-030
  7.333333333333344E-003    7.408518837386292E-031
  7.733333333333342E-003   -2.859703264893017E-030
  8.133333333333340E-003   -7.059930305271203E-030
  8.533333333333337E-003   -1.123371145044658E-029
  8.933333333333335E-003   -1.456679694299221E-029
  9.333333333333332E-003   -1.615799285951005E-029
  9.733333333333344E-003   -1.516732160908354E-029
  1.013333333333334E-002   -1.099599991204180E-029
  1.053333333333334E-002   -3.472581039991715E-030
  1.093333333333334E-002    6.988879313098644E-030
  1.133333333333333E-002    1.929697056595414E-029
  1.173333333333333E-002    3.169366649425230E-029
  1.213333333333334E-002    4.189433148080632E-029
  1.253333333333334E-002    4.736642376785080E-029
  1.293333333333334E-002    4.573246783751004E-029
  1.333333333333334E-002    3.525556376105177E-029
  1.373333333333333E-002    1.533895659064594E-029
  1.413333333333334E-002   -1.304965292635130E-029
  1.453333333333334E-002   -4.712790642162195E-029
  1.493333333333334E-002   -8.231500279754036E-029
  1.533333333333334E-002   -1.125813930986666E-028
  1.573333333333334E-002   -1.311547385123806E-028
  1.613333333333333E-002   -1.315453828015531E-028
  1.653333333333334E-002   -1.087869409959126E-028
  1.693333333333334E-002   -6.072216391300123E-029
  1.733333333333334E-002    1.088618513147742E-029
  1.773333333333334E-002    9.966266767861353E-029
  1.813333333333333E-002    1.945721924407550E-028
  1.853333333333333E-002    2.806860394780645E-028
  1.893333333333334E-002    3.408234694535470E-028
  1.933333333333334E-002    3.579910201962212E-028
  1.973333333333334E-002    3.183819736820168E-028
  2.013333333333334E-002    2.145442769216310E-028
  2.053333333333333E-002    4.820396860182166E-029
  2.093333333333333E-002   -1.678263460343349E-028
  2.133333333333334E-002   -4.091970794315264E-028
  2.173333333333334E-002   -6.414415997553162E-028
  2.213333333333334E-002   -8.234498261427683E-028
  2.253333333333334E-002   -9.128663276721533E-028
  2.293333333333333E-002   -8.729252756239158E-028
  2.333333333333334E-002   -6.798831340796345E-028
  2.373333333333334E-002   -3.299264260131016E-028
  2.413333333333334E-002    1.557228568210432E-028
  2.453333333333334E-002    7.287477815588170E-028
  2.493333333333334E-002    1.315720673375386E-027
  2.533333333333333E-002    1.824659882978487E-027
  2.573333333333334E-002    2.156039307795436E-027
  2.613333333333334E-002    2.217362409790180E-027
  2.653333333333334E-002    1.939648603161687E-027
  2.693333333333334E-002    1.293525447870961E-027
  2.733333333333333E-002    3.022281961057266E-028
  2.773333333333333E-002   -9.512272153710535E-028
  2.813333333333334E-002   -2.325012554876088E-027
  2.853333333333334E-002   -3.629054980782866E-027
  2.893333333333334E-002   -4.645377483876948E-027
  2.933333333333334E-002   -5.156863669072371E-027
  2.973333333333333E-002   -4.981480464094333E-027
  3.013333333333335E-002   -4.007577002307470E-027
  3.053333333333334E-002   -2.224886045612193E-027
  3.093333333333334E-002    2.544366781713800E-028
  3.133333333333334E-002    3.189870108502653E-027
  3.173333333333334E-002    6.225351963172835E-027
  3.213333333333333E-002    8.922271325378119E-027
  3.253333333333334E-002    1.081110678508829E-026
  3.293333333333334E-002    1.145705391552860E-026
  3.333333333333334E-002    1.053199943957668E-026
  3.373333333333334E-002    7.882934709809497E-027
  3.413333333333333E-002    3.585776360180202E-027
  3.453333333333333E-002   -2.026031261819150E-027
  3.493333333333334E-002   -8.366659498116179E-027
  3.533333333333334E-002   -1.464157490473152E-026
  3.573333333333334E-002   -1.992947320616525E-026
  3.613333333333334E-002   -2.329637857020647E-026
  3.653333333333333E-002   -2.393004150331814E-026
  3.693333333333335E-002   -2.127789968000405E-026
  3.733333333333334E-002   -1.516878135061119E-026
  3.773333333333334E-002   -5.897984613449604E-027
  3.813333333333334E-002    5.742245046614490E-027
  3.853333333333334E-002    1.849939715949865E-026
  3.893333333333333E-002    3.076901109498187E-026
  3.933333333333335E-002    4.076930161893925E-026
  3.973333333333334E-002    4.676629526365262E-026
  4.013333333333334E-002    4.732426497207514E-026
  4.053333333333334E-002    4.154908279157087E-026
  4.093333333333334E-002    2.928891374977532E-026
  4.133333333333333E-002    1.125812427921832E-026
  4.173333333333334E-002   -1.094311952887588E-026
  4.213333333333334E-002   -3.492965535794120E-026
  4.253333333333334E-002   -5.775349537105720E-026
  4.293333333333334E-002   -7.623133134304733E-026
  4.333333333333333E-002   -8.734454427825664E-026
  4.373333333333335E-002   -8.866490699359529E-026
  4.413333333333334E-002   -7.875042045612693E-026
  4.453333333333334E-002   -5.745351234304683E-026
  4.493333333333334E-002   -2.609021555520788E-026
  4.533333333333334E-002    1.256766397656184E-026
  4.573333333333333E-002    5.449435826487951E-026
  4.613333333333335E-002    9.479824026047227E-026
  4.653333333333334E-002    1.282621948359892E-025
  4.693333333333334E-002    1.499784400665878E-025
  4.733333333333334E-002    1.560019061415646E-025
  4.773333333333334E-002    1.439377601866437E-025
  4.813333333333333E-002    1.133804525887525E-025
  4.853333333333334E-002    6.613549142199687E-026
  4.893333333333334E-002    6.179238816881474E-027
  4.933333333333334E-002   -6.065612887682650E-026
  4.973333333333334E-002   -1.272494231524929E-025
  5.013333333333334E-002   -1.859517380874857E-025
  5.053333333333335E-002   -2.294559228278986E-025
  5.093333333333334E-002   -2.516699976472412E-025
  5.133333333333334E-002   -2.484854972782967E-025
  5.173333333333334E-002   -2.183419584879941E-025
  5.213333333333334E-002   -1.625127083737839E-025
  5.253333333333333E-002   -8.507180314348375E-026
  5.293333333333335E-002    7.456525374263222E-027
  5.333333333333334E-002    1.067239688840762E-025
  5.373333333333334E-002    2.033821834045677E-025
  5.413333333333334E-002    2.880034341217627E-025
  5.453333333333334E-002    3.519876737237283E-025
  5.493333333333333E-002    3.883533046316215E-025
  5.533333333333335E-002    3.923319685887775E-025
  5.573333333333334E-002    3.617211039608168E-025
  5.613333333333334E-002    2.969876214557649E-025
  5.653333333333334E-002    2.011528022213030E-025
  5.693333333333334E-002    7.951718852361694E-026
  5.733333333333333E-002   -6.070253535100295E-026
  5.773333333333334E-002   -2.107556838348972E-025
  5.813333333333334E-002   -3.607108985030561E-025
  5.853333333333334E-002   -4.997670662377263E-025
  5.893333333333335E-002   -6.165471862981179E-025
  5.933333333333334E-002   -6.994381915709270E-025
  5.973333333333335E-002   -7.370619835069367E-025
  6.013333333333333E-002   -7.189648293324208E-025
  6.053333333333334E-002   -6.365860698974671E-025
  6.093333333333335E-002   -4.845137901933292E-025
  6.133333333333334E-002   -2.619586617996558E-025
  6.173333333333335E-002    2.571032653598532E-026
  6.213333333333333E-002    3.656093348801935E-025
  6.253333333333334E-002    7.364640396794912E-025
  6.293333333333333E-002    1.108540278736399E-024
  6.333333333333334E-002    1.444673604130558E-024
  6.373333333333335E-002    1.702598147818135E-024
  6.413333333333333E-002    1.838621743783446E-024
  6.453333333333335E-002    1.812495203656958E-024
  6.493333333333333E-002    1.593098758961406E-024
  6.533333333333334E-002    1.164353548435385E-024
  6.573333333333335E-002    5.305906506187397E-025
  6.613333333333334E-002   -2.794824902666566E-025
  6.653333333333335E-002   -1.211064220941002E-024
  6.693333333333333E-002   -2.184495349022570E-024
  6.733333333333334E-002   -3.099882143206993E-024
  6.773333333333335E-002   -3.845158322228395E-024
  6.813333333333334E-002   -4.307182641394701E-024
  6.853333333333335E-002   -4.384987129444231E-024
  6.893333333333333E-002   -4.003857566246018E-024
  6.933333333333334E-002   -3.128601730948067E-024
  6.973333333333333E-002   -1.774208605652234E-024
  7.013333333333334E-002   -1.216101674758351E-026
  7.053333333333335E-002    2.029031515884920E-024
  7.093333333333333E-002    4.169987021464189E-024
  7.133333333333335E-002    6.193481264581714E-024
  7.173333333333333E-002    7.863716373680096E-024
  7.213333333333334E-002    8.950342930804561E-024
  7.253333333333335E-002    9.254980121170317E-024
  7.293333333333334E-002    8.637430625846618E-024
  7.333333333333335E-002    7.038498059128118E-024
  7.373333333333333E-002    4.496400076531925E-024
  7.413333333333334E-002    1.154213347456660E-024
  7.453333333333335E-002   -2.743414472915455E-024
  7.493333333333334E-002   -6.864967483700765E-024
  7.533333333333335E-002   -1.081762765784530E-023
  7.573333333333333E-002   -1.418186641006525E-023
  7.613333333333334E-002   -1.655208741965971E-023
  7.653333333333333E-002   -1.757945492483993E-023
  7.693333333333334E-002   -1.701255605465650E-023
  7.733333333333335E-002   -1.473149799880110E-023
  7.773333333333333E-002   -1.077151574022708E-023
  7.813333333333335E-002   -5.333029203365137E-024
  7.853333333333333E-002    1.223628692838517E-024
  7.893333333333334E-002    8.399137552857770E-024
  7.933333333333335E-002    1.559055560381899E-023
  7.973333333333334E-002    2.213848441947461E-023
  8.013333333333335E-002    2.738223297469434E-023
  8.053333333333333E-002    3.071837795782199E-023
  8.093333333333334E-002    3.165777824218185E-023
  8.133333333333335E-002    2.987620651017070E-023
  8.173333333333334E-002    2.525426092127909E-023
  8.213333333333335E-002    1.790309763466706E-023
  8.253333333333333E-002    8.173555767603083E-024
  8.293333333333335E-002   -3.352568473550267E-024
  8.333333333333333E-002   -1.588919217041381E-023
  8.373333333333334E-002   -2.848957165575001E-023
  8.413333333333335E-002   -4.010496615647628E-023
  8.453333333333334E-002   -4.965558127034867E-023
  8.493333333333335E-002   -5.611030033342455E-023
  8.533333333333333E-002   -5.857107036398063E-023
  8.573333333333334E-002   -5.635714682033231E-023
  8.613333333333335E-002   -4.908377627644092E-023
  8.653333333333334E-002   -3.672933803840993E-023
  8.693333333333335E-002   -1.968455804644111E-023
  8.733333333333333E-002    1.222708670620920E-024
  8.773333333333334E-002    2.473321940914263E-023
  8.813333333333336E-002    4.919772800292626E-023
  8.853333333333334E-002    7.265720311908701E-023
  8.893333333333335E-002    9.296239399367611E-023
  8.933333333333333E-002    1.079297132367884E-022
  8.973333333333335E-002    1.155262101248712E-022
  9.013333333333333E-002    1.140719911775423E-022
  9.053333333333334E-002    1.024441970127515E-022
  9.093333333333335E-002    8.026328131095193E-023
  9.133333333333334E-002    4.804028309190516E-023
  9.173333333333335E-002    7.263837650339388E-024
  9.213333333333333E-002   -3.959199482004600E-023
  9.253333333333334E-002   -8.915299911377537E-023
  9.293333333333335E-002   -1.373296299066926E-022
  9.333333333333334E-002   -1.795984512374763E-022
  9.373333333333335E-002   -2.113665533028976E-022
  9.413333333333333E-002   -2.283943887836318E-022
  9.453333333333334E-002   -2.272428301784340E-022
  9.493333333333336E-002   -2.057027437535889E-022
  9.533333333333334E-002   -1.631616105599099E-022
  9.573333333333335E-002   -1.008622750515714E-022
  9.613333333333333E-002   -2.201453005486078E-023
  9.653333333333335E-002    6.826937032626240E-023
  9.693333333333333E-002    1.632293217209714E-022
  9.733333333333334E-002    2.548983512986936E-022
  9.773333333333335E-002    3.347070159378960E-022
  9.813333333333334E-002    3.942092039149332E-022
  9.853333333333335E-002    4.258714756479748E-022
  9.893333333333333E-002    4.238561952832440E-022
  9.933333333333334E-002    3.847233072418333E-022
  9.973333333333335E-002    3.079773220312978E-022
  0.100133333333333         1.963951768198949E-022
  0.100533333333333         5.608652349130860E-023
  0.100933333333333        -1.037398056051559E-022
  0.101333333333333        -2.713041833507975E-022
  0.101733333333333        -4.330534641692262E-022
  0.102133333333333        -5.746750511224723E-022
  0.102533333333333        -6.822538287804382E-022
  0.102933333333333        -7.434817077222525E-022
  0.103333333333333        -7.488207121127274E-022
  0.103733333333333        -6.925197048351526E-022
  0.104133333333333        -5.733932623644276E-022
  0.104533333333333        -3.952865207789066E-022
  0.104933333333333        -1.671713166352853E-022
  0.105333333333333         9.715385937944535E-023
  0.105733333333333         3.797602369462248E-022
  0.106133333333333         6.596517953438274E-022
  0.106533333333333         9.141383892399680E-022
  0.106933333333333         1.120439595776198E-021
  0.107333333333333         1.257420029374553E-021
  0.107733333333333         1.307344092858011E-021
  0.108133333333333         1.257530036823637E-021
  0.108533333333333         1.101782314415379E-021
  0.108933333333333         8.414859322215439E-022
  0.109333333333333         4.862578778932565E-022
  0.109733333333333         5.406767241921366E-023
  0.110133333333333        -4.292354120433200E-022
  0.110533333333333        -9.310211215429263E-022
  0.110933333333333        -1.413598181626782E-021
  0.111333333333333        -1.836508824339277E-021
  0.111733333333333        -2.159304129632058E-021
  0.112133333333333        -2.344659997400787E-021
  0.112533333333333        -2.361645815983481E-021
  0.112933333333333        -2.188919950722128E-021
  0.113333333333333        -1.817596375802104E-021
  0.113733333333333        -1.253512223308058E-021
  0.114133333333333        -5.186340913296129E-022
  0.114533333333333         3.486297381954647E-022
  0.114933333333333         1.294389462390471E-021
  0.115333333333333         2.251604535932752E-021
  0.115733333333333         3.143782354747599E-021
  0.116133333333333         3.889927616222021E-021
  0.116533333333333         4.410500762714090E-021
  0.116933333333333         4.634028015335348E-021
  0.117333333333333         4.503900727937788E-021
  0.117733333333333         3.984827218182207E-021
  0.118133333333333         3.068364620998412E-021
  0.118533333333333         1.776964788070408E-021
  0.118933333333333         1.660276533182484E-022
  0.119333333333333        -1.676434625659198E-021
  0.119733333333333        -3.632765444387347E-021
  0.120133333333333        -5.561317518508805E-021
  0.120533333333333        -7.304630447372956E-021
  0.120933333333333        -8.699756670015480E-021
  0.121333333333333        -9.590152527561384E-021
  0.121733333333333        -9.838377878609855E-021
  0.122133333333333        -9.338719917301751E-021
  0.122533333333333        -8.028789944538152E-021
  0.122933333333333        -5.899148557296153E-021
  0.123333333333333        -3.000082529194135E-021
  0.123733333333333         5.552060621344660E-022
  0.124133333333333         4.591519309650907E-021
  0.124533333333333         8.876981756172579E-021
  0.124933333333333         1.313276525312661E-020
  0.125333333333333         1.704692546546392E-020
  0.125733333333333         2.029178787763564E-020
  0.126133333333333         2.254405447105023E-020
  0.126533333333333         2.350658776106085E-020
  0.126933333333333         2.293066341439166E-020
  0.127333333333333         2.063738597333852E-020
  0.127733333333333         1.653692832867412E-020
  0.128133333333333         1.064428577067376E-020
  0.128533333333333         3.090360505972474E-021
  0.128933333333333        -5.872671689493224E-021
  0.129333333333333        -1.587248892253538E-020
  0.129733333333333        -2.642479336257499E-020
  0.130133333333333        -3.694869845973946E-020
  0.130533333333333        -4.678920203613296E-020
  0.130933333333333        -5.524621877680437E-020
  0.131333333333333        -6.160928640000222E-020
  0.131733333333333        -6.519667822901600E-020
  0.132133333333333        -6.539735654583212E-020
  0.132533333333333        -6.171389248723690E-020
  0.132933333333333        -5.380427006087781E-020
  0.133333333333333        -4.152037663163338E-020
  0.133733333333333        -2.494093508032759E-020
  0.134133333333333        -4.396752493392209E-021
  0.134533333333333         1.951366783900492E-020
  0.134933333333333         4.591978894257081E-020
  0.135333333333333         7.368715704020942E-020
  0.135733333333333         1.014387012679584E-019
  0.136133333333333         1.275894084565402E-019
  0.136533333333333         1.503939243059278E-019
  0.136933333333333         1.680061811770653E-019
  0.137333333333333         1.785496350415391E-019
  0.137733333333333         1.801963160354880E-019
  0.138133333333333         1.712526021386081E-019
  0.138533333333333         1.502495666123227E-019
  0.138933333333333         1.160357742537318E-019
  0.139333333333333         6.787046955054689E-020
  0.139733333333333         5.515613542074656E-021
  0.140133333333333        -7.067457741934033E-020
  0.140533333333333        -1.596673824443596E-019
  0.140933333333333        -2.596688705614194E-019
  0.141333333333333        -3.680445813627671E-019
  0.141733333333333        -4.812430175839778E-019
  0.142133333333333        -5.947208961038996E-019
  0.142533333333333        -7.028687463691365E-019
  0.142933333333333        -7.989356443360275E-019
  0.143333333333333        -8.749508157950741E-019
  0.143733333333333        -9.216408979400447E-019
  0.144133333333333        -9.283402436472004E-019
  0.144533333333333        -8.828924142595091E-019
  0.144933333333333        -7.715402589138726E-019
  0.145333333333333        -5.788016457348706E-019
  0.145733333333333        -2.873273008646220E-019
  0.146133333333333         1.222633729845479E-019
  0.146533333333333         6.715739699049401E-019
  0.146933333333333         1.384655954783491E-018
  0.147333333333333         2.288274628668997E-018
  0.147733333333333         3.412224873119835E-018
  0.148133333333333         4.789706994680964E-018
  0.148533333333333         6.457773856398424E-018
  0.148933333333333         8.457861072622930E-018
  0.149333333333333         1.083641509356732E-017
  0.149733333333333         1.364563368205073E-017
  0.150133333333333         1.694433314955657E-017
  0.150533333333333         2.079895942706202E-017
  0.150933333333333         2.528475376749014E-017
  0.151333333333333         3.048709689522869E-017
  0.151733333333333         3.650303784967703E-017
  0.152133333333333         4.344302244408231E-017
  0.152533333333333         5.143284510093923E-017
  0.152933333333333         6.061582328667863E-017
  0.153333333333333         7.115520576917182E-017
  0.153733333333333         8.323684543518227E-017
  0.154133333333333         9.707212443221344E-017
  0.154533333333333         1.129011347515282E-016
  0.154933333333333         1.309961711080244E-016
  0.155333333333333         1.516654723330483E-016
  0.155733333333333         1.752573133036028E-016
  0.156133333333333         2.021643700007749E-016
  0.156533333333333         2.328284497056344E-016
  0.156933333333333         2.677455153720694E-016
  0.157333333333333         3.074711414464432E-016
  0.157733333333333         3.526263397324526E-016
  0.158133333333333         4.039038128858705E-016
  0.158533333333333         4.620745863634809E-016
  0.158933333333333         5.279952455282718E-016
  0.159333333333333         6.026155815173929E-016
  0.159733333333333         6.869868746467871E-016
  0.160133333333333         7.822706158377357E-016
  0.160533333333333         8.897480555779237E-016
  0.160933333333333         1.010830121125531E-015
  0.161333333333333         1.147068335403444E-015
  0.161733333333333         1.300166107227905E-015
  0.162133333333333         1.471990807531973E-015
  0.162533333333333         1.664586772116815E-015
  0.162933333333333         1.880188755315317E-015
  0.163333333333333         2.121235944741809E-015
  0.163733333333333         2.390386724300742E-015
  0.164133333333333         2.690534459537223E-015
  0.164533333333333         3.024822754485464E-015
  0.164933333333333         3.396662310543598E-015
  0.165333333333333         3.809747136091334E-015
  0.165733333333333         4.268071502781323E-015
  0.166133333333333         4.775946849591738E-015
  0.166533333333333         5.338018754657176E-015
  0.166933333333333         5.959282966606198E-015
  0.167333333333333         6.645102128603712E-015
  0.167733333333333         7.401221168428800E-015
  0.168133333333333         8.233781847998817E-015