-0.6666667E-01  0.0000000E+00
-0.6626666E-01  0.0000000E+00
-0.6586666E-01  0.0000000E+00
-0.6546666E-01  0.0000000E+00
-0.6506667E-01  0.0000000E+00
-0.6466667E-01  0.0000000E+00
-0.6426667E-01  0.0000000E+00
-0.6386667E-01  0.0000000E+00
-0.6346667E-01  0.0000000E+00
-0.6306667E-01  0.0000000E+00
-0.6266667E-01  0.0000000E+00
-0.6226667E-01  0.0000000E+00
-0.6186667E-01  0.0000000E+00
-0.6146667E-01  0.0000000E+00
-0.6106667E-01  0.0000000E+00
-0.6066667E-01  0.0000000E+00
-0.6026667E-01  0.2955835E-37
-0.5986667E-01  0.2099109E-36
-0.5946667E-01  0.1070835E-35
-0.5906667E-01  0.4811477E-35
-0.5866667E-01  0.2009671E-34
-0.5826667E-01  0.7830789E-34
-0.5786667E-01  0.2824657E-33
-0.5746667E-01  0.9362501E-33
-0.5706667E-01  0.2840744E-32
-0.5666667E-01  0.7887329E-32
-0.5626667E-01  0.2008230E-31
-0.5586667E-01  0.4707955E-31
-0.5546667E-01  0.1022321E-30
-0.5506667E-01  0.2074253E-30
-0.5466667E-01  0.3982626E-30
-0.5426667E-01  0.7364679E-30
-0.5386667E-01  0.1339583E-29
-0.5346667E-01  0.2441456E-29
-0.5306667E-01  0.4487570E-29
-0.5266667E-01  0.8226823E-29
-0.5226667E-01  0.1466320E-28
-0.5186667E-01  0.2457545E-28
-0.5146667E-01  0.3716611E-28
-0.5106667E-01  0.4745475E-28
-0.5066667E-01  0.4262701E-28
-0.5026667E-01 -0.8960596E-30
-0.4986667E-01 -0.1152223E-27
-0.4946667E-01 -0.3259721E-27
-0.4906667E-01 -0.6154244E-27
-0.4866667E-01 -0.8593274E-27
-0.4826667E-01 -0.7491723E-27
-0.4786666E-01  0.2557801E-27
-0.4746667E-01  0.2856256E-26
-0.4706667E-01  0.7587729E-26
-0.4666667E-01  0.1411070E-25
-0.4626667E-01  0.2009162E-25
-0.4586667E-01  0.1992822E-25
-0.4546667E-01  0.4051270E-26
-0.4506667E-01 -0.3986538E-25
-0.4466667E-01 -0.1220020E-24
-0.4426667E-01 -0.2402067E-24
-0.4386667E-01 -0.3644561E-24
-0.4346666E-01 -0.4193655E-24
-0.4306667E-01 -0.2736675E-24
-0.4266667E-01  0.2479486E-24
-0.4226667E-01  0.1310732E-23
-0.4186667E-01  0.2956027E-23
-0.4146667E-01  0.4925837E-23
-0.4106667E-01  0.6458063E-23
-0.4066667E-01  0.6137355E-23
-0.4026667E-01  0.1947734E-23
-0.3986667E-01 -0.8282575E-23
-0.3946667E-01 -0.2586742E-22
-0.3906666E-01 -0.4962615E-22
-0.3866667E-01 -0.7384437E-22
-0.3826667E-01 -0.8648130E-22
-0.3786667E-01 -0.6878636E-22
-0.3746667E-01  0.2096571E-23
-0.3706667E-01  0.1459347E-21
-0.3666667E-01  0.3667574E-21
-0.3626667E-01  0.6357147E-21
-0.3586667E-01  0.8734117E-21
-0.3546667E-01  0.9394943E-21
-0.3506667E-01  0.6407847E-21
-0.3466666E-01 -0.2293291E-21
-0.3426667E-01 -0.1810679E-20
-0.3386667E-01 -0.4055706E-20
-0.3346667E-01 -0.6586916E-20
-0.3306667E-01 -0.8575609E-20
-0.3266667E-01 -0.8711074E-20
-0.3226667E-01 -0.5346863E-20
-0.3186667E-01  0.3094574E-20
-0.3146667E-01  0.1742056E-19
-0.3106667E-01  0.3672325E-19
-0.3066667E-01  0.5738282E-19
-0.3026667E-01  0.7237573E-19
-0.2986667E-01  0.7138986E-19
-0.2946667E-01  0.4230254E-19
-0.2906667E-01 -0.2554571E-19
-0.2866667E-01 -0.1362250E-18
-0.2826667E-01 -0.2808415E-18
-0.2786667E-01 -0.4314103E-18
-0.2746667E-01 -0.5374152E-18
-0.2706667E-01 -0.5281806E-18
-0.2666667E-01 -0.3241782E-18
-0.2626667E-01  0.1407378E-18
-0.2586667E-01  0.8867584E-18
-0.2546667E-01  0.1849856E-17
-0.2506667E-01  0.2847474E-17
-0.2466667E-01  0.3562643E-17
-0.2426667E-01  0.3563792E-17
-0.2386667E-01  0.2376198E-17
-0.2346667E-01 -0.3866298E-18
-0.2306667E-01 -0.4838375E-17
-0.2266667E-01 -0.1061074E-16
-0.2226667E-01 -0.1667364E-16
-0.2186667E-01 -0.2126122E-16
-0.2146667E-01 -0.2199102E-16
-0.2106667E-01 -0.1625182E-16
-0.2066667E-01 -0.1893804E-17
-0.2026667E-01  0.2182276E-16
-0.1986667E-01  0.5317030E-16
-0.1946667E-01  0.8705668E-16
-0.1906667E-01  0.1146560E-15
-0.1866667E-01  0.1239751E-15
-0.1826667E-01  0.1017001E-15
-0.1786667E-01  0.3646076E-16
-0.1746667E-01 -0.7669979E-16
-0.1706667E-01 -0.2313431E-15
-0.1666667E-01 -0.4053468E-15
-0.1626667E-01 -0.5589409E-15
-0.1586667E-01 -0.6368580E-15
-0.1546667E-01 -0.5760972E-15
-0.1506667E-01 -0.3199345E-15
-0.1466667E-01  0.1626772E-15
-0.1426667E-01  0.8551431E-15
-0.1386667E-01  0.1673652E-14
-0.1346667E-01  0.2456689E-14
-0.1306667E-01  0.2971027E-14
-0.1266667E-01  0.2940531E-14
-0.1226667E-01  0.2100783E-14
-0.1186667E-01  0.2768064E-15
-0.1146667E-01 -0.2526409E-14
-0.1106667E-01 -0.6039216E-14
-0.1066667E-01 -0.9674038E-14
-0.1026667E-01 -0.1253229E-13
-0.9866667E-02 -0.1349715E-13
-0.9466667E-02 -0.1142646E-13
-0.9066666E-02 -0.5439676E-14
-0.8666666E-02  0.4734488E-14
-0.8266667E-02  0.1841377E-13
-0.7866667E-02  0.3371228E-13
-0.7466667E-02  0.4749012E-13
-0.7066667E-02  0.5560156E-13
-0.6666667E-02  0.5350576E-13
-0.6266667E-02  0.3723828E-13
-0.5866667E-02  0.4649338E-14
-0.5466667E-02 -0.4329173E-13
-0.5066667E-02 -0.1014245E-12
-0.4666667E-02 -0.1599203E-12
-0.4266667E-02 -0.2047585E-12
-0.3866667E-02 -0.2194238E-12
-0.3466667E-02 -0.1878952E-12
-0.3066667E-02 -0.9870987E-13
-0.2666667E-02  0.5046227E-13
-0.2266667E-02  0.2486390E-12
-0.1866667E-02  0.4688966E-12
-0.1466667E-02  0.6685144E-12
-0.1066667E-02  0.7929115E-12
-0.6666667E-03  0.7838732E-12
-0.2666667E-03  0.5917312E-12
 0.1333333E-03  0.1901073E-12
 0.5333333E-03 -0.4092782E-12
 0.9333334E-03 -0.1145149E-11
 0.1333333E-02 -0.1902424E-11
 0.1733333E-02 -0.2518751E-11
 0.2133333E-02 -0.2804136E-11
 0.2533333E-02 -0.2573842E-11
 0.2933333E-02 -0.1691712E-11
 0.3333333E-02 -0.1177418E-12
 0.3733333E-02  0.2049313E-11
 0.4133333E-02  0.4545561E-11
 0.4533333E-02  0.6943174E-11
 0.4933333E-02  0.8688172E-11
 0.5333333E-02  0.9178598E-11
 0.5733334E-02  0.7879242E-11
 0.6133333E-02  0.4459721E-11
 0.6533334E-02 -0.1066589E-11
 0.6933333E-02 -0.8232688E-11
 0.7333333E-02 -0.1607016E-10
 0.7733333E-02 -0.2315343E-10
 0.8133333E-02 -0.2775537E-10
 0.8533333E-02 -0.2811586E-10
 0.8933334E-02 -0.2280088E-10
 0.9333333E-02 -0.1110393E-10
 0.9733333E-02  0.6581998E-11
 0.1013333E-01  0.2850891E-10
 0.1053333E-01  0.5152278E-10
 0.1093333E-01  0.7128823E-10
 0.1133333E-01  0.8282291E-10
 0.1173333E-01  0.8132146E-10
 0.1213333E-01  0.6318272E-10
 0.1253333E-01  0.2708809E-10
 0.1293333E-01 -0.2507475E-10
 0.1333333E-01 -0.8767343E-10
 0.1373333E-01 -0.1513942E-09
 0.1413333E-01 -0.2040598E-09
 0.1453333E-01 -0.2322434E-09
 0.1493333E-01 -0.2235722E-09
 0.1533333E-01 -0.1694454E-09
 0.1573333E-01 -0.6773872E-10
 0.1613333E-01  0.7504272E-10
 0.1653333E-01  0.2427316E-09
 0.1693333E-01  0.4100767E-09
 0.1733333E-01  0.5452313E-09
 0.1773333E-01  0.6141537E-09
 0.1813333E-01  0.5865450E-09
 0.1853333E-01  0.4425624E-09
 0.1893333E-01  0.1792069E-09
 0.1933333E-01 -0.1849168E-09
 0.1973333E-01 -0.6077707E-09
 0.2013333E-01 -0.1026032E-08
 0.2053333E-01 -0.1361754E-08
 0.2093333E-01 -0.1533345E-08
 0.2133333E-01 -0.1469798E-08
 0.2173333E-01 -0.1126261E-08
 0.2213333E-01 -0.4983419E-09
 0.2253333E-01  0.3677927E-09
 0.2293333E-01  0.1372323E-08
 0.2333333E-01  0.2367814E-08
 0.2373333E-01  0.3175255E-08
 0.2413333E-01  0.3609322E-08
 0.2453333E-01  0.3510235E-08
 0.2493333E-01  0.2777794E-08
 0.2533333E-01  0.1401906E-08
 0.2573333E-01 -0.5166433E-09
 0.2613333E-01 -0.2760874E-08
 0.2653333E-01 -0.5011833E-08
 0.2693333E-01 -0.6883698E-08
 0.2733333E-01 -0.7977634E-08
 0.2773333E-01 -0.7948515E-08
 0.2813333E-01 -0.6575210E-08
 0.2853333E-01 -0.3822759E-08
 0.2893333E-01  0.1159664E-09
 0.2933333E-01  0.4810180E-08
 0.2973333E-01  0.9620178E-08
 0.3013333E-01  0.1376744E-07
 0.3053333E-01  0.1644104E-07
 0.3093333E-01  0.1692837E-07
 0.3133333E-01  0.1475216E-07
 0.3173333E-01  0.9791159E-08
 0.3213333E-01  0.2361608E-08
 0.3253333E-01 -0.6761163E-08
 0.3293333E-01 -0.1639415E-07
 0.3333334E-01 -0.2507431E-07
 0.3373333E-01 -0.3125295E-07
 0.3413333E-01 -0.3353492E-07
 0.3453333E-01 -0.3092939E-07
 0.3493333E-01 -0.2307263E-07
 0.3533333E-01 -0.1038156E-07
 0.3573333E-01  0.5897116E-08
 0.3613333E-01  0.2376523E-07
 0.3653333E-01  0.4068395E-07
 0.3693333E-01  0.5390082E-07
 0.3733333E-01  0.6085568E-07
 0.3773334E-01  0.5960990E-07
 0.3813333E-01  0.4923282E-07
 0.3853333E-01  0.3007762E-07
 0.3893333E-01  0.3888730E-08
 0.3933333E-01 -0.2629687E-07
 0.3973333E-01 -0.5646303E-07
 0.4013333E-01 -0.8211754E-07
 0.4053333E-01 -0.9892644E-07
 0.4093333E-01 -0.1033937E-06
 0.4133333E-01 -0.9348374E-07
 0.4173333E-01 -0.6908341E-07
 0.4213334E-01 -0.3221389E-07
 0.4253333E-01  0.1306409E-07
 0.4293333E-01  0.6106674E-07
 0.4333333E-01  0.1051893E-06
 0.4373333E-01  0.1388102E-06
 0.4413333E-01  0.1562730E-06
 0.4453333E-01  0.1538016E-06
 0.4493333E-01  0.1301999E-06
 0.4533333E-01  0.8721221E-07
 0.4573333E-01  0.2946428E-07
 0.4613333E-01 -0.3603473E-07
 0.4653334E-01 -0.1007805E-06
 0.4693333E-01 -0.1559381E-06
 0.4733333E-01 -0.1936169E-06
 0.4773333E-01 -0.2080645E-06
 0.4813333E-01 -0.1965873E-06
 0.4853333E-01 -0.1600414E-06
 0.4893333E-01 -0.1027971E-06
 0.4933333E-01 -0.3216179E-07
 0.4973333E-01  0.4266695E-07
 0.5013333E-01  0.1119640E-06
 0.5053333E-01  0.1669439E-06
 0.5093333E-01  0.2010925E-06
 0.5133333E-01  0.2111373E-06
 0.5173333E-01  0.1974809E-06
 0.5213333E-01  0.1640107E-06
 0.5253333E-01  0.1172994E-06
 0.5293333E-01  0.6532449E-07
 0.5333333E-01  0.1592551E-07
 0.5373333E-01 -0.2472019E-07
 0.5413333E-01 -0.5330948E-07
 0.5453333E-01 -0.7005762E-07
 0.5493333E-01 -0.7860775E-07
 0.5533333E-01 -0.8516612E-07
 0.5573333E-01 -0.9696912E-07
 0.5613333E-01 -0.1203288E-06
 0.5653333E-01 -0.1586131E-06
 0.5693333E-01 -0.2105714E-06
 0.5733333E-01 -0.2694037E-06
 0.5773333E-01 -0.3228813E-06
 0.5813333E-01 -0.3546718E-06
 0.5853333E-01 -0.3468178E-06
 0.5893333E-01 -0.2830982E-06
 0.5933333E-01 -0.1527974E-06
 0.5973333E-01  0.4573810E-07
 0.6013333E-01  0.3024366E-06
 0.6053333E-01  0.5943643E-06
 0.6093333E-01  0.8865840E-06
 0.6133333E-01  0.1135219E-05
 0.6173333E-01  0.1292594E-05
 0.6213333E-01  0.1313976E-05
 0.6253333E-01  0.1165097E-05
 0.6293333E-01  0.8294078E-06
 0.6333333E-01  0.3138933E-06
 0.6373333E-01 -0.3476554E-06
 0.6413333E-01 -0.1094791E-05
 0.6453333E-01 -0.1844462E-05
 0.6493333E-01 -0.2498929E-05
 0.6533334E-01 -0.2956936E-05
 0.6573334E-01 -0.3126980E-05
 0.6613334E-01 -0.2941077E-05
 0.6653333E-01 -0.2367163E-05
 0.6693333E-01 -0.1418252E-05
 0.6733333E-01 -0.1567075E-06
 0.6773333E-01  0.1307487E-05
 0.6813333E-01  0.2824905E-05
 0.6853333E-01  0.4220874E-05
 0.6893333E-01  0.5314426E-05
 0.6933333E-01  0.5940004E-05
 0.6973334E-01  0.5969333E-05
 0.7013334E-01  0.5330710E-05
 0.7053334E-01  0.4023001E-05
 0.7093333E-01  0.2122213E-05
 0.7133333E-01 -0.2207401E-06
 0.7173333E-01 -0.2791400E-05
 0.7213333E-01 -0.5331414E-05
 0.7253333E-01 -0.7564578E-05
 0.7293333E-01 -0.9226468E-05
 0.7333333E-01 -0.1009430E-04
 0.7373333E-01 -0.1001356E-04
 0.7413334E-01 -0.8918108E-05
 0.7453334E-01 -0.6841480E-05
 0.7493334E-01 -0.3917729E-05
 0.7533333E-01 -0.3717740E-06
 0.7573333E-01  0.3499791E-05
 0.7613333E-01  0.7355275E-05
 0.7653333E-01  0.1083896E-04
 0.7693333E-01  0.1361334E-04
 0.7733333E-01  0.1538931E-04
 0.7773333E-01  0.1595146E-04
 0.7813333E-01  0.1517649E-04
 0.7853334E-01  0.1304369E-04
 0.7893334E-01  0.9637324E-05
 0.7933334E-01  0.5141679E-05
 0.7973333E-01 -0.1699244E-06
 0.8013333E-01 -0.5950714E-05
 0.8053333E-01 -0.1179923E-04
 0.8093333E-01 -0.1728024E-04
 0.8133333E-01 -0.2194740E-04
 0.8173333E-01 -0.2536745E-04
 0.8213333E-01 -0.2714643E-04
 0.8253333E-01 -0.2695792E-04
 0.8293334E-01 -0.2457316E-04
 0.8333334E-01 -0.1989195E-04
 0.8373334E-01 -0.1297219E-04
 0.8413333E-01 -0.4054757E-05
 0.8453333E-01  0.6420553E-05
 0.8493333E-01  0.1781272E-04
 0.8533333E-01  0.2929543E-04
 0.8573333E-01  0.3989469E-04
 0.8613333E-01  0.4854981E-04
 0.8653333E-01  0.5419641E-04
 0.8693333E-01  0.5586748E-04
 0.8733334E-01  0.5280453E-04
 0.8773334E-01  0.4456850E-04
 0.8813334E-01  0.3113774E-04
 0.8853333E-01  0.1297948E-04
 0.8893333E-01 -0.8917584E-05
 0.8933333E-01 -0.3305999E-04
 0.8973333E-01 -0.5752122E-04
 0.9013333E-01 -0.8006892E-04
 0.9053333E-01 -0.9834189E-04
 0.9093333E-01 -0.1100646E-03
 0.9133333E-01 -0.1132816E-03
 0.9173334E-01 -0.1065890E-03
 0.9213334E-01 -0.8934039E-04
 0.9253334E-01 -0.6180076E-04
 0.9293333E-01 -0.2522966E-04
 0.9333333E-01  0.1812373E-04
 0.9373333E-01  0.6512113E-04
 0.9413333E-01  0.1119308E-03
 0.9453333E-01  0.1543083E-03
 0.9493333E-01  0.1879430E-03
 0.9533333E-01  0.2088439E-03
 0.9573333E-01  0.2137319E-03
 0.9613334E-01  0.2004040E-03
 0.9653334E-01  0.1680336E-03
 0.9693334E-01  0.1173767E-03
 0.9733333E-01  0.5085698E-04
 0.9773333E-01 -0.2748373E-04
 0.9813333E-01 -0.1121789E-03
 0.9853333E-01 -0.1966664E-03
 0.9893333E-01 -0.2737379E-03
 0.9933333E-01 -0.3360803E-03
 0.9973333E-01 -0.3768733E-03
 0.1001333E+00 -0.3904001E-03
 0.1005333E+00 -0.3726228E-03
 0.1009333E+00 -0.3216764E-03
 0.1013333E+00 -0.2382347E-03
 0.1017333E+00 -0.1257087E-03
 0.1021333E+00  0.9753144E-05
 0.1025333E+00  0.1594820E-03
 0.1029333E+00  0.3127270E-03
 0.1033333E+00  0.4573034E-03
 0.1037333E+00  0.5804229E-03
 0.1041333E+00  0.6696585E-03
 0.1045333E+00  0.7139852E-03
 0.1049333E+00  0.7048197E-03
 0.1053333E+00  0.6369789E-03
 0.1057333E+00  0.5094695E-03
 0.1061333E+00  0.3260254E-03
 0.1065333E+00  0.9532265E-04
 0.1069333E+00 -0.1691845E-03
 0.1073333E+00 -0.4498348E-03
 0.1077333E+00 -0.7257366E-03
 0.1081333E+00 -0.9741141E-03
 0.1085333E+00 -0.1171953E-02
 0.1089333E+00 -0.1297836E-02
 0.1093333E+00 -0.1333847E-02
 0.1097333E+00 -0.1267369E-02
 0.1101333E+00 -0.1092650E-02
 0.1105333E+00 -0.8119470E-03
 0.1109333E+00 -0.4361434E-03
 0.1113333E+00  0.1527686E-04
 0.1117333E+00  0.5149446E-03
 0.1121333E+00  0.1029014E-02
 0.1125333E+00  0.1519205E-02
 0.1129333E+00  0.1945370E-02
 0.1133333E+00  0.2268408E-02
 0.1137333E+00  0.2453347E-02
 0.1141333E+00  0.2472334E-02
 0.1145333E+00  0.2307329E-02
 0.1149333E+00  0.1952258E-02
 0.1153333E+00  0.1414449E-02
 0.1157333E+00  0.7151884E-03
 0.1161333E+00 -0.1106815E-03
 0.1165333E+00 -0.1016149E-02
 0.1169333E+00 -0.1944367E-02
 0.1173333E+00 -0.2831821E-02
 0.1177333E+00 -0.3612170E-02
 0.1181333E+00 -0.4220534E-02
 0.1185333E+00 -0.4597988E-02
 0.1189333E+00 -0.4695986E-02
 0.1193333E+00 -0.4480420E-02
 0.1197333E+00 -0.3935053E-02
 0.1201333E+00 -0.3064068E-02
 0.1205333E+00 -0.1893496E-02
 0.1209333E+00 -0.4713733E-03
 0.1213333E+00  0.1133499E-02
 0.1217333E+00  0.2834225E-02
 0.1221333E+00  0.4529877E-02
 0.1225333E+00  0.6110799E-02
 0.1229333E+00  0.7464936E-02
 0.1233333E+00  0.8484851E-02
 0.1237333E+00  0.9075026E-02
 0.1241333E+00  0.9158980E-02
 0.1245333E+00  0.8685674E-02
 0.1249333E+00  0.7634706E-02
 0.1253333E+00  0.6019810E-02
 0.1257333E+00  0.3890268E-02
 0.1261333E+00  0.1329974E-02
 0.1265333E+00 -0.1545950E-02
 0.1269333E+00 -0.4596884E-02
 0.1273333E+00 -0.7664482E-02
 0.1277333E+00 -0.1058199E-01
 0.1281333E+00 -0.1318442E-01
 0.1285333E+00 -0.1531883E-01
 0.1289333E+00 -0.1685382E-01
 0.1293333E+00 -0.1768746E-01
 0.1297333E+00 -0.1775293E-01
 0.1301333E+00 -0.1702139E-01
 0.1305333E+00 -0.1550180E-01
 0.1309333E+00 -0.1323779E-01
 0.1313333E+00 -0.1030184E-01
 0.1317333E+00 -0.6787605E-02
 0.1321333E+00 -0.2801125E-02
 0.1325333E+00  0.1547852E-02
 0.1329333E+00  0.6153411E-02
 0.1333333E+00  0.1091874E-01
 0.1337333E+00  0.1575825E-01
 0.1341333E+00  0.2059604E-01
 0.1345333E+00  0.2536031E-01
 0.1349333E+00  0.2997426E-01
 0.1353333E+00  0.3434388E-01
 0.1357333E+00  0.3834400E-01
 0.1361333E+00  0.4180393E-01
 0.1365333E+00  0.4449460E-01
 0.1369333E+00  0.4611898E-01
 0.1373333E+00  0.4630767E-01
 0.1377333E+00  0.4462150E-01
 0.1381333E+00  0.4056237E-01
 0.1385333E+00  0.3359356E-01
 0.1389333E+00  0.2316993E-01
 0.1393333E+00  0.8778057E-02
 0.1397333E+00 -0.1001415E-01
 0.1401333E+00 -0.3349949E-01
 0.1405333E+00 -0.6176644E-01
 0.1409333E+00 -0.9462912E-01
 0.1413333E+00 -0.1315541E+00
 0.1417333E+00 -0.1715867E+00
 0.1421333E+00 -0.2132786E+00
 0.1425333E+00 -0.2546195E+00
 0.1429333E+00 -0.2929745E+00
 0.1433333E+00 -0.3250293E+00
 0.1437333E+00 -0.3467443E+00
 0.1441333E+00 -0.3533189E+00
 0.1445333E+00 -0.3391644E+00
 0.1449333E+00 -0.2978869E+00
 0.1453333E+00 -0.2222769E+00
 0.1457333E+00 -0.1043022E+00
 0.1461333E+00  0.6489830E-01
 0.1465333E+00  0.2950277E+00
 0.1469333E+00  0.5966560E+00
 0.1473333E+00  0.9812649E+00
 0.1477333E+00  0.1461322E+01
 0.1481333E+00  0.2050392E+01
 0.1485333E+00  0.2763295E+01
 0.1489333E+00  0.3616323E+01
 0.1493333E+00  0.4627515E+01
 0.1497333E+00  0.5817007E+01
 0.1501333E+00  0.7207460E+01
 0.1505333E+00  0.8824559E+01
 0.1509333E+00  0.1069760E+02
 0.1513333E+00  0.1286017E+02
 0.1517333E+00  0.1535086E+02
 0.1521333E+00  0.1821409E+02
 0.1525333E+00  0.2150104E+02
 0.1529333E+00  0.2527054E+02
 0.1533333E+00  0.2959014E+02
 0.1537333E+00  0.3453717E+02
 0.1541333E+00  0.4019990E+02
 0.1545333E+00  0.4667874E+02
 0.1549333E+00  0.5408755E+02
 0.1553333E+00  0.6255503E+02
 0.1557333E+00  0.7222616E+02
 0.1561333E+00  0.8326384E+02
 0.1565333E+00  0.9585061E+02
 0.1569333E+00  0.1101905E+03
 0.1573333E+00  0.1265113E+03
 0.1577333E+00  0.1450663E+03
 0.1581333E+00  0.1661376E+03
 0.1585333E+00  0.1900379E+03
 0.1589333E+00  0.2171141E+03
 0.1593333E+00  0.2477504E+03
 0.1597333E+00  0.2823716E+03
 0.1601333E+00  0.3214469E+03
 0.1605333E+00  0.3654942E+03
 0.1609333E+00  0.4150840E+03
 0.1613333E+00  0.4708444E+03
 0.1617333E+00  0.5334654E+03
 0.1621333E+00  0.6037045E+03
 0.1625333E+00  0.6823918E+03
 0.1629333E+00  0.7704353E+03
 0.1633333E+00  0.8688271E+03
 0.1637333E+00  0.9786492E+03
 0.1641333E+00  0.1101079E+04
 0.1645333E+00  0.1237396E+04
 0.1649333E+00  0.1388989E+04
 0.1653333E+00  0.1557359E+04
 0.1657333E+00  0.1744131E+04
 0.1661333E+00  0.1951056E+04
 0.1665333E+00  0.2180018E+04
 0.1669333E+00  0.2433042E+04
 0.1673333E+00  0.2712297E+04
 0.1677333E+00  0.3020106E+04
 0.1681333E+00  0.3358946E+04
 0.1685333E+00  0.3731458E+04
 0.1689333E+00  0.4140449E+04
 0.1693333E+00  0.4588896E+04
 0.1697333E+00  0.5079951E+04
 0.1701333E+00  0.5616941E+04
 0.1705333E+00  0.6203374E+04
 0.1709333E+00  0.6842934E+04
 0.1713333E+00  0.7539488E+04
 0.1717333E+00  0.8297077E+04
 0.1721333E+00  0.9119918E+04
 0.1725333E+00  0.1001240E+05
 0.1729333E+00  0.1097906E+05
 0.1733333E+00  0.1202462E+05
 0.1737333E+00  0.1315391E+05
 0.1741333E+00  0.1437192E+05
 0.1745333E+00  0.1568373E+05
 0.1749333E+00  0.1709454E+05
 0.1753333E+00  0.1860962E+05
 0.1757333E+00  0.2023429E+05
 0.1761333E+00  0.2197389E+05
 0.1765333E+00  0.2383377E+05
 0.1769333E+00  0.2581923E+05
 0.1773333E+00  0.2793552E+05
 0.1777333E+00  0.3018775E+05
 0.1781333E+00  0.3258091E+05
 0.1785333E+00  0.3511978E+05
 0.1789333E+00  0.3780889E+05
 0.1793333E+00  0.4065248E+05
 0.1797333E+00  0.4365446E+05
 0.1801333E+00  0.4681832E+05
 0.1805333E+00  0.5014709E+05
 0.1809333E+00  0.5364328E+05
 0.1813333E+00  0.5730882E+05
 0.1817333E+00  0.6114500E+05
 0.1821333E+00  0.6515238E+05
 0.1825333E+00  0.6933076E+05
 0.1829333E+00  0.7367909E+05
 0.1833333E+00  0.7819543E+05
 0.1837333E+00  0.8287684E+05
 0.1841333E+00  0.8771937E+05
 0.1845333E+00  0.9271794E+05
 0.1849333E+00  0.9786634E+05
 0.1853333E+00  0.1031571E+06
 0.1857333E+00  0.1085816E+06
 0.1861333E+00  0.1141297E+06
 0.1865333E+00  0.1197902E+06
 0.1869333E+00  0.1255501E+06
 0.1873333E+00  0.1313955E+06
 0.1877333E+00  0.1373105E+06
 0.1881333E+00  0.1432782E+06
 0.1885333E+00  0.1492801E+06
 0.1889333E+00  0.1552960E+06
 0.1893333E+00  0.1613047E+06
 0.1897333E+00  0.1672832E+06
 0.1901333E+00  0.1732073E+06
 0.1905333E+00  0.1790516E+06
 0.1909333E+00  0.1847892E+06
 0.1913333E+00  0.1903921E+06
 0.1917333E+00  0.1958314E+06
 0.1921333E+00  0.2010770E+06
 0.1925333E+00  0.2060980E+06
 0.1929333E+00  0.2108628E+06
 0.1933333E+00  0.2153391E+06
 0.1937333E+00  0.2194942E+06
 0.1941333E+00  0.2232953E+06
 0.1945333E+00  0.2267092E+06
 0.1949333E+00  0.2297029E+06
 0.1953333E+00  0.2322437E+06
 0.1957333E+00  0.2342994E+06
 0.1961333E+00  0.2358384E+06
 0.1965333E+00  0.2368302E+06
 0.1969333E+00  0.2372450E+06
 0.1973333E+00  0.2370549E+06
 0.1977333E+00  0.2362332E+06
 0.1981333E+00  0.2347551E+06
 0.1985333E+00  0.2325978E+06
 0.1989333E+00  0.2297408E+06
 0.1993333E+00  0.2261660E+06
 0.1997333E+00  0.2218579E+06
 0.2001333E+00  0.2168039E+06
 0.2005333E+00  0.2109944E+06
 0.2009333E+00  0.2044230E+06
 0.2013333E+00  0.1970867E+06
 0.2017333E+00  0.1889860E+06
 0.2021333E+00  0.1801248E+06
 0.2025333E+00  0.1705109E+06
 0.2029333E+00  0.1601559E+06
 0.2033333E+00  0.1490750E+06
 0.2037333E+00  0.1372877E+06
 0.2041333E+00  0.1248168E+06
 0.2045333E+00  0.1116893E+06
 0.2049333E+00  0.9793591E+05
 0.2053333E+00  0.8359097E+05
 0.2057333E+00  0.6869245E+05
 0.2061333E+00  0.5328180E+05
 0.2065333E+00  0.3740377E+05
 0.2069333E+00  0.2110626E+05
 0.2073333E+00  0.4440068E+04
 0.2077333E+00 -0.1254131E+05
 0.2081333E+00 -0.2978192E+05
 0.2085333E+00 -0.4722368E+05
 0.2089333E+00 -0.6480661E+05
 0.2093333E+00 -0.8246920E+05
 0.2097333E+00 -0.1001487E+06
 0.2101333E+00 -0.1177815E+06
 0.2105333E+00 -0.1353035E+06
 0.2109333E+00 -0.1526502E+06
 0.2113333E+00 -0.1697577E+06
 0.2117333E+00 -0.1865623E+06
 0.2121333E+00 -0.2030013E+06
 0.2125333E+00 -0.2190134E+06
 0.2129333E+00 -0.2345388E+06
 0.2133333E+00 -0.2495197E+06
 0.2137333E+00 -0.2639007E+06
 0.2141333E+00 -0.2776288E+06
 0.2145333E+00 -0.2906542E+06
 0.2149333E+00 -0.3029302E+06
 0.2153333E+00 -0.3144136E+06
 0.2157333E+00 -0.3250649E+06
 0.2161333E+00 -0.3348485E+06
 0.2165333E+00 -0.3437331E+06
 0.2169333E+00 -0.3516915E+06
 0.2173333E+00 -0.3587010E+06
 0.2177333E+00 -0.3647435E+06
 0.2181333E+00 -0.3698052E+06
 0.2185333E+00 -0.3738772E+06
 0.2189333E+00 -0.3769552E+06
 0.2193333E+00 -0.3790393E+06
 0.2197333E+00 -0.3801344E+06
 0.2201333E+00 -0.3802498E+06
 0.2205333E+00 -0.3793990E+06
 0.2209333E+00 -0.3775999E+06
 0.2213333E+00 -0.3748744E+06
 0.2217333E+00 -0.3712482E+06
 0.2221333E+00 -0.3667508E+06
 0.2225333E+00 -0.3614148E+06
 0.2229333E+00 -0.3552765E+06
 0.2233333E+00 -0.3483745E+06
 0.2237333E+00 -0.3407505E+06
 0.2241333E+00 -0.3324482E+06
 0.2245333E+00 -0.3235135E+06
 0.2249333E+00 -0.3139940E+06
 0.2253333E+00 -0.3039387E+06
 0.2257333E+00 -0.2933976E+06
 0.2261333E+00 -0.2824218E+06
 0.2265333E+00 -0.2710625E+06
 0.2269333E+00 -0.2593715E+06
 0.2273333E+00 -0.2474002E+06
 0.2277333E+00 -0.2351997E+06
 0.2281333E+00 -0.2228206E+06
 0.2285333E+00 -0.2103125E+06
 0.2289333E+00 -0.1977236E+06
 0.2293333E+00 -0.1851010E+06
 0.2297333E+00 -0.1724903E+06
 0.2301333E+00 -0.1599350E+06
 0.2305333E+00 -0.1474769E+06
 0.2309333E+00 -0.1351555E+06
 0.2313333E+00 -0.1230083E+06
 0.2317333E+00 -0.1110702E+06
 0.2321333E+00 -0.9937399E+05
 0.2325333E+00 -0.8794961E+05
 0.2329333E+00 -0.7682462E+05
 0.2333333E+00 -0.6602395E+05
 0.2337333E+00 -0.5556989E+05
 0.2341333E+00 -0.4548213E+05
 0.2345333E+00 -0.3577774E+05
 0.2349333E+00 -0.2647123E+05
 0.2353333E+00 -0.1757461E+05
 0.2357333E+00 -0.9097411E+04
 0.2361333E+00 -0.1046812E+04
 0.2365333E+00  0.6572298E+04
 0.2369333E+00  0.1375722E+05
 0.2373333E+00  0.2050733E+05
 0.2377333E+00  0.2682398E+05
 0.2381333E+00  0.3271037E+05
 0.2385333E+00  0.3817141E+05
 0.2389333E+00  0.4321362E+05
 0.2393333E+00  0.4784500E+05
 0.2397333E+00  0.5207484E+05
 0.2401333E+00  0.5591368E+05
 0.2405333E+00  0.5937309E+05
 0.2409333E+00  0.6246559E+05
 0.2413333E+00  0.6520451E+05
 0.2417333E+00  0.6760384E+05
 0.2421333E+00  0.6967813E+05
 0.2425333E+00  0.7144241E+05
 0.2429333E+00  0.7291200E+05
 0.2433333E+00  0.7410248E+05
 0.2437333E+00  0.7502953E+05
 0.2441333E+00  0.7570891E+05
 0.2445333E+00  0.7615631E+05
 0.2449333E+00  0.7638728E+05
 0.2453333E+00  0.7641718E+05
 0.2457333E+00  0.7626109E+05
 0.2461333E+00  0.7593373E+05
 0.2465333E+00  0.7544943E+05
 0.2469333E+00  0.7482209E+05
 0.2473333E+00  0.7406509E+05
 0.2477333E+00  0.7319133E+05
 0.2481333E+00  0.7221312E+05
 0.2485333E+00  0.7114223E+05
 0.2489333E+00  0.6998984E+05
 0.2493333E+00  0.6876655E+05
 0.2497333E+00  0.6748237E+05
 0.2501333E+00  0.6614673E+05
 0.2505333E+00  0.6476846E+05
 0.2509333E+00  0.6335582E+05
 0.2513333E+00  0.6191648E+05
 0.2517333E+00  0.6045754E+05
 0.2521333E+00  0.5898554E+05
 0.2525333E+00  0.5750650E+05
 0.2529333E+00  0.5602588E+05
 0.2533333E+00  0.5454868E+05
 0.2537333E+00  0.5307937E+05
 0.2541333E+00  0.5162200E+05
 0.2545333E+00  0.5018019E+05
 0.2549333E+00  0.4875717E+05
 0.2553333E+00  0.4735579E+05
 0.2557333E+00  0.4597857E+05
 0.2561333E+00  0.4462773E+05
 0.2565333E+00  0.4330516E+05
 0.2569333E+00  0.4201253E+05
 0.2573333E+00  0.4075123E+05
 0.2577333E+00  0.3952246E+05
 0.2581333E+00  0.3832717E+05
 0.2585333E+00  0.3716616E+05
 0.2589333E+00  0.3604006E+05
 0.2593333E+00  0.3494936E+05
 0.2597333E+00  0.3389441E+05
 0.2601333E+00  0.3287549E+05
 0.2605333E+00  0.3189277E+05
 0.2609333E+00  0.3094639E+05
 0.2613333E+00  0.3003643E+05
 0.2617333E+00  0.2916294E+05
 0.2621333E+00  0.2832597E+05
 0.2625333E+00  0.2752557E+05
 0.2629333E+00  0.2676182E+05
 0.2633333E+00  0.2603482E+05
 0.2637333E+00  0.2534471E+05
 0.2641333E+00  0.2469171E+05
 0.2645333E+00  0.2407611E+05
 0.2649333E+00  0.2349827E+05
 0.2653333E+00  0.2295866E+05
 0.2657333E+00  0.2245789E+05
 0.2661333E+00  0.2199665E+05
 0.2665333E+00  0.2157579E+05
 0.2669333E+00  0.2119631E+05
 0.2673333E+00  0.2085935E+05
 0.2677333E+00  0.2056624E+05
 0.2681333E+00  0.2031846E+05
 0.2685333E+00  0.2011771E+05
 0.2689333E+00  0.1996590E+05
 0.2693333E+00  0.1986512E+05
 0.2697333E+00  0.1981774E+05
 0.2701333E+00  0.1982635E+05
 0.2705333E+00  0.1989383E+05
 0.2709333E+00  0.2002332E+05
 0.2713333E+00  0.2021826E+05
 0.2717333E+00  0.2048237E+05
 0.2721333E+00  0.2081968E+05
 0.2725333E+00  0.2123454E+05
 0.2729333E+00  0.2173159E+05
 0.2733333E+00  0.2231579E+05
 0.2737333E+00  0.2299243E+05
 0.2741333E+00  0.2376709E+05
 0.2745333E+00  0.2464570E+05
 0.2749333E+00  0.2563449E+05
 0.2753333E+00  0.2674002E+05
 0.2757333E+00  0.2796918E+05
 0.2761333E+00  0.2932917E+05
 0.2765333E+00  0.3082751E+05
 0.2769333E+00  0.3247202E+05
 0.2773333E+00  0.3427079E+05
 0.2777333E+00  0.3623218E+05
 0.2781333E+00  0.3836479E+05
 0.2785333E+00  0.4067740E+05
 0.2789333E+00  0.4317899E+05
 0.2793333E+00  0.4587863E+05
 0.2797333E+00  0.4878549E+05
 0.2801333E+00  0.5190878E+05
 0.2805333E+00  0.5525769E+05
 0.2809333E+00  0.5884133E+05
 0.2813333E+00  0.6266870E+05
 0.2817333E+00  0.6674861E+05
 0.2821333E+00  0.7108958E+05
 0.2825333E+00  0.7569981E+05
 0.2829333E+00  0.8058706E+05
 0.2833333E+00  0.8575858E+05
 0.2837333E+00  0.9122098E+05
 0.2841333E+00  0.9698016E+05
 0.2845333E+00  0.1030412E+06
 0.2849333E+00  0.1094082E+06
 0.2853333E+00  0.1160842E+06
 0.2857333E+00  0.1230712E+06
 0.2861333E+00  0.1303697E+06
 0.2865333E+00  0.1379789E+06
 0.2869333E+00  0.1458963E+06
 0.2873333E+00  0.1541180E+06
 0.2877333E+00  0.1626380E+06
 0.2881333E+00  0.1714486E+06
 0.2885333E+00  0.1805399E+06
 0.2889333E+00  0.1899000E+06
 0.2893333E+00  0.1995144E+06
 0.2897333E+00  0.2093667E+06
 0.2901333E+00  0.2194377E+06
 0.2905333E+00  0.2297057E+06
 0.2909333E+00  0.2401464E+06
 0.2913333E+00  0.2507330E+06
 0.2917333E+00  0.2614358E+06
 0.2921333E+00  0.2722223E+06
 0.2925333E+00  0.2830577E+06
 0.2929333E+00  0.2939039E+06
 0.2933333E+00  0.3047205E+06
 0.2937333E+00  0.3154644E+06
 0.2941333E+00  0.3260899E+06
 0.2945333E+00  0.3365490E+06
 0.2949333E+00  0.3467910E+06
 0.2953333E+00  0.3567635E+06
 0.2957333E+00  0.3664118E+06
 0.2961333E+00  0.3756795E+06
 0.2965333E+00  0.3845086E+06
 0.2969333E+00  0.3928401E+06
 0.2973333E+00  0.4006136E+06
 0.2977333E+00  0.4077683E+06
 0.2981333E+00  0.4142431E+06
 0.2985333E+00  0.4199766E+06
 0.2989333E+00  0.4249081E+06
 0.2993333E+00  0.4289774E+06
 0.2997333E+00  0.4321255E+06
 0.3001333E+00  0.4342950E+06
 0.3005333E+00  0.4354304E+06
 0.3009333E+00  0.4354786E+06
 0.3013333E+00  0.4343893E+06
 0.3017333E+00  0.4321153E+06
 0.3021333E+00  0.4286133E+06
 0.3025333E+00  0.4238439E+06
 0.3029333E+00  0.4177722E+06
 0.3033333E+00  0.4103682E+06
 0.3037333E+00  0.4016072E+06
 0.3041333E+00  0.3914699E+06
 0.3045333E+00  0.3799431E+06
 0.3049333E+00  0.3670198E+06
 0.3053333E+00  0.3526993E+06
 0.3057333E+00  0.3369876E+06
 0.3061333E+00  0.3198975E+06
 0.3065333E+00  0.3014489E+06
 0.3069333E+00  0.2816687E+06
 0.3073333E+00  0.2605908E+06
 0.3077333E+00  0.2382562E+06
 0.3081333E+00  0.2147132E+06
 0.3085333E+00  0.1900169E+06
 0.3089333E+00  0.1642290E+06
 0.3093333E+00  0.1374182E+06
 0.3097333E+00  0.1096592E+06
 0.3101333E+00  0.8103315E+05
 0.3105333E+00  0.5162654E+05
 0.3109333E+00  0.2153141E+05
 0.3113333E+00 -0.9155371E+04
 0.3117333E+00 -0.4033249E+05
 0.3121333E+00 -0.7189474E+05
 0.3125333E+00 -0.1037335E+06
 0.3129333E+00 -0.1357374E+06
 0.3133333E+00 -0.1677929E+06
 0.3137333E+00 -0.1997847E+06
 0.3141333E+00 -0.2315968E+06
 0.3145333E+00 -0.2631126E+06
 0.3149333E+00 -0.2942162E+06
 0.3153333E+00 -0.3247925E+06
 0.3157333E+00 -0.3547280E+06
 0.3161333E+00 -0.3839119E+06
 0.3165333E+00 -0.4122359E+06
 0.3169333E+00 -0.4395956E+06
 0.3173333E+00 -0.4658907E+06
 0.3177333E+00 -0.4910254E+06
 0.3181333E+00 -0.5149096E+06
 0.3185333E+00 -0.5374586E+06
 0.3189333E+00 -0.5585941E+06
 0.3193333E+00 -0.5782444E+06
 0.3197333E+00 -0.5963449E+06
 0.3201333E+00 -0.6128384E+06
 0.3205333E+00 -0.6276750E+06
 0.3209333E+00 -0.6408131E+06
 0.3213333E+00 -0.6522188E+06
 0.3217333E+00 -0.6618666E+06
 0.3221333E+00 -0.6697391E+06
 0.3225333E+00 -0.6758272E+06
 0.3229333E+00 -0.6801299E+06
 0.3233333E+00 -0.6826543E+06
 0.3237333E+00 -0.6834156E+06
 0.3241333E+00 -0.6824365E+06
 0.3245333E+00 -0.6797474E+06
 0.3249333E+00 -0.6753859E+06
 0.3253333E+00 -0.6693962E+06
 0.3257333E+00 -0.6618292E+06
 0.3261333E+00 -0.6527421E+06
 0.3265333E+00 -0.6421975E+06
 0.3269333E+00 -0.6302632E+06
 0.3273333E+00 -0.6170121E+06
 0.3277333E+00 -0.6025208E+06
 0.3281333E+00 -0.5868701E+06
 0.3285333E+00 -0.5701438E+06
 0.3289333E+00 -0.5524282E+06
 0.3293333E+00 -0.5338119E+06
 0.3297333E+00 -0.5143851E+06
 0.3301333E+00 -0.4942389E+06
 0.3305333E+00 -0.4734648E+06
 0.3309333E+00 -0.4521545E+06
 0.3313333E+00 -0.4303991E+06
 0.3317333E+00 -0.4082887E+06
 0.3321333E+00 -0.3859120E+06
 0.3325333E+00 -0.3633558E+06
 0.3329333E+00 -0.3407046E+06