 -6.666666666666667E-002    0.000000000000000E+000
 -6.626666666666667E-002    0.000000000000000E+000
 -6.586666666666667E-002    0.000000000000000E+000
 -6.546666666666666E-002    0.000000000000000E+000
 -6.506666666666666E-002    0.000000000000000E+000
 -6.466666666666666E-002    0.000000000000000E+000
 -6.426666666666667E-002    0.000000000000000E+000
 -6.386666666666667E-002    0.000000000000000E+000
 -6.346666666666667E-002    0.000000000000000E+000
 -6.306666666666666E-002    0.000000000000000E+000
 -6.266666666666666E-002    0.000000000000000E+000
 -6.226666666666666E-002    0.000000000000000E+000
 -6.186666666666667E-002    0.000000000000000E+000
 -6.146666666666666E-002    0.000000000000000E+000
 -6.106666666666666E-002    0.000000000000000E+000
 -6.066666666666667E-002    0.000000000000000E+000
 -6.026666666666666E-002    0.000000000000000E+000
 -5.986666666666667E-002    0.000000000000000E+000
 -5.946666666666667E-002    0.000000000000000E+000
 -5.906666666666666E-002    0.000000000000000E+000
 -5.866666666666667E-002    0.000000000000000E+000
 -5.826666666666666E-002    0.000000000000000E+000
 -5.786666666666666E-002    0.000000000000000E+000
 -5.746666666666667E-002    0.000000000000000E+000
 -5.706666666666667E-002    0.000000000000000E+000
 -5.666666666666666E-002    0.000000000000000E+000
 -5.626666666666667E-002    0.000000000000000E+000
 -5.586666666666666E-002    0.000000000000000E+000
 -5.546666666666666E-002    0.000000000000000E+000
 -5.506666666666667E-002    0.000000000000000E+000
 -5.466666666666667E-002    0.000000000000000E+000
 -5.426666666666666E-002    0.000000000000000E+000
 -5.386666666666667E-002    0.000000000000000E+000
 -5.346666666666666E-002    0.000000000000000E+000
 -5.306666666666666E-002    0.000000000000000E+000
 -5.266666666666667E-002    0.000000000000000E+000
 -5.226666666666666E-002    0.000000000000000E+000
 -5.186666666666667E-002    0.000000000000000E+000
 -5.146666666666667E-002    0.000000000000000E+000
 -5.106666666666666E-002    0.000000000000000E+000
 -5.066666666666667E-002    0.000000000000000E+000
 -5.026666666666667E-002    0.000000000000000E+000
 -4.986666666666666E-002    0.000000000000000E+000
 -4.946666666666667E-002    0.000000000000000E+000
 -4.906666666666666E-002    0.000000000000000E+000
 -4.866666666666666E-002    0.000000000000000E+000
 -4.826666666666667E-002    0.000000000000000E+000
 -4.786666666666667E-002    0.000000000000000E+000
 -4.746666666666666E-002    0.000000000000000E+000
 -4.706666666666667E-002    0.000000000000000E+000
 -4.666666666666666E-002    0.000000000000000E+000
 -4.626666666666666E-002    0.000000000000000E+000
 -4.586666666666667E-002    0.000000000000000E+000
 -4.546666666666667E-002    0.000000000000000E+000
 -4.506666666666666E-002    0.000000000000000E+000
 -4.466666666666666E-002    0.000000000000000E+000
 -4.426666666666666E-002    0.000000000000000E+000
 -4.386666666666666E-002    0.000000000000000E+000
 -4.346666666666667E-002    0.000000000000000E+000
 -4.306666666666667E-002    0.000000000000000E+000
 -4.266666666666667E-002    0.000000000000000E+000
 -4.226666666666666E-002    0.000000000000000E+000
 -4.186666666666666E-002    0.000000000000000E+000
 -4.146666666666667E-002    0.000000000000000E+000
 -4.106666666666667E-002    0.000000000000000E+000
 -4.066666666666666E-002    0.000000000000000E+000
 -4.026666666666667E-002    0.000000000000000E+000
 -3.986666666666666E-002    0.000000000000000E+000
 -3.946666666666666E-002    0.000000000000000E+000
 -3.906666666666667E-002    0.000000000000000E+000
 -3.866666666666667E-002    0.000000000000000E+000
 -3.826666666666666E-002    0.000000000000000E+000
 -3.786666666666666E-002    0.000000000000000E+000
 -3.746666666666666E-002    0.000000000000000E+000
 -3.706666666666666E-002    0.000000000000000E+000
 -3.666666666666667E-002    0.000000000000000E+000
 -3.626666666666667E-002    0.000000000000000E+000
 -3.586666666666666E-002    0.000000000000000E+000
 -3.546666666666666E-002    0.000000000000000E+000
 -3.506666666666666E-002    0.000000000000000E+000
 -3.466666666666667E-002    0.000000000000000E+000
 -3.426666666666667E-002    0.000000000000000E+000
 -3.386666666666666E-002    0.000000000000000E+000
 -3.346666666666667E-002    0.000000000000000E+000
 -3.306666666666666E-002    0.000000000000000E+000
 -3.266666666666666E-002    0.000000000000000E+000
 -3.226666666666667E-002    0.000000000000000E+000
 -3.186666666666666E-002    0.000000000000000E+000
 -3.146666666666666E-002    1.414846217877909E-038
 -3.106666666666667E-002    4.610415160331702E-038
 -3.066666666666666E-002    9.192159193563933E-038
 -3.026666666666666E-002    1.345625212648824E-037
 -2.986666666666667E-002    1.529744732577267E-037
 -2.946666666666666E-002    1.147381725238757E-037
 -2.906666666666666E-002   -1.255920054494207E-038
 -2.866666666666667E-002   -2.484710017836129E-037
 -2.826666666666666E-002   -5.780327466747321E-037
 -2.786666666666666E-002   -9.366487897174077E-037
 -2.746666666666667E-002   -1.204310786967316E-036
 -2.706666666666666E-002   -1.210590039017118E-036
 -2.666666666666666E-002   -7.608588793309915E-037
 -2.626666666666666E-002    3.076342489421399E-037
 -2.586666666666666E-002    2.049665676778000E-036
 -2.546666666666667E-002    4.315142258400431E-036
 -2.506666666666666E-002    6.671840903765110E-036
 -2.466666666666666E-002    8.366530819440670E-036
 -2.426666666666667E-002    8.374075679421900E-036
 -2.386666666666666E-002    5.565668003245832E-036
 -2.346666666666666E-002   -9.770906669717797E-037
 -2.306666666666667E-002   -1.152556857234239E-035
 -2.266666666666666E-002   -2.520581886371388E-035
 -2.226666666666666E-002   -3.957155656207155E-035
 -2.186666666666667E-002   -5.043057305879184E-035
 -2.146666666666666E-002   -5.212840475288675E-035
 -2.106666666666666E-002   -3.846943303296098E-035
 -2.066666666666667E-002   -4.357162378878815E-036
 -2.026666666666666E-002    5.195371068032021E-035
 -1.986666666666666E-002    1.263491352829615E-034
 -1.946666666666667E-002    2.067282910484876E-034
 -1.906666666666666E-002    2.721318783732781E-034
 -1.866666666666666E-002    2.940916281323250E-034
 -1.826666666666666E-002    2.410177826862102E-034
 -1.786666666666666E-002    8.595360482062717E-035
 -1.746666666666667E-002   -1.828150395740419E-034
 -1.706666666666666E-002   -5.499358843312583E-034
 -1.666666666666666E-002   -9.628194129322075E-034
 -1.626666666666667E-002   -1.326993256617714E-033
 -1.586666666666666E-002   -1.511227016854153E-033
 -1.546666666666666E-002   -1.365988628667313E-033
 -1.506666666666667E-002   -7.567257281210457E-034
 -1.466666666666666E-002    3.900624078056884E-034
 -1.426666666666666E-002    2.034681355266537E-033
 -1.386666666666667E-002    3.977791333262033E-033
 -1.346666666666666E-002    5.835563176452715E-033
 -1.306666666666666E-002    7.053985111599094E-033
 -1.266666666666667E-002    6.977354634868989E-033
 -1.226666666666666E-002    4.978080822488151E-033
 -1.186666666666666E-002    6.413465954017707E-034
 -1.146666666666666E-002   -6.019908241310497E-033
 -1.106666666666666E-002   -1.436391207757066E-032
 -1.066666666666666E-002   -2.299368336596153E-032
 -1.026666666666666E-002   -2.977374082493660E-032
 -9.866666666666662E-003   -3.205079974812208E-032
 -9.466666666666665E-003   -2.711227173914521E-032
 -9.066666666666660E-003   -1.286829975829276E-032
 -8.666666666666663E-003    1.132224330300122E-032
 -8.266666666666665E-003    4.383388165236776E-032
 -7.866666666666661E-003    8.018074003328892E-032
 -7.466666666666663E-003    1.128974632086236E-031
 -7.066666666666666E-003    1.321297850571446E-031
 -6.666666666666661E-003    1.270868790272864E-031
 -6.266666666666663E-003    8.835107817086852E-032
 -5.866666666666666E-003    1.082126965119984E-032
 -5.466666666666661E-003   -1.031864692776105E-031
 -5.066666666666664E-003   -2.413915265232794E-031
 -4.666666666666666E-003   -3.804151039953128E-031
 -4.266666666666662E-003   -4.869147746303770E-031
 -3.866666666666657E-003   -5.216211983186310E-031
 -3.466666666666660E-003   -4.464467829310026E-031
 -3.066666666666662E-003   -2.341497760256036E-031
 -2.666666666666664E-003    1.207873812913428E-031
 -2.266666666666667E-003    5.922173923482248E-031
 -1.866666666666669E-003    1.116076120653759E-030
 -1.466666666666658E-003    1.590726163385848E-030
 -1.066666666666660E-003    1.886321239058313E-030
 -6.666666666666626E-004    1.864373913172528E-030
 -2.666666666666651E-004    1.406731957143164E-030
  1.333333333333325E-004    4.506556639640088E-031
  5.333333333333440E-004   -9.759445927363015E-031
  9.333333333333416E-004   -2.727236231478370E-030
  1.333333333333339E-003   -4.529344867164677E-030
  1.733333333333337E-003   -5.995867168968066E-030
  2.133333333333334E-003   -6.674582560805164E-030
  2.533333333333332E-003   -6.125724123942952E-030
  2.933333333333343E-003   -4.025084497893567E-030
  3.333333333333341E-003   -2.772867511584070E-031
  3.733333333333338E-003    4.882759406649004E-030
  4.133333333333336E-003    1.082696425717527E-029
  4.533333333333334E-003    1.653680336985379E-029
  4.933333333333331E-003    2.069312870871158E-029
  5.333333333333343E-003    2.186219677297725E-029
  5.733333333333340E-003    1.876875756387308E-029
  6.133333333333338E-003    1.062491539809943E-029
  6.533333333333335E-003   -2.538849061787340E-030
  6.933333333333333E-003   -1.961166939205677E-029
  7.333333333333344E-003   -3.828797479543542E-029
  7.733333333333342E-003   -5.517224752454482E-029
  8.133333333333340E-003   -6.614916950201494E-029
  8.533333333333337E-003   -6.702284354716190E-029
  8.933333333333335E-003   -5.437218613299098E-029
  9.333333333333332E-003   -2.650773841036477E-029
  9.733333333333344E-003    1.564107742684359E-029
  1.013333333333334E-002    6.791536763163956E-029
  1.053333333333334E-002    1.228030228957147E-028
  1.093333333333334E-002    1.699716111279966E-028
  1.133333333333333E-002    1.975398779085659E-028
  1.173333333333333E-002    1.940402224583712E-028
  1.213333333333334E-002    1.508675175635175E-028
  1.253333333333334E-002    6.485182096175816E-029
  1.293333333333334E-002   -5.953458116361021E-029
  1.333333333333334E-002   -2.088869876954715E-028
  1.373333333333333E-002   -3.610108254728993E-028
  1.413333333333334E-002   -4.868631491754380E-028
  1.453333333333334E-002   -5.543952085998959E-028
  1.493333333333334E-002   -5.340422216888547E-028
  1.533333333333334E-002   -4.052093528785066E-028
  1.573333333333334E-002   -1.627325460236554E-028
  1.613333333333333E-002    1.779691555926861E-028
  1.653333333333334E-002    5.784050549928424E-028
  1.693333333333334E-002    9.783649006219327E-028
  1.733333333333334E-002    1.301830997757591E-027
  1.773333333333334E-002    1.467458372969468E-027
  1.813333333333333E-002    1.402740289786755E-027
  1.853333333333333E-002    1.060043396970401E-027
  1.893333333333334E-002    4.318907048455612E-028
  1.933333333333334E-002   -4.376189501309036E-028
  1.973333333333334E-002   -1.448366629430758E-027
  2.013333333333334E-002   -2.449259614094674E-027
  2.053333333333333E-002   -3.254063945174307E-027
  2.093333333333333E-002   -3.667568422768035E-027
  2.133333333333334E-002   -3.519564943587753E-027
  2.173333333333334E-002   -2.702082600870208E-027
  2.213333333333334E-002   -1.203674437397940E-027
  2.253333333333334E-002    8.662778963815344E-028
  2.293333333333333E-002    3.269963652423190E-027
  2.333333333333334E-002    5.655334199879712E-027
  2.373333333333334E-002    7.594234512070418E-027
  2.413333333333334E-002    8.642664551476164E-027
  2.453333333333334E-002    8.416916287858825E-027
  2.493333333333334E-002    6.675100623923142E-027
  2.533333333333333E-002    3.390449059372078E-027
  2.573333333333334E-002   -1.198534419265862E-027
  2.613333333333334E-002   -6.574793570187589E-027
  2.653333333333334E-002   -1.197613805493146E-026
  2.693333333333334E-002   -1.647870958290011E-026
  2.733333333333333E-002   -1.912553513514291E-026
  2.773333333333333E-002   -1.908619377898292E-026
  2.813333333333334E-002   -1.582543106427605E-026
  2.853333333333334E-002   -9.252801468973973E-027
  2.893333333333334E-002    1.764195764335564E-028
  2.933333333333334E-002    1.143566818649795E-026
  2.973333333333333E-002    2.299508584601454E-026
  3.013333333333335E-002    3.298819090407966E-026
  3.053333333333334E-002    3.946603316086680E-026
  3.093333333333334E-002    4.071052903158698E-026
  3.133333333333334E-002    3.556355058869009E-026
  3.173333333333334E-002    2.371832646617039E-026
  3.213333333333333E-002    5.917257976014454E-027
  3.253333333333334E-002   -1.599286525066525E-026
  3.293333333333334E-002   -3.918089075850851E-026
  3.333333333333334E-002   -6.013458330810992E-026
  3.373333333333334E-002   -7.512535023085556E-026
  3.413333333333333E-002   -8.078199444828344E-026
  3.453333333333333E-002   -7.469478008802461E-026
  3.493333333333334E-002   -5.595413820040760E-026
  3.533333333333334E-002   -2.552538955513401E-026
  3.573333333333334E-002    1.362621166078026E-026
  3.613333333333334E-002    5.671635039817412E-026
  3.653333333333333E-002    9.764187484131294E-026
  3.693333333333335E-002    1.297629720250866E-025
  3.733333333333334E-002    1.468783693956979E-025
  3.773333333333334E-002    1.442612617128689E-025
  3.813333333333334E-002    1.195967982799870E-025
  3.853333333333334E-002    7.365769300561933E-026
  3.893333333333333E-002    1.057712636551704E-026
  3.933333333333335E-002   -6.237383894328962E-026
  3.973333333333334E-002   -1.355277579792638E-025
  4.013333333333334E-002   -1.980237594292979E-025
  4.053333333333334E-002   -2.393337426301672E-025
  4.093333333333334E-002   -2.509065293249857E-025
  4.133333333333333E-002   -2.276835489590238E-025
  4.173333333333334E-002   -1.692348846648876E-025
  4.213333333333334E-002   -8.029882946978722E-026
  4.253333333333334E-002    2.941791121763834E-026
  4.293333333333334E-002    1.462188200491749E-025
  4.333333333333333E-002    2.540945134582101E-025
  4.373333333333335E-002    3.368998621726756E-025
  4.413333333333334E-002    3.807365915048711E-025
  4.453333333333334E-002    3.761896712028870E-025
  4.493333333333334E-002    3.200599498213095E-025
  4.533333333333334E-002    2.162872452398452E-025
  4.573333333333333E-002    7.586297831806796E-026
  4.613333333333335E-002   -8.432420177985538E-026
  4.653333333333334E-002   -2.436009131336372E-025
  4.693333333333334E-002   -3.803127020278312E-025
  4.733333333333334E-002   -4.749252770373856E-025
  4.773333333333334E-002   -5.129588250760326E-025
  4.813333333333333E-002   -4.872905731191118E-025
  4.853333333333334E-002   -3.994369583454911E-025
  4.893333333333334E-002   -2.595697997861229E-025
  4.933333333333334E-002   -8.521311243457137E-026
  4.973333333333334E-002    1.012207765309293E-025
  5.013333333333334E-002    2.757006001394051E-025
  5.053333333333335E-002    4.161476454198206E-025
  5.093333333333334E-002    5.057346341212448E-025
  5.133333333333334E-002    5.353602068092068E-025
  5.173333333333334E-002    5.048642247199466E-025
  5.213333333333334E-002    4.227494744241955E-025
  5.253333333333333E-002    3.044244801607962E-025
  5.293333333333335E-002    1.692460766289805E-025
  5.333333333333334E-002    3.686663170757459E-026
  5.373333333333334E-002   -7.645593671083381E-026
  5.413333333333334E-002   -1.608851740876242E-025
  5.453333333333334E-002   -2.147512344497667E-025
  5.493333333333333E-002   -2.445963816403163E-025
  5.533333333333335E-002   -2.633975994172881E-025
  5.573333333333334E-002   -2.871856507104211E-025
  5.613333333333334E-002   -3.306131091442266E-025
  5.653333333333334E-002   -4.022868169732151E-025
  5.693333333333334E-002   -5.008194390360390E-025
  5.733333333333333E-002   -6.125304755586457E-025
  5.773333333333334E-002   -7.115289199860026E-025
  5.813333333333334E-002   -7.625528870699568E-025
  5.853333333333334E-002   -7.264703892651477E-025
  5.893333333333335E-002   -5.678319896432061E-025
  5.933333333333334E-002   -2.633938523279883E-025
  5.973333333333335E-002    1.898148728495681E-025
  6.013333333333333E-002    7.684471571461551E-025
  6.053333333333334E-002    1.420272174900443E-024
  6.093333333333335E-002    2.066169889028128E-024
  6.133333333333334E-002    2.607157484408535E-024
  6.173333333333335E-002    2.936151924930958E-024
  6.213333333333333E-002    2.953339626333913E-024
  6.253333333333334E-002    2.583276495440006E-024
  6.293333333333333E-002    1.791280065335967E-024
  6.333333333333334E-002    5.964420025233092E-025
  6.373333333333335E-002   -9.212694332253219E-025
  6.413333333333333E-002   -2.621782965591333E-024
  6.453333333333335E-002   -4.314614767677527E-024
  6.493333333333333E-002   -5.777312769529275E-024
  6.533333333333334E-002   -6.781180869911895E-024
  6.573333333333335E-002   -7.121551473548510E-024
  6.613333333333334E-002   -6.648895206993573E-024
  6.653333333333335E-002   -5.296504019949332E-024
  6.693333333333333E-002   -3.100495514530878E-024
  6.733333333333334E-002   -2.085050091503235E-025
  6.773333333333335E-002    3.125361987985254E-024
  6.813333333333334E-002    6.560088796157865E-024
  6.853333333333335E-002    9.700670672018001E-024
  6.893333333333333E-002    1.214134083731668E-023
  6.933333333333334E-002    1.351438164184644E-023
  6.973333333333333E-002    1.353867540228362E-023
  7.013333333333334E-002    1.206173846109264E-023
  7.053333333333335E-002    9.089419433024784E-024
  7.093333333333333E-002    4.798633786711268E-024
  7.133333333333335E-002   -4.695213826213954E-025
  7.173333333333333E-002   -6.236582066522612E-024
  7.213333333333334E-002   -1.193121905774110E-023
  7.253333333333335E-002   -1.694685901314781E-023
  7.293333333333334E-002   -2.070605575012095E-023
  7.333333333333335E-002   -2.272421280344416E-023
  7.373333333333333E-002   -2.266524387305707E-023
  7.413333333333334E-002   -2.038262593442395E-023
  7.453333333333335E-002   -1.594113708963792E-023
  7.493333333333334E-002   -9.616892855022624E-024
  7.533333333333335E-002   -1.876006290354645E-024
  7.573333333333333E-002    6.665326390788421E-024
  7.613333333333334E-002    1.529444311903403E-023
  7.653333333333333E-002    2.326339607671910E-023
  7.693333333333334E-002    2.985120978382141E-023
  7.733333333333335E-002    3.442132397692554E-023
  7.773333333333333E-002    3.646966758164793E-023
  7.813333333333335E-002    3.566066232435120E-023
  7.853333333333333E-002    3.185039788781767E-023
  7.893333333333334E-002    2.509788264547970E-023
  7.933333333333335E-002    1.566636894774039E-023
  7.973333333333334E-002    4.016994508647102E-024
  8.013333333333335E-002   -9.203592060698326E-024
  8.053333333333333E-002   -2.318116994912429E-023
  8.093333333333334E-002   -3.695862250336564E-023
  8.133333333333335E-002   -4.946997223738899E-023
  8.173333333333334E-002   -5.958729005169124E-023
  8.213333333333335E-002   -6.618383329357072E-023
  8.253333333333333E-002   -6.821533314024484E-023
  8.293333333333335E-002   -6.481861167833351E-023
  8.333333333333333E-002   -5.542276711528468E-023
  8.373333333333334E-002   -3.986388362132427E-023
  8.413333333333335E-002   -1.848988198781278E-023
  8.453333333333334E-002    7.760895627098457E-024
  8.493333333333335E-002    3.732516830069839E-023
  8.533333333333333E-002    6.804059729429476E-023
  8.573333333333334E-002    9.724424062735111E-023
  8.613333333333335E-002    1.219485053469527E-022
  8.653333333333334E-002    1.390901625165921E-022
  8.693333333333335E-002    1.458372077974133E-022
  8.733333333333333E-002    1.399275667664768E-022
  8.773333333333334E-002    1.200048151853605E-022
  8.813333333333336E-002    8.591008908952734E-023
  8.853333333333334E-002    3.888823307552141E-023
  8.893333333333335E-002   -1.832971166961671E-023
  8.933333333333333E-002   -8.159597288194192E-023
  8.973333333333335E-002   -1.455811246149168E-022
  9.013333333333333E-002   -2.041703036731118E-022
  9.053333333333334E-002   -2.509961529957192E-022
  9.093333333333335E-002   -2.800652608345556E-022
  9.133333333333334E-002   -2.864185572385883E-022
  9.173333333333335E-002   -2.667566093836253E-022
  9.213333333333333E-002   -2.199572405438843E-022
  9.253333333333334E-002   -1.474188297361707E-022
  9.293333333333335E-002   -5.317624902939628E-023
  9.333333333333334E-002    5.624265234218622E-023
  9.373333333333335E-002    1.722258041456321E-022
  9.413333333333333E-002    2.847284259045960E-022
  9.453333333333334E-002    3.831170512699331E-022
  9.493333333333336E-002    4.571328029156211E-022
  9.533333333333334E-002    4.978839183970475E-022
  9.573333333333335E-002    4.987709262206524E-022
  9.613333333333333E-002    4.562503894179281E-022
  9.653333333333335E-002    3.703570683558022E-022
  9.693333333333333E-002    2.449255338530197E-022
  9.733333333333334E-002    8.748087523489066E-023
  9.773333333333335E-002   -9.120077723245293E-023
  9.813333333333334E-002   -2.778300455477172E-022
  9.853333333333335E-002   -4.575812798065701E-022
  9.893333333333333E-002   -6.152289091801689E-022
  9.933333333333334E-002   -7.363503348887645E-022
  9.973333333333335E-002   -8.084998309593168E-022
  0.100133333333333        -8.222630682400461E-022
  0.100533333333333        -7.721144862975498E-022
  0.100933333333333        -6.570181403693172E-022
  0.101333333333333        -4.807328958707412E-022
  0.101733333333333        -2.518035679094311E-022
  0.102133333333333         1.676092449778722E-023
  0.102533333333333         3.081067290384914E-022
  0.102933333333333         6.024235636085442E-022
  0.103333333333333         8.780651449221100E-022
  0.103733333333333         1.112858322116530E-021
  0.104133333333333         1.285549036703489E-021
  0.104533333333333         1.377325896966920E-021
  0.104933333333333         1.373351653591740E-021
  0.105333333333333         1.264218439774705E-021
  0.105733333333333         1.047228729873193E-021
  0.106133333333333         7.273921061797216E-022
  0.106533333333333         3.180181036694330E-022
  0.106933333333333        -1.592115303409814E-022
  0.107333333333333        -6.747963136261614E-022
  0.107733333333333        -1.192668932376002E-021
  0.108133333333333        -1.672173174231417E-021
  0.108533333333333        -2.070730745149648E-021
  0.108933333333333        -2.347086617924786E-021
  0.109333333333333        -2.464940266219594E-021
  0.109733333333333        -2.396693018922568E-021
  0.110133333333333        -2.126982459925913E-021
  0.110533333333333        -1.655630874644903E-021
  0.110933333333333        -9.996366631087884E-022
  0.111333333333333        -1.938699890614600E-022
  0.111733333333333         7.097850336977762E-022
  0.112133333333333         1.644977390161428E-021
  0.112533333333333         2.535110264154345E-021
  0.112933333333333         3.299047102764011E-021
  0.113333333333333         3.857936853514293E-021
  0.113733333333333         4.142635214352069E-021
  0.114133333333333         4.101072215848764E-021
  0.114533333333333         3.704849067364812E-021
  0.114933333333333         2.954346845515421E-021
  0.115333333333333         1.881695135529098E-021
  0.115733333333333         5.510983798486926E-022
  0.116133333333333        -9.437748097027705E-022
  0.116533333333333        -2.485379462947253E-021
  0.116933333333333        -3.940613313400898E-021
  0.117333333333333        -5.171346185470781E-021
  0.117733333333333        -6.046382508413626E-021
  0.118133333333333        -6.453892956408518E-021
  0.118533333333333        -6.313229439215455E-021
  0.118933333333333        -5.585019290587907E-021
  0.119333333333333        -4.278511746867408E-021
  0.119733333333333        -2.455324089650273E-021
  0.120133333333333        -2.289877920207179E-022
  0.120533333333333         2.239976220173581E-021
  0.120933333333333         4.753371175712883E-021
  0.121333333333333         7.088580804822857E-021
  0.121733333333333         9.014975399327321E-021
  0.122133333333333         1.031239041865827E-020
  0.122533333333333         1.079037964367888E-020
  0.122933333333333         1.030681583525278E-020
  0.123333333333333         8.784386686674660E-021
  0.123733333333333         6.223618879350183E-021
  0.124133333333333         2.711206838367941E-021
  0.124533333333333        -1.577296507129026E-021
  0.124933333333333        -6.381067135174040E-021
  0.125333333333333        -1.136414168179021E-020
  0.125733333333333        -1.613195257140904E-020
  0.126133333333333        -2.025373701821109E-020
  0.126533333333333        -2.328986145132150E-020
  0.126933333333333        -2.482276768246291E-020
  0.127333333333333        -2.448988887822140E-020
  0.127733333333333        -2.201664308049486E-020
  0.128133333333333        -1.724740401184967E-020
  0.128533333333333        -1.017226731536150E-020
  0.128933333333333        -9.474419905483150E-022
  0.129333333333333         1.009278527513538E-020
  0.129733333333333         2.243428043254177E-020
  0.130133333333333         3.539287413733903E-020
  0.130533333333333         4.813659636891570E-020
  0.130933333333333         5.972052090881353E-020
  0.131333333333333         6.913361009746824E-020
  0.131733333333333         7.535621196471764E-020
  0.132133333333333         7.742585016906799E-020
  0.132533333333333         7.450829367571397E-020
  0.132933333333333         6.597001907066798E-020
  0.133333333333333         5.144770019456317E-020
  0.133733333333333         3.090997526995643E-020
  0.134133333333333         4.706706960834311E-021
  0.134533333333333        -2.639882301477632E-020
  0.134933333333333        -6.121869363216338E-020
  0.135333333333333        -9.815314808796569E-020
  0.135733333333333        -1.352291667507882E-019
  0.136133333333333        -1.701651269972683E-019
  0.136533333333333        -2.004603325886873E-019
  0.136933333333333        -2.235064762585126E-019
  0.137333333333333        -2.367167574361376E-019
  0.137733333333333        -2.376668260684430E-019
  0.138133333333333        -2.242412194376128E-019
  0.138533333333333        -1.947779765966631E-019
  0.138933333333333        -1.482046708061159E-019
  0.139333333333333        -8.415927483866010E-020
  0.139733333333333        -3.090651710569634E-021
  0.140133333333333         9.366506641705757E-020
  0.140533333333333         2.038340533404702E-019
  0.140933333333333         3.241799661247449E-019
  0.141333333333333         4.505022588347153E-019
  0.141733333333333         5.776526885848219E-019
  0.142133333333333         6.995637563350177E-019
  0.142533333333333         8.092814580731458E-019
  0.142933333333333         8.989928144197016E-019
  0.143333333333333         9.600397776018808E-019
  0.143733333333333         9.829102875632063E-019
  0.144133333333333         9.571979986074548E-019
  0.144533333333333         8.715248346138064E-019
  0.144933333333333         7.134197553783169E-019
  0.145333333333333         4.691498049738045E-019
  0.145733333333333         1.235027054204156E-019
  0.146133333333333        -3.404814471008747E-019
  0.146533333333333        -9.418296032116790E-019
  0.146933333333333        -1.702004346847272E-018
  0.147333333333333        -2.645321944583357E-018
  0.147733333333333        -3.799420051648980E-018
  0.148133333333333        -5.195775785483927E-018
  0.148533333333333        -6.870277617734730E-018
  0.148933333333333        -8.863855685881431E-018
  0.149333333333333        -1.122317827931335E-017
  0.149733333333333        -1.400141987652786E-017
  0.150133333333333        -1.725911851783525E-017
  0.150533333333333        -2.106513698923056E-017
  0.150933333333333        -2.549772988538377E-017
  0.151333333333333        -3.064575460205654E-017
  0.151733333333333        -3.661003122102929E-017
  0.152133333333333        -4.350488933784665E-017
  0.152533333333333        -5.145988859749156E-017
  0.152933333333333        -6.062177745807585E-017
  0.153333333333333        -7.115668356510221E-017
  0.153733333333333        -8.325255889735493E-017
  0.154133333333333        -9.712195578503565E-017
  0.154533333333333        -1.130050345384706E-016
  0.154933333333333        -1.311730045194586E-016
  0.155333333333333        -1.519317835883016E-016
  0.155733333333333        -1.756261670940912E-016
  0.156133333333333        -2.026442814151270E-016
  0.156533333333333        -2.334224543983635E-016
  0.156933333333333        -2.684505490199994E-016
  0.157333333333333        -3.082776676229822E-016
  0.157733333333333        -3.535182796709856E-016
  0.158133333333333        -4.048587994886409E-016
  0.158533333333333        -4.630646536926903E-016
  0.158933333333333        -5.289876927302756E-016
  0.159333333333333        -6.035742906314963E-016
  0.159733333333333        -6.878735506410860E-016
  0.160133333333333        -7.830463843528160E-016
  0.160533333333333        -8.903748820114740E-016
  0.160933333333333        -1.011272423968672E-015
  0.161333333333333        -1.147294056836451E-015
  0.161733333333333        -1.300147822552950E-015
  0.162133333333333        -1.471706616843664E-015
  0.162533333333333        -1.664020471199188E-015
  0.162933333333333        -1.879329787765009E-015
  0.163333333333333        -2.120079209506020E-015
  0.163733333333333        -2.388931702129271E-015
  0.164133333333333        -2.688784118314372E-015
  0.164533333333333        -3.022782338427425E-015
  0.164933333333333        -3.394337999421734E-015
  0.165333333333333        -3.807144588463800E-015
  0.165733333333333        -4.265194595350508E-015
  0.166133333333333        -4.772796453168067E-015
  0.166533333333333        -5.334591478950955E-015
  0.166933333333333        -5.955571237857343E-015
  0.167333333333333        -6.641093213278614E-015
  0.167733333333333        -7.396898171014785E-015
  0.168133333333333        -8.229123288285185E-015