 -6.666666666666667E-002    0.000000000000000E+000
 -6.626666666666667E-002    0.000000000000000E+000
 -6.586666666666667E-002    0.000000000000000E+000
 -6.546666666666666E-002    0.000000000000000E+000
 -6.506666666666666E-002    0.000000000000000E+000
 -6.466666666666666E-002    0.000000000000000E+000
 -6.426666666666667E-002    0.000000000000000E+000
 -6.386666666666667E-002    0.000000000000000E+000
 -6.346666666666667E-002    0.000000000000000E+000
 -6.306666666666666E-002    0.000000000000000E+000
 -6.266666666666666E-002    0.000000000000000E+000
 -6.226666666666666E-002    0.000000000000000E+000
 -6.186666666666667E-002    0.000000000000000E+000
 -6.146666666666666E-002    0.000000000000000E+000
 -6.106666666666666E-002    0.000000000000000E+000
 -6.066666666666667E-002    0.000000000000000E+000
 -6.026666666666666E-002    0.000000000000000E+000
 -5.986666666666667E-002    0.000000000000000E+000
 -5.946666666666667E-002    0.000000000000000E+000
 -5.906666666666666E-002    0.000000000000000E+000
 -5.866666666666667E-002    0.000000000000000E+000
 -5.826666666666666E-002    0.000000000000000E+000
 -5.786666666666666E-002    0.000000000000000E+000
 -5.746666666666667E-002    0.000000000000000E+000
 -5.706666666666667E-002    0.000000000000000E+000
 -5.666666666666666E-002    0.000000000000000E+000
 -5.626666666666667E-002    0.000000000000000E+000
 -5.586666666666666E-002    0.000000000000000E+000
 -5.546666666666666E-002    0.000000000000000E+000
 -5.506666666666667E-002    0.000000000000000E+000
 -5.466666666666667E-002    0.000000000000000E+000
 -5.426666666666666E-002    0.000000000000000E+000
 -5.386666666666667E-002    0.000000000000000E+000
 -5.346666666666666E-002    0.000000000000000E+000
 -5.306666666666666E-002    0.000000000000000E+000
 -5.266666666666667E-002    0.000000000000000E+000
 -5.226666666666666E-002    0.000000000000000E+000
 -5.186666666666667E-002    0.000000000000000E+000
 -5.146666666666667E-002    0.000000000000000E+000
 -5.106666666666666E-002    0.000000000000000E+000
 -5.066666666666667E-002    0.000000000000000E+000
 -5.026666666666667E-002    0.000000000000000E+000
 -4.986666666666666E-002    0.000000000000000E+000
 -4.946666666666667E-002    0.000000000000000E+000
 -4.906666666666666E-002    0.000000000000000E+000
 -4.866666666666666E-002    0.000000000000000E+000
 -4.826666666666667E-002    0.000000000000000E+000
 -4.786666666666667E-002    0.000000000000000E+000
 -4.746666666666666E-002    0.000000000000000E+000
 -4.706666666666667E-002    0.000000000000000E+000
 -4.666666666666666E-002    0.000000000000000E+000
 -4.626666666666666E-002    0.000000000000000E+000
 -4.586666666666667E-002    0.000000000000000E+000
 -4.546666666666667E-002    0.000000000000000E+000
 -4.506666666666666E-002    0.000000000000000E+000
 -4.466666666666666E-002    0.000000000000000E+000
 -4.426666666666666E-002    0.000000000000000E+000
 -4.386666666666666E-002    0.000000000000000E+000
 -4.346666666666667E-002    0.000000000000000E+000
 -4.306666666666667E-002    0.000000000000000E+000
 -4.266666666666667E-002    0.000000000000000E+000
 -4.226666666666666E-002    0.000000000000000E+000
 -4.186666666666666E-002    0.000000000000000E+000
 -4.146666666666667E-002    0.000000000000000E+000
 -4.106666666666667E-002    0.000000000000000E+000
 -4.066666666666666E-002    0.000000000000000E+000
 -4.026666666666667E-002    0.000000000000000E+000
 -3.986666666666666E-002    0.000000000000000E+000
 -3.946666666666666E-002    0.000000000000000E+000
 -3.906666666666667E-002    0.000000000000000E+000
 -3.866666666666667E-002    0.000000000000000E+000
 -3.826666666666666E-002    0.000000000000000E+000
 -3.786666666666666E-002    0.000000000000000E+000
 -3.746666666666666E-002    0.000000000000000E+000
 -3.706666666666666E-002    0.000000000000000E+000
 -3.666666666666667E-002    0.000000000000000E+000
 -3.626666666666667E-002    0.000000000000000E+000
 -3.586666666666666E-002    0.000000000000000E+000
 -3.546666666666666E-002    0.000000000000000E+000
 -3.506666666666666E-002    0.000000000000000E+000
 -3.466666666666667E-002    0.000000000000000E+000
 -3.426666666666667E-002    0.000000000000000E+000
 -3.386666666666666E-002    0.000000000000000E+000
 -3.346666666666667E-002    0.000000000000000E+000
 -3.306666666666666E-002    0.000000000000000E+000
 -3.266666666666666E-002    0.000000000000000E+000
 -3.226666666666667E-002    0.000000000000000E+000
 -3.186666666666666E-002    0.000000000000000E+000
 -3.146666666666666E-002   -1.404445640545844E-038
 -3.106666666666667E-002   -4.590932067003116E-038
 -3.066666666666666E-002   -9.165717812580895E-038
 -3.026666666666666E-002   -1.341957958515747E-037
 -2.986666666666667E-002   -1.524840636367639E-037
 -2.946666666666666E-002   -1.140841921357692E-037
 -2.906666666666666E-002    1.343907865328855E-038
 -2.866666666666667E-002    2.496451329512891E-037
 -2.826666666666666E-002    5.794381705617359E-037
 -2.786666666666666E-002    9.381911597007331E-037
 -2.746666666666667E-002    1.204984576110514E-036
 -2.706666666666666E-002    1.209859570153635E-036
 -2.666666666666666E-002    7.591879934629060E-037
 -2.626666666666666E-002   -3.100249313846043E-037
 -2.586666666666666E-002   -2.053558820223526E-036
 -2.546666666666667E-002   -4.320812741555780E-036
 -2.506666666666666E-002   -6.680625542944473E-036
 -2.466666666666666E-002   -8.378983138747843E-036
 -2.426666666666667E-002   -8.392023779202277E-036
 -2.386666666666666E-002   -5.590063241842425E-036
 -2.346666666666666E-002    9.478083271133329E-037
 -2.306666666666667E-002    1.149459418140385E-035
 -2.266666666666666E-002    2.517833422162935E-035
 -2.226666666666666E-002    3.955626595196124E-035
 -2.186666666666667E-002    5.043670307816039E-035
 -2.146666666666666E-002    5.216682642859184E-035
 -2.106666666666666E-002    3.854975178392891E-035
 -2.066666666666667E-002    4.483166419326089E-036
 -2.026666666666666E-002   -5.178919886839019E-035
 -1.986666666666666E-002   -1.261690688338697E-034
 -1.946666666666667E-002   -2.065751323997701E-034
 -1.906666666666666E-002   -2.720665603766357E-034
 -1.866666666666666E-002   -2.941886523340159E-034
 -1.826666666666666E-002   -2.413527756173205E-034
 -1.786666666666666E-002   -8.658276406508706E-035
 -1.746666666666667E-002    1.818822090423801E-034
 -1.706666666666666E-002    5.487674613136401E-034
 -1.666666666666666E-002    9.615890927901789E-034
 -1.626666666666667E-002    1.325996014964934E-033
 -1.586666666666666E-002    1.510871062471044E-033
 -1.546666666666666E-002    1.366751322462905E-033
 -1.506666666666667E-002    7.590650537146782E-034
 -1.466666666666666E-002   -3.858429800169614E-034
 -1.426666666666666E-002   -2.028604784156755E-033
 -1.386666666666667E-002   -3.970389759613683E-033
 -1.346666666666666E-002   -5.828028257663944E-033
 -1.306666666666666E-002   -7.048226658648003E-033
 -1.266666666666667E-002   -6.975899960609847E-033
 -1.226666666666666E-002   -4.983753317414837E-033
 -1.186666666666666E-002   -6.566890925674055E-034
 -1.146666666666666E-002    5.993455210313180E-033
 -1.106666666666666E-002    1.432698980001134E-032
 -1.066666666666666E-002    2.294998436346971E-032
 -1.026666666666666E-002    2.973069422180948E-032
 -9.866666666666662E-003    3.201967265771231E-032
 -9.466666666666665E-003    2.710731996919237E-032
 -9.066666666666660E-003    1.290470041023391E-032
 -8.666666666666663E-003   -1.123175154382301E-032
 -8.266666666666665E-003   -4.368348302765181E-032
 -7.866666666666661E-003   -7.997656254202284E-032
 -7.466666666666663E-003   -1.126621174846455E-031
 -7.066666666666666E-003   -1.319051128218719E-031
 -6.666666666666661E-003   -1.269331596310294E-031
 -6.266666666666663E-003   -8.834137446500249E-032
 -5.866666666666666E-003   -1.102973843153039E-032
 -5.466666666666661E-003    1.027021656050717E-031
 -5.066666666666664E-003    2.406122442983452E-031
 -4.666666666666666E-003    3.793834431332571E-031
 -4.266666666666662E-003    4.857542795874712E-031
 -3.866666666666657E-003    5.205450567503402E-031
 -3.466666666666660E-003    4.457489154448064E-031
 -3.066666666666662E-003    2.341723220072524E-031
 -2.666666666666664E-003   -1.197127443558210E-031
 -2.266666666666667E-003   -5.898528149318847E-031
 -1.866666666666669E-003   -1.112376040595563E-030
 -1.466666666666658E-003   -1.585934848411897E-030
 -1.066666666666660E-003   -1.881045432332726E-030
 -6.666666666666626E-004   -1.859603663057343E-030
 -2.666666666666651E-004   -1.403780243808475E-030
  1.333333333333325E-004   -4.509971685828097E-031
  5.333333333333440E-004    9.709411245419134E-031
  9.333333333333416E-004    2.716666374354872E-030
  1.333333333333339E-003    4.513173074162901E-030
  1.733333333333337E-003    5.975302224438848E-030
  2.133333333333334E-003    6.652329042150877E-030
  2.533333333333332E-003    6.105998388340674E-030
  2.933333333333343E-003    4.013296828622617E-030
  3.333333333333341E-003    2.793263278966317E-031
  3.733333333333338E-003   -4.861636243362467E-030
  4.133333333333336E-003   -1.078355184020618E-029
  4.533333333333334E-003   -1.647147672891984E-029
  4.933333333333331E-003   -2.061118490347621E-029
  5.333333333333343E-003   -2.177464068751331E-029
  5.733333333333340E-003   -1.869214768180401E-029
  6.133333333333338E-003   -1.057993364915222E-029
  6.533333333333335E-003    2.530273971557414E-030
  6.933333333333333E-003    1.953059827382745E-029
  7.333333333333344E-003    3.812365385072720E-029
  7.733333333333342E-003    5.492747988420643E-029
  8.133333333333340E-003    6.584480034842884E-029
  8.533333333333337E-003    6.670002157729615E-029
  8.933333333333335E-003    5.409116887998058E-029
  9.333333333333332E-003    2.634220172237915E-029
  9.733333333333344E-003   -1.561458836694442E-029
  1.013333333333334E-002   -6.763237028190508E-029
  1.053333333333334E-002   -1.222288068827957E-028
  1.093333333333334E-002   -1.691189297192434E-028
  1.133333333333333E-002   -1.964830238515834E-028
  1.173333333333333E-002   -1.929211608641850E-028
  1.213333333333334E-002   -1.498902164503004E-028
  1.253333333333334E-002   -6.426198084216527E-029
  1.293333333333334E-002    5.948530143115820E-029
  1.333333333333334E-002    2.079898654532516E-028
  1.373333333333333E-002    3.591564679000704E-028
  1.413333333333334E-002    4.840965508103258E-028
  1.453333333333334E-002    5.509574717974133E-028
  1.493333333333334E-002    5.303866622096618E-028
  1.533333333333334E-002    4.019802665113740E-028
  1.573333333333334E-002    1.606990047436255E-028
  1.613333333333333E-002   -1.780251399687570E-028
  1.653333333333334E-002   -5.758381274147145E-028
  1.693333333333334E-002   -9.728354594550997E-028
  1.733333333333334E-002   -1.293466780305614E-027
  1.773333333333334E-002   -1.456973706648721E-027
  1.813333333333333E-002   -1.391477355175481E-027
  1.853333333333333E-002   -1.049904242481677E-027
  1.893333333333334E-002   -4.251395981667548E-028
  1.933333333333334E-002    4.386806671609956E-028
  1.973333333333334E-002    1.441828771345044E-027
  2.013333333333334E-002    2.434081552795953E-027
  2.053333333333333E-002    3.230524844208017E-027
  2.093333333333333E-002    3.637595945415514E-027
  2.133333333333334E-002    3.486844164204592E-027
  2.173333333333334E-002    2.671864567449778E-027
  2.213333333333334E-002    1.182235370443010E-027
  2.253333333333334E-002   -8.725185834768296E-028
  2.293333333333333E-002   -3.255594289108117E-027
  2.333333333333334E-002   -5.617227364814077E-027
  2.373333333333334E-002   -7.532742650434044E-027
  2.413333333333334E-002   -8.562495021239123E-027
  2.453333333333334E-002   -8.327432190038750E-027
  2.493333333333334E-002   -6.589847409004897E-027
  2.533333333333333E-002   -3.325792509651087E-027
  2.573333333333334E-002    1.225633698030849E-027
  2.613333333333334E-002    6.549684836316623E-027
  2.653333333333334E-002    1.188970154865538E-026
  2.693333333333334E-002    1.633038678453505E-026
  2.733333333333333E-002    1.892557122162103E-026
  2.773333333333333E-002    1.885650275158343E-026
  2.813333333333334E-002    1.559858425021843E-026
  2.853333333333334E-002    9.068877470400926E-027
  2.893333333333334E-002   -2.750689461547897E-028
  2.933333333333334E-002   -1.141128745414597E-026
  2.973333333333333E-002   -2.282219280379097E-026
  3.013333333333335E-002   -3.266088142114698E-026
  3.053333333333334E-002   -3.900354496625351E-026
  3.093333333333334E-002   -4.015969457856477E-026
  3.133333333333334E-002   -3.499701903624915E-026
  3.173333333333334E-002   -2.322792615405910E-026
  3.213333333333333E-002   -5.602598771328489E-027
  3.253333333333334E-002    1.603961604450729E-026
  3.293333333333334E-002    3.889224778588331E-026
  3.333333333333334E-002    5.948445715161883E-026
  3.373333333333334E-002    7.414228163153045E-026
  3.413333333333333E-002    7.955590738634368E-026
  3.453333333333333E-002    7.337479392646027E-026
  3.493333333333334E-002    5.473601986620574E-026
  3.533333333333334E-002    2.462864729889215E-026
  3.573333333333334E-002   -1.398973787113115E-026
  3.613333333333334E-002   -5.637882886430432E-026
  3.653333333333333E-002   -9.651565263959350E-026
  3.693333333333335E-002   -1.278705193653647E-025
  3.733333333333334E-002   -1.443698286949500E-025
  3.773333333333334E-002   -1.414145215509108E-025
  3.813333333333334E-002   -1.167967364969050E-025
  3.853333333333334E-002   -7.135431776998713E-026
  3.893333333333333E-002   -9.225620434482847E-027
  3.933333333333335E-002    6.238463031395401E-026
  3.973333333333334E-002    1.339488282255607E-025
  4.013333333333334E-002    1.948099401014275E-025
  4.053333333333334E-002    2.346863411703806E-025
  4.093333333333334E-002    2.452842190458624E-025
  4.133333333333333E-002    2.217746356522724E-025
  4.173333333333334E-002    1.638889715254312E-025
  4.213333333333334E-002    7.642223755903890E-026
  4.253333333333334E-002   -3.099223414691451E-026
  4.293333333333334E-002   -1.448705335026357E-025
  4.333333333333333E-002   -2.495440432821526E-025
  4.373333333333335E-002   -3.293038958643992E-025
  4.413333333333334E-002   -3.707314686439530E-025
  4.453333333333334E-002   -3.648684818330274E-025
  4.493333333333334E-002   -3.088772301922195E-025
  4.533333333333334E-002   -2.068959301188989E-025
  4.573333333333333E-002   -6.989847496940175E-026
  4.613333333333335E-002    8.548705054688519E-026
  4.653333333333334E-002    2.390855965716686E-025
  4.693333333333334E-002    3.699374308390415E-025
  4.733333333333334E-002    4.593236297881836E-025
  4.773333333333334E-002    4.935974667525472E-025
  4.813333333333333E-002    4.663689958365191E-025
  4.853333333333334E-002    3.796692873520103E-025
  4.893333333333334E-002    2.438663648282441E-025
  4.933333333333334E-002    7.629582259897723E-026
  4.973333333333334E-002   -1.012221940153684E-025
  5.013333333333334E-002   -2.656165172322551E-025
  5.053333333333335E-002   -3.960451769277834E-025
  5.093333333333334E-002   -4.770548070510297E-025
  5.133333333333334E-002   -5.008820055665844E-025
  5.173333333333334E-002   -4.684827979358653E-025
  5.213333333333334E-002   -3.890794858308753E-025
  5.253333333333333E-002   -2.782652855498918E-025
  5.293333333333335E-002   -1.549657097662655E-025
  5.333333333333334E-002   -3.777893085553522E-026
  5.373333333333334E-002    5.864067796884763E-026
  5.413333333333334E-002    1.264576818100655E-025
  5.453333333333334E-002    1.661836939430092E-025
  5.493333333333333E-002    1.864626577366379E-025
  5.533333333333335E-002    2.020191057211611E-025
  5.573333333333334E-002    2.300212396440331E-025
  5.613333333333334E-002    2.854440430469195E-025
  5.653333333333334E-002    3.762770868519468E-025
  5.693333333333334E-002    4.995528242450935E-025
  5.733333333333333E-002    6.391379157270386E-025
  5.773333333333334E-002    7.660194377103374E-025
  5.813333333333334E-002    8.414486411381470E-025
  5.853333333333334E-002    8.228220081402619E-025
  5.893333333333335E-002    6.716554524935408E-025
  5.933333333333334E-002    3.625267975396854E-025
  5.973333333333335E-002   -1.084864196610961E-025
  6.013333333333333E-002   -7.174893064668197E-025
  6.053333333333334E-002   -1.410071611750257E-024
  6.093333333333335E-002   -2.103346142478026E-024
  6.133333333333334E-002   -2.693216292711358E-024
  6.173333333333335E-002   -3.066576862189090E-024
  6.213333333333333E-002   -3.117301604470932E-024
  6.253333333333334E-002   -2.764092881247524E-024
  6.293333333333333E-002   -1.967689085266015E-024
  6.333333333333334E-002   -7.446641348412928E-025
  6.373333333333335E-002    8.248121069889082E-025
  6.413333333333333E-002    2.597331038542649E-024
  6.453333333333335E-002    4.375856800763003E-024
  6.493333333333333E-002    5.928508611637103E-024
  6.533333333333334E-002    7.015065506535441E-024
  6.573333333333335E-002    7.418446374976585E-024
  6.613333333333334E-002    6.977370577040360E-024
  6.653333333333335E-002    5.615774566523548E-024
  6.693333333333333E-002    3.364537120269666E-024
  6.733333333333334E-002    3.716228075111429E-025
  6.773333333333335E-002   -3.102039709752848E-024
  6.813333333333334E-002   -6.701946102869686E-024
  6.853333333333335E-002   -1.001369856781875E-023
  6.893333333333333E-002   -1.260797651744297E-023
  6.933333333333334E-002   -1.409201241792004E-023
  6.973333333333333E-002   -1.416150317506096E-023
  7.013333333333334E-002   -1.264634671187292E-023
  7.053333333333335E-002   -9.543870367609031E-024
  7.093333333333333E-002   -5.034405773050556E-024
  7.133333333333335E-002    5.240156474350300E-025
  7.173333333333333E-002    6.622607995048893E-024
  7.213333333333334E-002    1.264845770365529E-023
  7.253333333333335E-002    1.794630633701757E-023
  7.293333333333334E-002    2.188884539241674E-023
  7.333333333333335E-002    2.394756567348642E-023
  7.373333333333333E-002    2.375587878440495E-023
  7.413333333333334E-002    2.115693393366545E-023
  7.453333333333335E-002    1.623026881089772E-023
  7.493333333333334E-002    9.293919000928848E-024
  7.533333333333335E-002    8.814799794192661E-025
  7.573333333333333E-002   -8.303410259976146E-024
  7.613333333333334E-002   -1.745012860485166E-023
  7.653333333333333E-002   -2.571476556247529E-023
  7.693333333333334E-002   -3.229662810290861E-023
  7.733333333333335E-002   -3.650982375716730E-023
  7.773333333333333E-002   -3.784329845413480E-023
  7.813333333333335E-002   -3.600453625926790E-023
  7.853333333333333E-002   -3.094438167184048E-023
  7.893333333333334E-002   -2.286273835612278E-023
  7.933333333333335E-002   -1.219684430174712E-023
  7.973333333333334E-002    4.048318055129745E-025
  8.013333333333335E-002    1.411954681895587E-023
  8.053333333333333E-002    2.799478341556480E-023
  8.093333333333334E-002    4.099794059233914E-023
  8.133333333333335E-002    5.206998520579417E-023
  8.173333333333334E-002    6.018303149642690E-023
  8.213333333333335E-002    6.440242128651339E-023
  8.253333333333333E-002    6.395381186693231E-023
  8.293333333333335E-002    5.829460577441091E-023
  8.333333333333333E-002    4.718728014583078E-023
  8.373333333333334E-002    3.076942494483694E-023
  8.413333333333335E-002    9.612737924634825E-024
  8.453333333333334E-002   -1.523916605768338E-023
  8.493333333333335E-002   -4.226534661077256E-023
  8.533333333333333E-002   -6.950535422310914E-023
  8.573333333333334E-002   -9.464855377215016E-023
  8.613333333333335E-002   -1.151786651414142E-022
  8.653333333333334E-002   -1.285709484700724E-022
  8.693333333333335E-002   -1.325316486812315E-022
  8.733333333333333E-002   -1.252618221230768E-022
  8.773333333333334E-002   -1.057203554164464E-022
  8.813333333333336E-002   -7.385626290331408E-023
  8.853333333333334E-002   -3.077834853939680E-023
  8.893333333333335E-002    2.116775237211965E-023
  8.933333333333333E-002    7.843905882433054E-023
  8.973333333333335E-002    1.364654140256429E-022
  9.013333333333333E-002    1.899513319811055E-022
  9.053333333333334E-002    2.332958056003405E-022
  9.093333333333335E-002    2.611011204036894E-022
  9.133333333333334E-002    2.687285849418351E-022
  9.173333333333335E-002    2.528486003495699E-022
  9.213333333333333E-002    2.119275200529483E-022
  9.253333333333334E-002    1.465943375615827E-022
  9.293333333333335E-002    5.983699292718628E-023
  9.333333333333334E-002   -4.300893636636475E-023
  9.373333333333335E-002   -1.544986985883483E-022
  9.413333333333333E-002   -2.655424956525050E-022
  9.453333333333334E-002   -3.660713195863685E-022
  9.493333333333336E-002   -4.458591854082204E-022
  9.533333333333334E-002   -4.954381214247258E-022
  9.573333333333335E-002   -5.070292522910343E-022
  9.613333333333333E-002   -4.754061031419055E-022
  9.653333333333335E-002   -3.986080075290667E-022
  9.693333333333333E-002   -2.784282671711389E-022
  9.733333333333334E-002   -1.206177790413790E-022
  9.773333333333335E-002    6.523467585240880E-023
  9.813333333333334E-002    2.661596246941031E-022
  9.853333333333335E-002    4.665885819748050E-022
  9.893333333333333E-002    6.494199835915222E-022
  9.933333333333334E-002    7.973043169924202E-022
  9.973333333333335E-002    8.940618809283479E-022
  0.100133333333333         9.261308816393332E-022
  0.100533333333333         8.839339671343667E-022
  0.100933333333333         7.630493764021803E-022
  0.101333333333333         5.650787621376367E-022
  0.101733333333333         2.981175790331822E-022
  0.102133333333333        -2.324490044393528E-023
  0.102533333333333        -3.784406838237829E-022
  0.102933333333333        -7.419635914112785E-022
  0.103333333333333        -1.084908361777600E-021
  0.103733333333333        -1.376938862874156E-021
  0.104133333333333        -1.588578959878566E-021
  0.104533333333333        -1.693679264312621E-021
  0.104933333333333        -1.671884791928018E-021
  0.105333333333333        -1.510906983087585E-021
  0.105733333333333        -1.208395562408292E-021
  0.106133333333333        -7.732139438292617E-022
  0.106533333333333        -2.259467016766547E-022
  0.106933333333333         4.014894829130111E-022
  0.107333333333333         1.067200517048178E-021
  0.107733333333333         1.721632051929035E-021
  0.108133333333333         2.310762766548303E-021
  0.108533333333333         2.780005606722800E-021
  0.108933333333333         3.078566311014550E-021
  0.109333333333333         3.163946254021332E-021
  0.109733333333333         3.006227387352549E-021
  0.110133333333333         2.591763048436599E-021
  0.110533333333333         1.925908706673945E-021
  0.110933333333333         1.034477607444750E-021
  0.111333333333333        -3.631620573658986E-023
  0.111733333333333        -1.221555529355806E-021
  0.112133333333333        -2.440959500546051E-021
  0.112533333333333        -3.603728660860905E-021
  0.112933333333333        -4.614626168241317E-021
  0.113333333333333        -5.380906012091912E-021
  0.113733333333333        -5.819602542429117E-021
  0.114133333333333        -5.864644303928477E-021
  0.114533333333333        -5.473232777826041E-021
  0.114933333333333        -4.630959754164972E-021
  0.115333333333333        -3.355204911538119E-021
  0.115733333333333        -1.696463425815297E-021
  0.116133333333333         2.626075039447504E-022
  0.116533333333333         2.410484074594259E-021
  0.116933333333333         4.612311031878449E-021
  0.117333333333333         6.717421067340549E-021
  0.117733333333333         8.568440848010035E-021
  0.118133333333333         1.001147439027370E-020
  0.118533333333333         1.090676007845597E-020
  0.118933333333333         1.113915744090502E-020
  0.119333333333333         1.062778453114322E-020
  0.119733333333333         9.334154024673417E-021
  0.120133333333333         7.268204205749741E-021
  0.120533333333333         4.491694931533076E-021
  0.120933333333333         1.118567403150923E-021
  0.121333333333333        -2.688002160363841E-021
  0.121733333333333        -6.721939864554046E-021
  0.122133333333333        -1.074389839404322E-020
  0.122533333333333        -1.449384253728281E-020
  0.122933333333333        -1.770604173418051E-020
  0.123333333333333        -2.012570820019864E-020
  0.123733333333333        -2.152629784507424E-020
  0.124133333333333        -2.172637700249690E-020
  0.124533333333333        -2.060481541151590E-020
  0.124933333333333        -1.811310506843609E-020
  0.125333333333333        -1.428366272909905E-020
  0.125733333333333        -9.233201639231435E-021
  0.126133333333333        -3.160528075542799E-021
  0.126533333333333         3.661451165774188E-021
  0.126933333333333         1.089929202692955E-020
  0.127333333333333         1.817742482341063E-020
  0.127733333333333         2.510023346359903E-020
  0.128133333333333         3.127620948616429E-020
  0.128533333333333         3.634229976596518E-020
  0.128933333333333         3.998648272865876E-020
  0.129333333333333         4.196659478757158E-020
  0.129733333333333         4.212378495335080E-020
  0.130133333333333         4.038935199871476E-020
  0.130533333333333         3.678437287341222E-020
  0.130933333333333         3.141225161636085E-020
  0.131333333333333         2.444503694821027E-020
  0.131733333333333         1.610510474441801E-020
  0.132133333333333         6.644374718462294E-021
  0.132533333333333        -3.676383633755974E-021
  0.132933333333333        -1.460546022118919E-020
  0.133333333333333        -2.591277039437046E-020
  0.133733333333333        -3.739498079949267E-020
  0.134133333333333        -4.887179837476196E-020
  0.134533333333333        -6.017291761804615E-020
  0.134933333333333        -7.111625862818128E-020
  0.135333333333333        -8.147909333171465E-020
  0.135733333333333        -9.096483224260624E-020
  0.136133333333333        -9.916899050366617E-020
  0.136533333333333        -1.055485369674504E-019
  0.136933333333333        -1.093991596541128E-019
  0.137333333333333        -1.098448290585199E-019
  0.137733333333333        -1.058438016720406E-019
  0.138133333333333        -9.621450815077989E-020
  0.138533333333333        -7.968366550042563E-020
  0.138933333333333        -5.495793159681144E-020
  0.139333333333333        -2.081916505009224E-020
  0.139733333333333         2.375789704401019E-020
  0.140133333333333         7.946805570388485E-020
  0.140533333333333         1.465215133559354E-019
  0.140933333333333         2.244776121470440E-019
  0.141333333333333         3.120714636736464E-019
  0.141733333333333         4.070387514817583E-019
  0.142133333333333         5.059441944874468E-019
  0.142533333333333         6.040191740075263E-019
  0.142933333333333         6.950131255926338E-019
  0.143333333333333         7.710636458216646E-019
  0.143733333333333         8.225873820090973E-019
  0.144133333333333         8.381944707103830E-019
  0.144533333333333         8.046258270917560E-019
  0.144933333333333         7.067117858996064E-019
  0.145333333333333         5.273472860421033E-019
  0.145733333333333         2.474765677478625E-019
  0.146133333333333        -1.539231125523628E-019
  0.146533333333333        -6.998709505350046E-019
  0.146933333333333        -1.415441478903536E-018
  0.147333333333333        -2.327872359362044E-018
  0.147733333333333        -3.466738349037809E-018
  0.148133333333333        -4.864217394144603E-018
  0.148533333333333        -6.555465911486848E-018
  0.148933333333333        -8.579129365692716E-018
  0.149333333333333        -1.097800360011386E-017
  0.149733333333333        -1.379986077666706E-017
  0.150133333333333        -1.709846019054275E-017
  0.150533333333333        -2.093474189182893E-017
  0.150933333333333        -2.537821552175966E-017
  0.151333333333333        -3.050853857332380E-017
  0.151733333333333        -3.641727497724728E-017
  0.152133333333333        -4.320983401334898E-017
  0.152533333333333        -5.100758292982512E-017
  0.152933333333333        -5.995011341812769E-017
  0.153333333333333        -7.019765698035313E-017
  0.153733333333333        -8.193366242403098E-017
  0.154133333333333        -9.536751232325558E-017
  0.154533333333333        -1.107374280769973E-016
  0.154933333333333        -1.283135271686465E-016
  0.155333333333333        -1.484010988012395E-016
  0.155733333333333        -1.713441243781451E-016
  0.156133333333333        -1.975290494466583E-016
  0.156533333333333        -2.273889328359527E-016
  0.156933333333333        -2.614078935800536E-016
  0.157333333333333        -3.001260078270640E-016
  0.157733333333333        -3.441447219090939E-016
  0.158133333333333        -3.941326624588821E-016
  0.158533333333333        -4.508321215057989E-016
  0.158933333333333        -5.150660180278815E-016
  0.159333333333333        -5.877455741879183E-016
  0.159733333333333        -6.698786003744644E-016
  0.160133333333333        -7.625783625780078E-016
  0.160533333333333        -8.670731644511858E-016
  0.160933333333333        -9.847166705228292E-016
  0.161333333333333        -1.116998547049362E-015
  0.161733333333333        -1.265556055778268E-015
  0.162133333333333        -1.432185965348910E-015
  0.162533333333333        -1.618857521484536E-015
  0.162933333333333        -1.827725364244724E-015
  0.163333333333333        -2.061142657036065E-015
  0.163733333333333        -2.321676015567859E-015
  0.164133333333333        -2.612119166258385E-015
  0.164533333333333        -2.935507875190604E-015
  0.164933333333333        -3.295134982946968E-015
  0.165333333333333        -3.694565439444231E-015
  0.165733333333333        -4.137650915251798E-015
  0.166133333333333        -4.628545048184765E-015
  0.166533333333333        -5.171718901655215E-015
  0.166933333333333        -5.771975152474079E-015
  0.167333333333333        -6.434461643378296E-015
  0.167733333333333        -7.164685782590913E-015
  0.168133333333333        -7.968526825798822E-015