-0.6666667E-01  0.0000000E+00
-0.6626666E-01  0.0000000E+00
-0.6586666E-01  0.0000000E+00
-0.6546666E-01  0.0000000E+00
-0.6506667E-01  0.0000000E+00
-0.6466667E-01  0.0000000E+00
-0.6426667E-01  0.0000000E+00
-0.6386667E-01  0.0000000E+00
-0.6346667E-01  0.0000000E+00
-0.6306667E-01  0.0000000E+00
-0.6266667E-01  0.0000000E+00
-0.6226667E-01  0.0000000E+00
-0.6186667E-01  0.0000000E+00
-0.6146667E-01  0.0000000E+00
-0.6106667E-01  0.0000000E+00
-0.6066667E-01  0.0000000E+00
-0.6026667E-01  0.2955835E-37
-0.5986667E-01  0.2099109E-36
-0.5946667E-01  0.1070835E-35
-0.5906667E-01  0.4811477E-35
-0.5866667E-01  0.2009671E-34
-0.5826667E-01  0.7830789E-34
-0.5786667E-01  0.2824657E-33
-0.5746667E-01  0.9362501E-33
-0.5706667E-01  0.2840744E-32
-0.5666667E-01  0.7887329E-32
-0.5626667E-01  0.2008230E-31
-0.5586667E-01  0.4707955E-31
-0.5546667E-01  0.1022321E-30
-0.5506667E-01  0.2074253E-30
-0.5466667E-01  0.3982626E-30
-0.5426667E-01  0.7364679E-30
-0.5386667E-01  0.1339583E-29
-0.5346667E-01  0.2441456E-29
-0.5306667E-01  0.4487570E-29
-0.5266667E-01  0.8226823E-29
-0.5226667E-01  0.1466320E-28
-0.5186667E-01  0.2457545E-28
-0.5146667E-01  0.3716611E-28
-0.5106667E-01  0.4745475E-28
-0.5066667E-01  0.4262701E-28
-0.5026667E-01 -0.8960596E-30
-0.4986667E-01 -0.1152223E-27
-0.4946667E-01 -0.3259721E-27
-0.4906667E-01 -0.6154244E-27
-0.4866667E-01 -0.8593274E-27
-0.4826667E-01 -0.7491723E-27
-0.4786666E-01  0.2557801E-27
-0.4746667E-01  0.2856256E-26
-0.4706667E-01  0.7587729E-26
-0.4666667E-01  0.1411070E-25
-0.4626667E-01  0.2009162E-25
-0.4586667E-01  0.1992822E-25
-0.4546667E-01  0.4051270E-26
-0.4506667E-01 -0.3986538E-25
-0.4466667E-01 -0.1220020E-24
-0.4426667E-01 -0.2402067E-24
-0.4386667E-01 -0.3644561E-24
-0.4346666E-01 -0.4193655E-24
-0.4306667E-01 -0.2736675E-24
-0.4266667E-01  0.2479486E-24
-0.4226667E-01  0.1310732E-23
-0.4186667E-01  0.2956027E-23
-0.4146667E-01  0.4925837E-23
-0.4106667E-01  0.6458063E-23
-0.4066667E-01  0.6137355E-23
-0.4026667E-01  0.1947734E-23
-0.3986667E-01 -0.8282575E-23
-0.3946667E-01 -0.2586742E-22
-0.3906666E-01 -0.4962615E-22
-0.3866667E-01 -0.7384437E-22
-0.3826667E-01 -0.8648130E-22
-0.3786667E-01 -0.6878636E-22
-0.3746667E-01  0.2096571E-23
-0.3706667E-01  0.1459347E-21
-0.3666667E-01  0.3667574E-21
-0.3626667E-01  0.6357147E-21
-0.3586667E-01  0.8734117E-21
-0.3546667E-01  0.9394943E-21
-0.3506667E-01  0.6407847E-21
-0.3466666E-01 -0.2293291E-21
-0.3426667E-01 -0.1810679E-20
-0.3386667E-01 -0.4055706E-20
-0.3346667E-01 -0.6586916E-20
-0.3306667E-01 -0.8575609E-20
-0.3266667E-01 -0.8711074E-20
-0.3226667E-01 -0.5346863E-20
-0.3186667E-01  0.3094574E-20
-0.3146667E-01  0.1742056E-19
-0.3106667E-01  0.3672325E-19
-0.3066667E-01  0.5738282E-19
-0.3026667E-01  0.7237573E-19
-0.2986667E-01  0.7138986E-19
-0.2946667E-01  0.4230254E-19
-0.2906667E-01 -0.2554571E-19
-0.2866667E-01 -0.1362250E-18
-0.2826667E-01 -0.2808415E-18
-0.2786667E-01 -0.4314103E-18
-0.2746667E-01 -0.5374152E-18
-0.2706667E-01 -0.5281806E-18
-0.2666667E-01 -0.3241782E-18
-0.2626667E-01  0.1407378E-18
-0.2586667E-01  0.8867584E-18
-0.2546667E-01  0.1849856E-17
-0.2506667E-01  0.2847474E-17
-0.2466667E-01  0.3562643E-17
-0.2426667E-01  0.3563792E-17
-0.2386667E-01  0.2376198E-17
-0.2346667E-01 -0.3866298E-18
-0.2306667E-01 -0.4838375E-17
-0.2266667E-01 -0.1061074E-16
-0.2226667E-01 -0.1667364E-16
-0.2186667E-01 -0.2126122E-16
-0.2146667E-01 -0.2199102E-16
-0.2106667E-01 -0.1625182E-16
-0.2066667E-01 -0.1893804E-17
-0.2026667E-01  0.2182276E-16
-0.1986667E-01  0.5317030E-16
-0.1946667E-01  0.8705668E-16
-0.1906667E-01  0.1146560E-15
-0.1866667E-01  0.1239751E-15
-0.1826667E-01  0.1017001E-15
-0.1786667E-01  0.3646076E-16
-0.1746667E-01 -0.7669979E-16
-0.1706667E-01 -0.2313431E-15
-0.1666667E-01 -0.4053468E-15
-0.1626667E-01 -0.5589409E-15
-0.1586667E-01 -0.6368580E-15
-0.1546667E-01 -0.5760972E-15
-0.1506667E-01 -0.3199345E-15
-0.1466667E-01  0.1626772E-15
-0.1426667E-01  0.8551431E-15
-0.1386667E-01  0.1673652E-14
-0.1346667E-01  0.2456689E-14
-0.1306667E-01  0.2971027E-14
-0.1266667E-01  0.2940531E-14
-0.1226667E-01  0.2100783E-14
-0.1186667E-01  0.2768064E-15
-0.1146667E-01 -0.2526409E-14
-0.1106667E-01 -0.6039216E-14
-0.1066667E-01 -0.9674038E-14
-0.1026667E-01 -0.1253229E-13
-0.9866667E-02 -0.1349715E-13
-0.9466667E-02 -0.1142646E-13
-0.9066666E-02 -0.5439676E-14
-0.8666666E-02  0.4734488E-14
-0.8266667E-02  0.1841377E-13
-0.7866667E-02  0.3371228E-13
-0.7466667E-02  0.4749012E-13
-0.7066667E-02  0.5560156E-13
-0.6666667E-02  0.5350576E-13
-0.6266667E-02  0.3723828E-13
-0.5866667E-02  0.4649338E-14
-0.5466667E-02 -0.4329173E-13
-0.5066667E-02 -0.1014245E-12
-0.4666667E-02 -0.1599203E-12
-0.4266667E-02 -0.2047585E-12
-0.3866667E-02 -0.2194238E-12
-0.3466667E-02 -0.1878952E-12
-0.3066667E-02 -0.9870987E-13
-0.2666667E-02  0.5046227E-13
-0.2266667E-02  0.2486390E-12
-0.1866667E-02  0.4688966E-12
-0.1466667E-02  0.6685144E-12
-0.1066667E-02  0.7929115E-12
-0.6666667E-03  0.7838732E-12
-0.2666667E-03  0.5917312E-12
 0.1333333E-03  0.1901073E-12
 0.5333333E-03 -0.4092782E-12
 0.9333334E-03 -0.1145149E-11
 0.1333333E-02 -0.1902424E-11
 0.1733333E-02 -0.2518751E-11
 0.2133333E-02 -0.2804136E-11
 0.2533333E-02 -0.2573842E-11
 0.2933333E-02 -0.1691712E-11
 0.3333333E-02 -0.1177418E-12
 0.3733333E-02  0.2049313E-11
 0.4133333E-02  0.4545561E-11
 0.4533333E-02  0.6943174E-11
 0.4933333E-02  0.8688172E-11
 0.5333333E-02  0.9178598E-11
 0.5733334E-02  0.7879242E-11
 0.6133333E-02  0.4459721E-11
 0.6533334E-02 -0.1066589E-11
 0.6933333E-02 -0.8232688E-11
 0.7333333E-02 -0.1607016E-10
 0.7733333E-02 -0.2315343E-10
 0.8133333E-02 -0.2775537E-10
 0.8533333E-02 -0.2811586E-10
 0.8933334E-02 -0.2280088E-10
 0.9333333E-02 -0.1110393E-10
 0.9733333E-02  0.6581998E-11
 0.1013333E-01  0.2850891E-10
 0.1053333E-01  0.5152278E-10
 0.1093333E-01  0.7128823E-10
 0.1133333E-01  0.8282291E-10
 0.1173333E-01  0.8132146E-10
 0.1213333E-01  0.6318272E-10
 0.1253333E-01  0.2708809E-10
 0.1293333E-01 -0.2507475E-10
 0.1333333E-01 -0.8767343E-10
 0.1373333E-01 -0.1513942E-09
 0.1413333E-01 -0.2040598E-09
 0.1453333E-01 -0.2322434E-09
 0.1493333E-01 -0.2235722E-09
 0.1533333E-01 -0.1694454E-09
 0.1573333E-01 -0.6773872E-10
 0.1613333E-01  0.7504272E-10
 0.1653333E-01  0.2427316E-09
 0.1693333E-01  0.4100767E-09
 0.1733333E-01  0.5452313E-09
 0.1773333E-01  0.6141537E-09
 0.1813333E-01  0.5865450E-09
 0.1853333E-01  0.4425624E-09
 0.1893333E-01  0.1792069E-09
 0.1933333E-01 -0.1849168E-09
 0.1973333E-01 -0.6077707E-09
 0.2013333E-01 -0.1026032E-08
 0.2053333E-01 -0.1361754E-08
 0.2093333E-01 -0.1533345E-08
 0.2133333E-01 -0.1469798E-08
 0.2173333E-01 -0.1126261E-08
 0.2213333E-01 -0.4983419E-09
 0.2253333E-01  0.3677927E-09
 0.2293333E-01  0.1372323E-08
 0.2333333E-01  0.2367814E-08
 0.2373333E-01  0.3175255E-08
 0.2413333E-01  0.3609322E-08
 0.2453333E-01  0.3510235E-08
 0.2493333E-01  0.2777794E-08
 0.2533333E-01  0.1401906E-08
 0.2573333E-01 -0.5166433E-09
 0.2613333E-01 -0.2760874E-08
 0.2653333E-01 -0.5011833E-08
 0.2693333E-01 -0.6883698E-08
 0.2733333E-01 -0.7977634E-08
 0.2773333E-01 -0.7948515E-08
 0.2813333E-01 -0.6575210E-08
 0.2853333E-01 -0.3822759E-08
 0.2893333E-01  0.1159664E-09
 0.2933333E-01  0.4810180E-08
 0.2973333E-01  0.9620178E-08
 0.3013333E-01  0.1376744E-07
 0.3053333E-01  0.1644104E-07
 0.3093333E-01  0.1692837E-07
 0.3133333E-01  0.1475216E-07
 0.3173333E-01  0.9791160E-08
 0.3213333E-01  0.2361610E-08
 0.3253333E-01 -0.6761161E-08
 0.3293333E-01 -0.1639415E-07
 0.3333334E-01 -0.2507430E-07
 0.3373333E-01 -0.3125295E-07
 0.3413333E-01 -0.3353492E-07
 0.3453333E-01 -0.3092939E-07
 0.3493333E-01 -0.2307263E-07
 0.3533333E-01 -0.1038156E-07
 0.3573333E-01  0.5897116E-08
 0.3613333E-01  0.2376523E-07
 0.3653333E-01  0.4068395E-07
 0.3693333E-01  0.5390082E-07
 0.3733333E-01  0.6085568E-07
 0.3773334E-01  0.5960990E-07
 0.3813333E-01  0.4923282E-07
 0.3853333E-01  0.3007763E-07
 0.3893333E-01  0.3888745E-08
 0.3933333E-01 -0.2629685E-07
 0.3973333E-01 -0.5646300E-07
 0.4013333E-01 -0.8211752E-07
 0.4053333E-01 -0.9892644E-07
 0.4093333E-01 -0.1033937E-06
 0.4133333E-01 -0.9348376E-07
 0.4173333E-01 -0.6908343E-07
 0.4213334E-01 -0.3221393E-07
 0.4253333E-01  0.1306407E-07
 0.4293333E-01  0.6106673E-07
 0.4333333E-01  0.1051893E-06
 0.4373333E-01  0.1388102E-06
 0.4413333E-01  0.1562730E-06
 0.4453333E-01  0.1538016E-06
 0.4493333E-01  0.1301999E-06
 0.4533333E-01  0.8721221E-07
 0.4573333E-01  0.2946428E-07
 0.4613333E-01 -0.3603474E-07
 0.4653334E-01 -0.1007806E-06
 0.4693333E-01 -0.1559381E-06
 0.4733333E-01 -0.1936170E-06
 0.4773333E-01 -0.2080645E-06
 0.4813333E-01 -0.1965873E-06
 0.4853333E-01 -0.1600414E-06
 0.4893333E-01 -0.1027971E-06
 0.4933333E-01 -0.3216169E-07
 0.4973333E-01  0.4266706E-07
 0.5013333E-01  0.1119641E-06
 0.5053333E-01  0.1669440E-06
 0.5093333E-01  0.2010926E-06
 0.5133333E-01  0.2111373E-06
 0.5173333E-01  0.1974809E-06
 0.5213333E-01  0.1640107E-06
 0.5253333E-01  0.1172994E-06
 0.5293333E-01  0.6532439E-07
 0.5333333E-01  0.1592539E-07
 0.5373333E-01 -0.2472031E-07
 0.5413333E-01 -0.5330959E-07
 0.5453333E-01 -0.7005772E-07
 0.5493333E-01 -0.7860782E-07
 0.5533333E-01 -0.8516616E-07
 0.5573333E-01 -0.9696913E-07
 0.5613333E-01 -0.1203288E-06
 0.5653333E-01 -0.1586131E-06
 0.5693333E-01 -0.2105713E-06
 0.5733333E-01 -0.2694036E-06
 0.5773333E-01 -0.3228812E-06
 0.5813333E-01 -0.3546717E-06
 0.5853333E-01 -0.3468176E-06
 0.5893333E-01 -0.2830979E-06
 0.5933333E-01 -0.1527971E-06
 0.5973333E-01  0.4573835E-07
 0.6013333E-01  0.3024369E-06
 0.6053333E-01  0.5943645E-06
 0.6093333E-01  0.8865841E-06
 0.6133333E-01  0.1135219E-05
 0.6173333E-01  0.1292593E-05
 0.6213333E-01  0.1313975E-05
 0.6253333E-01  0.1165097E-05
 0.6293333E-01  0.8294076E-06
 0.6333333E-01  0.3138931E-06
 0.6373333E-01 -0.3476555E-06
 0.6413333E-01 -0.1094791E-05
 0.6453333E-01 -0.1844462E-05
 0.6493333E-01 -0.2498929E-05
 0.6533334E-01 -0.2956936E-05
 0.6573334E-01 -0.3126980E-05
 0.6613334E-01 -0.2941077E-05
 0.6653333E-01 -0.2367163E-05
 0.6693333E-01 -0.1418252E-05
 0.6733333E-01 -0.1567073E-06
 0.6773333E-01  0.1307487E-05
 0.6813333E-01  0.2824905E-05
 0.6853333E-01  0.4220873E-05
 0.6893333E-01  0.5314426E-05
 0.6933333E-01  0.5940003E-05
 0.6973334E-01  0.5969333E-05
 0.7013334E-01  0.5330710E-05
 0.7053334E-01  0.4023001E-05
 0.7093333E-01  0.2122214E-05
 0.7133333E-01 -0.2207394E-06
 0.7173333E-01 -0.2791400E-05
 0.7213333E-01 -0.5331414E-05
 0.7253333E-01 -0.7564579E-05
 0.7293333E-01 -0.9226469E-05
 0.7333333E-01 -0.1009431E-04
 0.7373333E-01 -0.1001356E-04
 0.7413334E-01 -0.8918109E-05
 0.7453334E-01 -0.6841482E-05
 0.7493334E-01 -0.3917732E-05
 0.7533333E-01 -0.3717769E-06
 0.7573333E-01  0.3499787E-05
 0.7613333E-01  0.7355269E-05
 0.7653333E-01  0.1083895E-04
 0.7693333E-01  0.1361333E-04
 0.7733333E-01  0.1538930E-04
 0.7773333E-01  0.1595145E-04
 0.7813333E-01  0.1517649E-04
 0.7853334E-01  0.1304369E-04
 0.7893334E-01  0.9637327E-05
 0.7933334E-01  0.5141682E-05
 0.7973333E-01 -0.1699215E-06
 0.8013333E-01 -0.5950713E-05
 0.8053333E-01 -0.1179923E-04
 0.8093333E-01 -0.1728025E-04
 0.8133333E-01 -0.2194741E-04
 0.8173333E-01 -0.2536746E-04
 0.8213333E-01 -0.2714644E-04
 0.8253333E-01 -0.2695793E-04
 0.8293334E-01 -0.2457317E-04
 0.8333334E-01 -0.1989195E-04
 0.8373334E-01 -0.1297219E-04
 0.8413333E-01 -0.4054755E-05
 0.8453333E-01  0.6420556E-05
 0.8493333E-01  0.1781272E-04
 0.8533333E-01  0.2929543E-04
 0.8573333E-01  0.3989470E-04
 0.8613333E-01  0.4854981E-04
 0.8653333E-01  0.5419640E-04
 0.8693333E-01  0.5586747E-04
 0.8733334E-01  0.5280451E-04
 0.8773334E-01  0.4456849E-04
 0.8813334E-01  0.3113772E-04
 0.8853333E-01  0.1297947E-04
 0.8893333E-01 -0.8917583E-05
 0.8933333E-01 -0.3305998E-04
 0.8973333E-01 -0.5752120E-04
 0.9013333E-01 -0.8006889E-04
 0.9053333E-01 -0.9834187E-04
 0.9093333E-01 -0.1100646E-03
 0.9133333E-01 -0.1132816E-03
 0.9173334E-01 -0.1065891E-03
 0.9213334E-01 -0.8934043E-04
 0.9253334E-01 -0.6180080E-04
 0.9293333E-01 -0.2522969E-04
 0.9333333E-01  0.1812372E-04
 0.9373333E-01  0.6512113E-04
 0.9413333E-01  0.1119308E-03
 0.9453333E-01  0.1543083E-03
 0.9493333E-01  0.1879430E-03
 0.9533333E-01  0.2088439E-03
 0.9573333E-01  0.2137319E-03
 0.9613334E-01  0.2004040E-03
 0.9653334E-01  0.1680336E-03
 0.9693334E-01  0.1173766E-03
 0.9733333E-01  0.5085693E-04
 0.9773333E-01 -0.2748378E-04
 0.9813333E-01 -0.1121789E-03
 0.9853333E-01 -0.1966664E-03
 0.9893333E-01 -0.2737379E-03
 0.9933333E-01 -0.3360802E-03
 0.9973333E-01 -0.3768732E-03
 0.1001333E+00 -0.3904000E-03
 0.1005333E+00 -0.3726227E-03
 0.1009333E+00 -0.3216764E-03
 0.1013333E+00 -0.2382349E-03
 0.1017333E+00 -0.1257090E-03
 0.1021333E+00  0.9752689E-05
 0.1025333E+00  0.1594815E-03
 0.1029333E+00  0.3127264E-03
 0.1033333E+00  0.4573028E-03
 0.1037333E+00  0.5804225E-03
 0.1041333E+00  0.6696584E-03
 0.1045333E+00  0.7139854E-03
 0.1049333E+00  0.7048202E-03
 0.1053333E+00  0.6369798E-03
 0.1057333E+00  0.5094705E-03
 0.1061333E+00  0.3260265E-03
 0.1065333E+00  0.9532368E-04
 0.1069333E+00 -0.1691838E-03
 0.1073333E+00 -0.4498346E-03
 0.1077333E+00 -0.7257370E-03
 0.1081333E+00 -0.9741153E-03
 0.1085333E+00 -0.1171954E-02
 0.1089333E+00 -0.1297839E-02
 0.1093333E+00 -0.1333849E-02
 0.1097333E+00 -0.1267372E-02
 0.1101333E+00 -0.1092652E-02
 0.1105333E+00 -0.8119482E-03
 0.1109333E+00 -0.4361434E-03
 0.1113333E+00  0.1527826E-04
 0.1117333E+00  0.5149475E-03
 0.1121333E+00  0.1029018E-02
 0.1125333E+00  0.1519211E-02
 0.1129333E+00  0.1945376E-02
 0.1133333E+00  0.2268414E-02
 0.1137333E+00  0.2453352E-02
 0.1141333E+00  0.2472338E-02
 0.1145333E+00  0.2307330E-02
 0.1149333E+00  0.1952256E-02
 0.1153333E+00  0.1414443E-02
 0.1157333E+00  0.7151774E-03
 0.1161333E+00 -0.1106966E-03
 0.1165333E+00 -0.1016167E-02
 0.1169333E+00 -0.1944386E-02
 0.1173333E+00 -0.2831839E-02
 0.1177333E+00 -0.3612183E-02
 0.1181333E+00 -0.4220538E-02
 0.1185333E+00 -0.4597981E-02
 0.1189333E+00 -0.4695965E-02
 0.1193333E+00 -0.4480385E-02
 0.1197333E+00 -0.3935007E-02
 0.1201333E+00 -0.3064015E-02
 0.1205333E+00 -0.1893444E-02
 0.1209333E+00 -0.4713315E-03
 0.1213333E+00  0.1133520E-02
 0.1217333E+00  0.2834216E-02
 0.1221333E+00  0.4529831E-02
 0.1225333E+00  0.6110715E-02
 0.1229333E+00  0.7464820E-02
 0.1233333E+00  0.8484716E-02
 0.1237333E+00  0.9074892E-02
 0.1241333E+00  0.9158872E-02
 0.1245333E+00  0.8685618E-02
 0.1249333E+00  0.7634723E-02
 0.1253333E+00  0.6019914E-02
 0.1257333E+00  0.3890458E-02
 0.1261333E+00  0.1330232E-02
 0.1265333E+00 -0.1545658E-02
 0.1269333E+00 -0.4596606E-02
 0.1273333E+00 -0.7664274E-02
 0.1277333E+00 -0.1058191E-01
 0.1281333E+00 -0.1318451E-01
 0.1285333E+00 -0.1531911E-01
 0.1289333E+00 -0.1685429E-01
 0.1293333E+00 -0.1768807E-01
 0.1297333E+00 -0.1775359E-01
 0.1301333E+00 -0.1702199E-01
 0.1305333E+00 -0.1550223E-01
 0.1309333E+00 -0.1323792E-01
 0.1313333E+00 -0.1030159E-01
 0.1317333E+00 -0.6786928E-02
 0.1321333E+00 -0.2800055E-02
 0.1325333E+00  0.1549214E-02
 0.1329333E+00  0.6154892E-02
 0.1333333E+00  0.1092011E-01
 0.1337333E+00  0.1575928E-01
 0.1341333E+00  0.2059647E-01
 0.1345333E+00  0.2535998E-01
 0.1349333E+00  0.2997307E-01
 0.1353333E+00  0.3434186E-01
 0.1357333E+00  0.3834132E-01
 0.1361333E+00  0.4180088E-01
 0.1365333E+00  0.4449157E-01
 0.1369333E+00  0.4611640E-01
 0.1373333E+00  0.4630597E-01
 0.1377333E+00  0.4462104E-01
 0.1381333E+00  0.4056337E-01
 0.1385333E+00  0.3359610E-01
 0.1389333E+00  0.2317388E-01
 0.1393333E+00  0.8783112E-02
 0.1397333E+00 -0.1000847E-01
 0.1401333E+00 -0.3349375E-01
 0.1405333E+00 -0.6176127E-01
 0.1409333E+00 -0.9462514E-01
 0.1413333E+00 -0.1315519E+00
 0.1417333E+00 -0.1715867E+00
 0.1421333E+00 -0.2132812E+00
 0.1425333E+00 -0.2546246E+00
 0.1429333E+00 -0.2929820E+00
 0.1433333E+00 -0.3250386E+00
 0.1437333E+00 -0.3467550E+00
 0.1441333E+00 -0.3533298E+00
 0.1445333E+00 -0.3391746E+00
 0.1449333E+00 -0.2978953E+00
 0.1453333E+00 -0.2222823E+00
 0.1457333E+00 -0.1043036E+00
 0.1461333E+00  0.6490186E-01
 0.1465333E+00  0.2950367E+00
 0.1469333E+00  0.5966702E+00
 0.1473333E+00  0.9812834E+00
 0.1477333E+00  0.1461343E+01
 0.1481333E+00  0.2050414E+01
 0.1485333E+00  0.2763315E+01
 0.1489333E+00  0.3616338E+01
 0.1493333E+00  0.4627523E+01
 0.1497333E+00  0.5817007E+01
 0.1501333E+00  0.7207451E+01
 0.1505333E+00  0.8824543E+01
 0.1509333E+00  0.1069758E+02
 0.1513333E+00  0.1286015E+02
 0.1517333E+00  0.1535083E+02
 0.1521333E+00  0.1821406E+02
 0.1525333E+00  0.2150101E+02
 0.1529333E+00  0.2527052E+02
 0.1533333E+00  0.2959012E+02
 0.1537333E+00  0.3453716E+02
 0.1541333E+00  0.4019991E+02
 0.1545333E+00  0.4667876E+02
 0.1549333E+00  0.5408760E+02
 0.1553333E+00  0.6255510E+02
 0.1557333E+00  0.7222624E+02
 0.1561333E+00  0.8326393E+02
 0.1565333E+00  0.9585070E+02
 0.1569333E+00  0.1101906E+03
 0.1573333E+00  0.1265113E+03
 0.1577333E+00  0.1450663E+03
 0.1581333E+00  0.1661375E+03
 0.1585333E+00  0.1900377E+03
 0.1589333E+00  0.2171139E+03
 0.1593333E+00  0.2477502E+03
 0.1597333E+00  0.2823714E+03
 0.1601333E+00  0.3214468E+03
 0.1605333E+00  0.3654942E+03
 0.1609333E+00  0.4150842E+03
 0.1613333E+00  0.4708446E+03
 0.1617333E+00  0.5334656E+03
 0.1621333E+00  0.6037048E+03
 0.1625333E+00  0.6823920E+03
 0.1629333E+00  0.7704354E+03
 0.1633333E+00  0.8688271E+03
 0.1637333E+00  0.9786489E+03
 0.1641333E+00  0.1101078E+04
 0.1645333E+00  0.1237396E+04
 0.1649333E+00  0.1388988E+04
 0.1653333E+00  0.1557359E+04
 0.1657333E+00  0.1744131E+04
 0.1661333E+00  0.1951056E+04
 0.1665333E+00  0.2180018E+04
 0.1669333E+00  0.2433042E+04
 0.1673333E+00  0.2712298E+04
 0.1677333E+00  0.3020107E+04
 0.1681333E+00  0.3358948E+04
 0.1685333E+00  0.3731460E+04
 0.1689333E+00  0.4140451E+04
 0.1693333E+00  0.4588898E+04
 0.1697333E+00  0.5079952E+04
 0.1701333E+00  0.5616942E+04
 0.1705333E+00  0.6203374E+04
 0.1709333E+00  0.6842934E+04
 0.1713333E+00  0.7539486E+04
 0.1717333E+00  0.8297075E+04
 0.1721333E+00  0.9119915E+04
 0.1725333E+00  0.1001239E+05
 0.1729333E+00  0.1097906E+05
 0.1733333E+00  0.1202461E+05
 0.1737333E+00  0.1315391E+05
 0.1741333E+00  0.1437192E+05
 0.1745333E+00  0.1568373E+05
 0.1749333E+00  0.1709455E+05
 0.1753333E+00  0.1860963E+05
 0.1757333E+00  0.2023430E+05
 0.1761333E+00  0.2197390E+05
 0.1765333E+00  0.2383377E+05
 0.1769333E+00  0.2581923E+05
 0.1773333E+00  0.2793552E+05
 0.1777333E+00  0.3018775E+05
 0.1781333E+00  0.3258091E+05
 0.1785333E+00  0.3511978E+05
 0.1789333E+00  0.3780889E+05
 0.1793333E+00  0.4065248E+05
 0.1797333E+00  0.4365446E+05
 0.1801333E+00  0.4681831E+05
 0.1805333E+00  0.5014708E+05
 0.1809333E+00  0.5364327E+05
 0.1813333E+00  0.5730880E+05
 0.1817333E+00  0.6114498E+05
 0.1821333E+00  0.6515236E+05
 0.1825333E+00  0.6933075E+05
 0.1829333E+00  0.7367909E+05
 0.1833333E+00  0.7819544E+05
 0.1837333E+00  0.8287685E+05
 0.1841333E+00  0.8771937E+05
 0.1845333E+00  0.9271793E+05
 0.1849333E+00  0.9786632E+05
 0.1853333E+00  0.1031571E+06
 0.1857333E+00  0.1085816E+06
 0.1861333E+00  0.1141297E+06
 0.1865333E+00  0.1197902E+06
 0.1869333E+00  0.1255501E+06
 0.1873333E+00  0.1313955E+06
 0.1877333E+00  0.1373106E+06
 0.1881333E+00  0.1432783E+06
 0.1885333E+00  0.1492801E+06
 0.1889333E+00  0.1552961E+06
 0.1893333E+00  0.1613047E+06
 0.1897333E+00  0.1672832E+06
 0.1901333E+00  0.1732073E+06
 0.1905333E+00  0.1790515E+06
 0.1909333E+00  0.1847891E+06
 0.1913333E+00  0.1903921E+06
 0.1917333E+00  0.1958313E+06
 0.1921333E+00  0.2010769E+06
 0.1925333E+00  0.2060979E+06
 0.1929333E+00  0.2108627E+06
 0.1933333E+00  0.2153390E+06
 0.1937333E+00  0.2194942E+06
 0.1941333E+00  0.2232953E+06
 0.1945333E+00  0.2267091E+06
 0.1949333E+00  0.2297028E+06
 0.1953333E+00  0.2322437E+06
 0.1957333E+00  0.2342994E+06
 0.1961333E+00  0.2358384E+06
 0.1965333E+00  0.2368301E+06
 0.1969333E+00  0.2372450E+06
 0.1973333E+00  0.2370550E+06
 0.1977333E+00  0.2362333E+06
 0.1981333E+00  0.2347552E+06
 0.1985333E+00  0.2325979E+06
 0.1989333E+00  0.2297409E+06
 0.1993333E+00  0.2261661E+06
 0.1997333E+00  0.2218579E+06
 0.2001333E+00  0.2168039E+06
 0.2005333E+00  0.2109943E+06
 0.2009333E+00  0.2044229E+06
 0.2013333E+00  0.1970866E+06
 0.2017333E+00  0.1889858E+06
 0.2021333E+00  0.1801246E+06
 0.2025333E+00  0.1705108E+06
 0.2029333E+00  0.1601558E+06
 0.2033333E+00  0.1490750E+06
 0.2037333E+00  0.1372877E+06
 0.2041333E+00  0.1248168E+06
 0.2045333E+00  0.1116894E+06
 0.2049333E+00  0.9793595E+05
 0.2053333E+00  0.8359096E+05
 0.2057333E+00  0.6869240E+05
 0.2061333E+00  0.5328171E+05
 0.2065333E+00  0.3740366E+05
 0.2069333E+00  0.2110614E+05
 0.2073333E+00  0.4439966E+04
 0.2077333E+00 -0.1254137E+05
 0.2081333E+00 -0.2978192E+05
 0.2085333E+00 -0.4722361E+05
 0.2089333E+00 -0.6480648E+05
 0.2093333E+00 -0.8246903E+05
 0.2097333E+00 -0.1001485E+06
 0.2101333E+00 -0.1177813E+06
 0.2105333E+00 -0.1353033E+06
 0.2109333E+00 -0.1526502E+06
 0.2113333E+00 -0.1697577E+06
 0.2117333E+00 -0.1865624E+06
 0.2121333E+00 -0.2030015E+06
 0.2125333E+00 -0.2190136E+06
 0.2129333E+00 -0.2345390E+06
 0.2133333E+00 -0.2495198E+06
 0.2137333E+00 -0.2639008E+06
 0.2141333E+00 -0.2776288E+06
 0.2145333E+00 -0.2906542E+06
 0.2149333E+00 -0.3029301E+06
 0.2153333E+00 -0.3144134E+06
 0.2157333E+00 -0.3250647E+06
 0.2161333E+00 -0.3348483E+06
 0.2165333E+00 -0.3437329E+06
 0.2169333E+00 -0.3516914E+06
 0.2173333E+00 -0.3587010E+06
 0.2177333E+00 -0.3647434E+06
 0.2181333E+00 -0.3698052E+06
 0.2185333E+00 -0.3738773E+06
 0.2189333E+00 -0.3769553E+06
 0.2193333E+00 -0.3790394E+06
 0.2197333E+00 -0.3801346E+06
 0.2201333E+00 -0.3802499E+06
 0.2205333E+00 -0.3793991E+06
 0.2209333E+00 -0.3776000E+06
 0.2213333E+00 -0.3748745E+06
 0.2217333E+00 -0.3712483E+06
 0.2221333E+00 -0.3667508E+06
 0.2225333E+00 -0.3614149E+06
 0.2229333E+00 -0.3552766E+06
 0.2233333E+00 -0.3483746E+06
 0.2237333E+00 -0.3407506E+06
 0.2241333E+00 -0.3324482E+06
 0.2245333E+00 -0.3235135E+06
 0.2249333E+00 -0.3139940E+06
 0.2253333E+00 -0.3039387E+06
 0.2257333E+00 -0.2933976E+06
 0.2261333E+00 -0.2824218E+06
 0.2265333E+00 -0.2710626E+06
 0.2269333E+00 -0.2593716E+06
 0.2273333E+00 -0.2474003E+06
 0.2277333E+00 -0.2351999E+06
 0.2281333E+00 -0.2228208E+06
 0.2285333E+00 -0.2103126E+06
 0.2289333E+00 -0.1977238E+06
 0.2293333E+00 -0.1851012E+06
 0.2297333E+00 -0.1724904E+06
 0.2301333E+00 -0.1599351E+06
 0.2305333E+00 -0.1474769E+06
 0.2309333E+00 -0.1351555E+06
 0.2313333E+00 -0.1230083E+06
 0.2317333E+00 -0.1110702E+06
 0.2321333E+00 -0.9937399E+05
 0.2325333E+00 -0.8794962E+05
 0.2329333E+00 -0.7682465E+05
 0.2333333E+00 -0.6602397E+05
 0.2337333E+00 -0.5556989E+05
 0.2341333E+00 -0.4548209E+05
 0.2345333E+00 -0.3577765E+05
 0.2349333E+00 -0.2647110E+05
 0.2353333E+00 -0.1757443E+05
 0.2357333E+00 -0.9097201E+04
 0.2361333E+00 -0.1046592E+04
 0.2365333E+00  0.6572509E+04
 0.2369333E+00  0.1375740E+05
 0.2373333E+00  0.2050747E+05
 0.2377333E+00  0.2682407E+05
 0.2381333E+00  0.3271042E+05
 0.2385333E+00  0.3817143E+05
 0.2389333E+00  0.4321364E+05
 0.2393333E+00  0.4784502E+05
 0.2397333E+00  0.5207489E+05
 0.2401333E+00  0.5591377E+05
 0.2405333E+00  0.5937322E+05
 0.2409333E+00  0.6246575E+05
 0.2413333E+00  0.6520467E+05
 0.2417333E+00  0.6760398E+05
 0.2421333E+00  0.6967825E+05
 0.2425333E+00  0.7144248E+05
 0.2429333E+00  0.7291202E+05
 0.2433333E+00  0.7410245E+05
 0.2437333E+00  0.7502948E+05
 0.2441333E+00  0.7570888E+05
 0.2445333E+00  0.7615630E+05
 0.2449333E+00  0.7638734E+05
 0.2453333E+00  0.7641733E+05
 0.2457333E+00  0.7626132E+05
 0.2461333E+00  0.7593404E+05
 0.2465333E+00  0.7544980E+05
 0.2469333E+00  0.7482249E+05
 0.2473333E+00  0.7406549E+05
 0.2477333E+00  0.7319168E+05
 0.2481333E+00  0.7221340E+05
 0.2485333E+00  0.7114241E+05
 0.2489333E+00  0.6998993E+05
 0.2493333E+00  0.6876655E+05
 0.2497333E+00  0.6748232E+05
 0.2501333E+00  0.6614666E+05
 0.2505333E+00  0.6476839E+05
 0.2509333E+00  0.6335577E+05
 0.2513333E+00  0.6191647E+05
 0.2517333E+00  0.6045758E+05
 0.2521333E+00  0.5898562E+05
 0.2525333E+00  0.5750661E+05
 0.2529333E+00  0.5602600E+05
 0.2533333E+00  0.5454878E+05
 0.2537333E+00  0.5307945E+05
 0.2541333E+00  0.5162204E+05
 0.2545333E+00  0.5018020E+05
 0.2549333E+00  0.4875716E+05
 0.2553333E+00  0.4735577E+05
 0.2557333E+00  0.4597855E+05
 0.2561333E+00  0.4462772E+05
 0.2565333E+00  0.4330517E+05
 0.2569333E+00  0.4201255E+05
 0.2573333E+00  0.4075127E+05
 0.2577333E+00  0.3952248E+05
 0.2581333E+00  0.3832716E+05
 0.2585333E+00  0.3716611E+05
 0.2589333E+00  0.3603997E+05
 0.2593333E+00  0.3494922E+05
 0.2597333E+00  0.3389425E+05
 0.2601333E+00  0.3287532E+05
 0.2605333E+00  0.3189263E+05
 0.2609333E+00  0.3094630E+05
 0.2613333E+00  0.3003640E+05
 0.2617333E+00  0.2916300E+05
 0.2621333E+00  0.2832611E+05
 0.2625333E+00  0.2752577E+05
 0.2629333E+00  0.2676206E+05
 0.2633333E+00  0.2603506E+05
 0.2637333E+00  0.2534493E+05
 0.2641333E+00  0.2469188E+05
 0.2645333E+00  0.2407621E+05
 0.2649333E+00  0.2349829E+05
 0.2653333E+00  0.2295862E+05
 0.2657333E+00  0.2245778E+05
 0.2661333E+00  0.2199650E+05
 0.2665333E+00  0.2157562E+05
 0.2669333E+00  0.2119614E+05
 0.2673333E+00  0.2085919E+05
 0.2677333E+00  0.2056608E+05
 0.2681333E+00  0.2031831E+05
 0.2685333E+00  0.2011755E+05
 0.2689333E+00  0.1996571E+05
 0.2693333E+00  0.1986490E+05
 0.2697333E+00  0.1981748E+05
 0.2701333E+00  0.1982607E+05
 0.2705333E+00  0.1989354E+05
 0.2709333E+00  0.2002304E+05
 0.2713333E+00  0.2021801E+05
 0.2717333E+00  0.2048218E+05
 0.2721333E+00  0.2081957E+05
 0.2725333E+00  0.2123451E+05
 0.2729333E+00  0.2173164E+05
 0.2733333E+00  0.2231590E+05
 0.2737333E+00  0.2299257E+05
 0.2741333E+00  0.2376724E+05
 0.2745333E+00  0.2464582E+05
 0.2749333E+00  0.2563456E+05
 0.2753333E+00  0.2674003E+05
 0.2757333E+00  0.2796914E+05
 0.2761333E+00  0.2932909E+05
 0.2765333E+00  0.3082741E+05
 0.2769333E+00  0.3247193E+05
 0.2773333E+00  0.3427074E+05
 0.2777333E+00  0.3623219E+05
 0.2781333E+00  0.3836486E+05
 0.2785333E+00  0.4067754E+05
 0.2789333E+00  0.4317917E+05
 0.2793333E+00  0.4587884E+05
 0.2797333E+00  0.4878570E+05
 0.2801333E+00  0.5190896E+05
 0.2805333E+00  0.5525782E+05
 0.2809333E+00  0.5884141E+05
 0.2813333E+00  0.6266873E+05
 0.2817333E+00  0.6674859E+05
 0.2821333E+00  0.7108953E+05
 0.2825333E+00  0.7569975E+05
 0.2829333E+00  0.8058701E+05
 0.2833333E+00  0.8575853E+05
 0.2837333E+00  0.9122095E+05
 0.2841333E+00  0.9698015E+05
 0.2845333E+00  0.1030412E+06
 0.2849333E+00  0.1094082E+06
 0.2853333E+00  0.1160843E+06
 0.2857333E+00  0.1230712E+06
 0.2861333E+00  0.1303697E+06
 0.2865333E+00  0.1379789E+06
 0.2869333E+00  0.1458963E+06
 0.2873333E+00  0.1541180E+06
 0.2877333E+00  0.1626380E+06
 0.2881333E+00  0.1714485E+06
 0.2885333E+00  0.1805398E+06
 0.2889333E+00  0.1898999E+06
 0.2893333E+00  0.1995143E+06
 0.2897333E+00  0.2093666E+06
 0.2901333E+00  0.2194375E+06
 0.2905333E+00  0.2297055E+06
 0.2909333E+00  0.2401463E+06
 0.2913333E+00  0.2507329E+06
 0.2917333E+00  0.2614357E+06
 0.2921333E+00  0.2722223E+06
 0.2925333E+00  0.2830577E+06
 0.2929333E+00  0.2939040E+06
 0.2933333E+00  0.3047207E+06
 0.2937333E+00  0.3154646E+06
 0.2941333E+00  0.3260902E+06
 0.2945333E+00  0.3365492E+06
 0.2949333E+00  0.3467912E+06
 0.2953333E+00  0.3567636E+06
 0.2957333E+00  0.3664117E+06
 0.2961333E+00  0.3756793E+06
 0.2965333E+00  0.3845083E+06
 0.2969333E+00  0.3928398E+06
 0.2973333E+00  0.4006133E+06
 0.2977333E+00  0.4077681E+06
 0.2981333E+00  0.4142430E+06
 0.2985333E+00  0.4199767E+06
 0.2989333E+00  0.4249083E+06
 0.2993333E+00  0.4289777E+06
 0.2997333E+00  0.4321260E+06
 0.3001333E+00  0.4342955E+06
 0.3005333E+00  0.4354309E+06
 0.3009333E+00  0.4354791E+06
 0.3013333E+00  0.4343896E+06
 0.3017333E+00  0.4321154E+06
 0.3021333E+00  0.4286132E+06
 0.3025333E+00  0.4238436E+06
 0.3029333E+00  0.4177718E+06
 0.3033333E+00  0.4103678E+06
 0.3037333E+00  0.4016067E+06
 0.3041333E+00  0.3914695E+06
 0.3045333E+00  0.3799429E+06
 0.3049333E+00  0.3670197E+06
 0.3053333E+00  0.3526993E+06
 0.3057333E+00  0.3369876E+06
 0.3061333E+00  0.3198976E+06
 0.3065333E+00  0.3014490E+06
 0.3069333E+00  0.2816686E+06
 0.3073333E+00  0.2605906E+06
 0.3077333E+00  0.2382559E+06
 0.3081333E+00  0.2147128E+06
 0.3085333E+00  0.1900163E+06
 0.3089333E+00  0.1642284E+06
 0.3093333E+00  0.1374176E+06
 0.3097333E+00  0.1096588E+06
 0.3101333E+00  0.8103288E+05
 0.3105333E+00  0.5162646E+05
 0.3109333E+00  0.2153151E+05
 0.3113333E+00 -0.9155105E+04
 0.3117333E+00 -0.4033212E+05
 0.3121333E+00 -0.7189434E+05
 0.3125333E+00 -0.1037332E+06
 0.3129333E+00 -0.1357372E+06
 0.3133333E+00 -0.1677928E+06
 0.3137333E+00 -0.1997848E+06
 0.3141333E+00 -0.2315970E+06
 0.3145333E+00 -0.2631129E+06
 0.3149333E+00 -0.2942166E+06
 0.3153333E+00 -0.3247929E+06
 0.3157333E+00 -0.3547284E+06
 0.3161333E+00 -0.3839122E+06
 0.3165333E+00 -0.4122362E+06
 0.3169333E+00 -0.4395958E+06
 0.3173333E+00 -0.4658907E+06
 0.3177333E+00 -0.4910254E+06
 0.3181333E+00 -0.5149095E+06
 0.3185333E+00 -0.5374585E+06
 0.3189333E+00 -0.5585941E+06
 0.3193333E+00 -0.5782445E+06
 0.3197333E+00 -0.5963451E+06
 0.3201333E+00 -0.6128386E+06
 0.3205333E+00 -0.6276754E+06
 0.3209333E+00 -0.6408135E+06
 0.3213333E+00 -0.6522192E+06
 0.3217333E+00 -0.6618671E+06
 0.3221333E+00 -0.6697396E+06
 0.3225333E+00 -0.6758276E+06
 0.3229333E+00 -0.6801303E+06
 0.3233333E+00 -0.6826548E+06
 0.3237333E+00 -0.6834160E+06
 0.3241333E+00 -0.6824369E+06
 0.3245333E+00 -0.6797478E+06
 0.3249333E+00 -0.6753862E+06
 0.3253333E+00 -0.6693964E+06
 0.3257333E+00 -0.6618294E+06
 0.3261333E+00 -0.6527422E+06
 0.3265333E+00 -0.6421976E+06
 0.3269333E+00 -0.6302632E+06
 0.3273333E+00 -0.6170120E+06
 0.3277333E+00 -0.6025207E+06
 0.3281333E+00 -0.5868699E+06
 0.3285333E+00 -0.5701435E+06
 0.3289333E+00 -0.5524279E+06
 0.3293333E+00 -0.5338116E+06
 0.3297333E+00 -0.5143847E+06
 0.3301333E+00 -0.4942384E+06
 0.3305333E+00 -0.4734643E+06
 0.3309333E+00 -0.4521541E+06
 0.3313333E+00 -0.4303987E+06
 0.3317333E+00 -0.4082883E+06
 0.3321333E+00 -0.3859117E+06
 0.3325333E+00 -0.3633555E+06
 0.3329333E+00 -0.3407044E+06