 -0.12000000000000000          0.0000000000000000     
 -0.11889999999999999          7.2353154725806230E-015
 -0.11780000000000000          1.8694440250473709E-014
 -0.11670000000000000          3.0288925510985845E-014
 -0.11559999999999999          3.8409433481726947E-014
 -0.11449999999999999          4.1124835877479980E-014
 -0.11340000000000000          3.8507149862133815E-014
 -0.11230000000000000          3.2055537878515534E-014
 -0.11119999999999999          2.3655015769272888E-014
 -0.11009999999999999          1.4681995252639137E-014
 -0.10900000000000000          5.6819041194011429E-015
 -0.10790000000000000         -3.3633302549033583E-015
 -0.10679999999999999         -1.2522900276176926E-014
 -0.10569999999999999         -2.1602242669964352E-014
 -0.10460000000000000         -3.0259121293719253E-014
 -0.10349999999999999         -3.8425951091363179E-014
 -0.10239999999999999         -4.6655356285921755E-014
 -0.10130000000000000         -5.6026582400583573E-014
 -0.10020000000000000         -6.7542741903211519E-014
  -9.9099999999999994E-002    -8.1324607423789695E-014
  -9.7999999999999990E-002    -9.6114127466369293E-014
  -9.6899999999999986E-002    -1.0948892889415764E-013
  -9.5799999999999996E-002    -1.1880315024034624E-013
  -9.4699999999999993E-002    -1.2243280925309271E-013
  -9.3599999999999989E-002    -1.2067954336849135E-013
  -9.2499999999999999E-002    -1.1582161320428767E-013
  -9.1399999999999995E-002    -1.1123127625602254E-013
  -9.0299999999999991E-002    -1.0996725413788179E-013
  -8.9200000000000002E-002    -1.1352540393173458E-013
  -8.8099999999999984E-002    -1.2134116261084251E-013
  -8.6999999999999994E-002    -1.3123958998989808E-013
  -8.5899999999999990E-002    -1.4054943413510537E-013
  -8.4799999999999986E-002    -1.4729504247817056E-013
  -8.3699999999999997E-002    -1.5090281791158460E-013
  -8.2599999999999993E-002    -1.5216407542660594E-013
  -8.1499999999999989E-002    -1.5259474328041803E-013
  -8.0399999999999999E-002    -1.5360118494221017E-013
  -7.9299999999999995E-002    -1.5587789105247984E-013
  -7.8199999999999992E-002    -1.5925845379931867E-013
  -7.7100000000000002E-002    -1.6296647765732496E-013
  -7.5999999999999984E-002    -1.6603165848067692E-013
  -7.4899999999999994E-002    -1.6763079664484239E-013
  -7.3799999999999991E-002    -1.6724371053507345E-013
  -7.2699999999999987E-002    -1.6466493210028451E-013
  -7.1599999999999997E-002    -1.5997877789608553E-013
  -7.0499999999999993E-002    -1.5355965276343504E-013
  -6.9399999999999989E-002    -1.4606244207840150E-013
  -6.8300000000000000E-002    -1.3831376326800094E-013
  -6.7199999999999996E-002    -1.3105927200672920E-013
  -6.6099999999999992E-002    -1.2463850858754651E-013
  -6.5000000000000002E-002    -1.1875917137804817E-013
  -6.3899999999999985E-002    -1.1253958160356625E-013
  -6.2799999999999995E-002    -1.0486235182254564E-013
  -6.1699999999999991E-002    -9.4900538552891917E-014
  -6.0599999999999994E-002    -8.2554033379780042E-014
  -5.9499999999999990E-002    -6.8555404032885245E-014
  -5.8399999999999994E-002    -5.4169441561280394E-014
  -5.7299999999999990E-002    -4.0628083575319569E-014
  -5.6199999999999986E-002    -2.8585325407652554E-014
  -5.5099999999999996E-002    -1.7861046676287993E-014
  -5.3999999999999992E-002    -7.5803151669018318E-015
  -5.2899999999999989E-002     3.3955703491205361E-015
  -5.1799999999999985E-002     1.5985378967346452E-014
  -5.0699999999999995E-002     3.0580204643955508E-014
  -4.9599999999999991E-002     4.7006223712345725E-014
  -4.8499999999999988E-002     6.4690377500332784E-014
  -4.7399999999999998E-002     8.2874345923199574E-014
  -4.6299999999999994E-002     1.0075379899430662E-013
  -4.5199999999999990E-002     1.1752956088871632E-013
  -4.4099999999999986E-002     1.3245325936180764E-013
  -4.2999999999999997E-002     1.4495611681697880E-013
  -4.1899999999999993E-002     1.5486089388926903E-013
  -4.0799999999999989E-002     1.6256122855281693E-013
  -3.9699999999999985E-002     1.6900696883732894E-013
  -3.8599999999999995E-002     1.7540870843158372E-013
  -3.7499999999999992E-002     1.8273893371122414E-013
  -3.6399999999999988E-002     1.9125746987083868E-013
  -3.5299999999999984E-002     2.0032137322686645E-013
  -3.4199999999999994E-002     2.0861448820471923E-013
  -3.3099999999999991E-002     2.1471239849873698E-013
  -3.1999999999999987E-002     2.1771059309169272E-013
  -3.0899999999999997E-002     2.1760348320815095E-013
  -2.9799999999999993E-002     2.1523694441626872E-013
  -2.8699999999999989E-002     2.1189121430670189E-013
  -2.7599999999999986E-002     2.0874282675874274E-013
  -2.6499999999999996E-002     2.0649304042522889E-013
  -2.5399999999999992E-002     2.0531685837292497E-013
  -2.4299999999999988E-002     2.0507431097212998E-013
  -2.3199999999999985E-002     2.0557064648114454E-013
  -2.2099999999999995E-002     2.0665543891530397E-013
  -2.0999999999999991E-002     2.0810162645088807E-013
  -1.9899999999999987E-002     2.0939945310236972E-013
  -1.8799999999999983E-002     2.0969571145104416E-013
  -1.7699999999999994E-002     2.0803278970849309E-013
  -1.6599999999999990E-002     2.0383198790630450E-013
  -1.5499999999999986E-002     1.9735966910091183E-013
  -1.4399999999999996E-002     1.8985673725447200E-013
  -1.3299999999999992E-002     1.8316099447407012E-013
  -1.2199999999999989E-002     1.7893695299618005E-013
  -1.1099999999999985E-002     1.7788103184875884E-013
  -9.9999999999999950E-003     1.7933180814264880E-013
  -8.8999999999999913E-003     1.8153021604004518E-013
  -7.7999999999999875E-003     1.8243435884826647E-013
  -6.6999999999999837E-003     1.8068856776455351E-013
  -5.5999999999999939E-003     1.7625109316283188E-013
  -4.4999999999999901E-003     1.7036087777730482E-013
  -3.3999999999999864E-003     1.6487381692090648E-013
  -2.2999999999999826E-003     1.6132848678125993E-013
  -1.1999999999999927E-003     1.6022774262592380E-013
  -9.9999999999988987E-005     1.6088212105015541E-013
   1.0000000000000148E-003     1.6184316295478659E-013
   2.1000000000000185E-003     1.6164430586395055E-013
   3.2000000000000084E-003     1.5943551806481141E-013
   4.3000000000000121E-003     1.5520479353356514E-013
   5.4000000000000159E-003     1.4954363966557221E-013
   6.5000000000000058E-003     1.4316935249123664E-013
   7.6000000000000234E-003     1.3651825167117891E-013
   8.7000000000000133E-003     1.2962802257904967E-013
   9.8000000000000032E-003     1.2231372958436858E-013
   1.0900000000000021E-002     1.1445503949304427E-013
   1.2000000000000011E-002     1.0616633214749578E-013
   1.3100000000000001E-002     9.7732132839617577E-014
   1.4200000000000018E-002     8.9372429388983311E-014
   1.5300000000000008E-002     8.1026973139525732E-014
   1.6400000000000026E-002     7.2332741561211335E-014
   1.7500000000000016E-002     6.2827433437144163E-014
   1.8600000000000005E-002     5.2243858300150852E-014
   1.9700000000000023E-002     4.0682760299436313E-014
   2.0800000000000013E-002     2.8521328296471525E-014
   2.1900000000000003E-002     1.6090317049307534E-014
   2.3000000000000020E-002     3.3192014505751842E-015
   2.4100000000000010E-002    -1.0405804925149259E-014
   2.5200000000000000E-002    -2.6039674916133295E-014
   2.6300000000000018E-002    -4.4409376663354747E-014
   2.7400000000000008E-002    -6.5730062612421337E-014
   2.8500000000000025E-002    -8.9390193351474510E-014
   2.9600000000000015E-002    -1.1415030893035026E-013
   3.0700000000000005E-002    -1.3866957303123245E-013
   3.1800000000000023E-002    -1.6208660205210762E-013
   3.2900000000000013E-002    -1.8434785020078041E-013
   3.4000000000000002E-002    -2.0611750259711845E-013
   3.5100000000000020E-002    -2.2833480352563112E-013
   3.6200000000000010E-002    -2.5167381305431083E-013
   3.7300000000000028E-002    -2.7619951181201615E-013
   3.8400000000000017E-002    -3.0138871164610702E-013
   3.9500000000000007E-002    -3.2647069270007815E-013
   4.0600000000000025E-002    -3.5087058830217186E-013
   4.1700000000000015E-002    -3.7450069027629053E-013
   4.2800000000000005E-002    -3.9775454373121804E-013
   4.3900000000000022E-002    -4.2124039333513227E-013
   4.5000000000000012E-002    -4.4543365618605727E-013
   4.6100000000000002E-002    -4.7045273689976621E-013
   4.7200000000000020E-002    -4.9606587992185931E-013
   4.8300000000000010E-002    -5.2188573606584348E-013
   4.9400000000000027E-002    -5.4760268891806015E-013
   5.0500000000000017E-002    -5.7310223166838408E-013
   5.1600000000000007E-002    -5.9840481822380106E-013
   5.2700000000000025E-002    -6.2348954918370849E-013
   5.3800000000000014E-002    -6.4813746015918898E-013
   5.4900000000000004E-002    -6.7191055843139617E-013
   5.6000000000000022E-002    -6.9429019696639384E-013
   5.7100000000000012E-002    -7.1489223688863434E-013
   5.8200000000000002E-002    -7.3362593286315532E-013
   5.9300000000000019E-002    -7.5069692378637414E-013
   6.0400000000000009E-002    -7.6644572954047909E-013
   6.1500000000000027E-002    -7.8110543701407408E-013
   6.2600000000000017E-002    -7.9460064145411895E-013
   6.3700000000000007E-002    -8.0647583450227063E-013
   6.4800000000000024E-002    -8.1596679509482339E-013
   6.5900000000000014E-002    -8.2216110055559499E-013
   6.7000000000000004E-002    -8.2417190026792281E-013
   6.8100000000000022E-002    -8.2127755965285313E-013
   6.9200000000000012E-002    -8.1302419588066519E-013
   7.0300000000000029E-002    -7.9931411449705402E-013
   7.1400000000000019E-002    -7.8048518558938180E-013
   7.2500000000000009E-002    -7.5734669604644595E-013
   7.3600000000000027E-002    -7.3110784179321265E-013
   7.4700000000000016E-002    -7.0315576716478135E-013
   7.5800000000000006E-002    -6.7470667400216013E-013
   7.6900000000000024E-002    -6.4643712084058406E-013
   7.8000000000000014E-002    -6.1824394546284089E-013
   7.9100000000000004E-002    -5.8925392079493434E-013
   8.0200000000000021E-002    -5.5810316463755923E-013
   8.1300000000000011E-002    -5.2338871767695249E-013
   8.2400000000000029E-002    -4.8411591012701565E-013
   8.3500000000000019E-002    -4.3997212549817291E-013
   8.4600000000000009E-002    -3.9134621770627076E-013
   8.5700000000000026E-002    -3.3913319305841775E-013
   8.6800000000000016E-002    -2.8445481681714131E-013
   8.7900000000000006E-002    -2.2843941055968293E-013
   8.9000000000000024E-002    -1.7214133350338448E-013
   9.0100000000000013E-002    -1.1658272865490658E-013
   9.1200000000000003E-002    -6.2825427241358259E-014
   9.2300000000000021E-002    -1.1970692485784742E-014
   9.3400000000000011E-002     3.4961700288971633E-014
   9.4500000000000028E-002     7.7241835362878476E-014
   9.5600000000000018E-002     1.1463108948193869E-013
   9.6700000000000008E-002     1.4747582730572032E-013
   9.7800000000000026E-002     1.7663903311609539E-013
   9.8900000000000016E-002     2.0328554556563356E-013
  0.10000000000000001          2.2859146343121470E-013
  0.10110000000000002          2.5346447397157339E-013
  0.10220000000000001          2.7834129867542625E-013
  0.10330000000000003          3.0309296761778283E-013
  0.10440000000000002          3.2704009306563360E-013
  0.10550000000000001          3.4906968851660004E-013
  0.10660000000000003          3.6784103113550199E-013
  0.10770000000000002          3.8205893610907453E-013
  0.10880000000000001          3.9076907189793294E-013
  0.10990000000000003          3.9360475901067715E-013
  0.11100000000000002          3.9090829501394442E-013
  0.11210000000000001          3.8368008187127174E-013
  0.11320000000000002          3.7337117318645116E-013
  0.11430000000000001          3.6160085753101250E-013
  0.11540000000000003          3.4991339845664351E-013
  0.11650000000000002          3.3966331352847063E-013
  0.11760000000000001          3.3204385515605306E-013
  0.11870000000000003          3.2818712349840000E-013
  0.11980000000000002          3.2921807040254014E-013
  0.12090000000000001          3.3616648753910585E-013
  0.12200000000000003          3.4972709914171576E-013
  0.12310000000000001          3.6995975232068795E-013
  0.12420000000000003          3.9608282905322810E-013
  0.12530000000000002          4.2649444782186778E-013
  0.12640000000000001          4.5906251482770553E-013
  0.12750000000000003          4.9160286900407095E-013
  0.12860000000000002          5.2237777378430074E-013
  0.12970000000000001          5.5043866113110036E-013
  0.13080000000000003          5.7571110165084097E-013
  0.13190000000000002          5.9883112754959060E-013
  0.13300000000000001          6.2083704328637447E-013
  0.13410000000000000          6.4285018377758197E-013
  0.13520000000000004          6.6584004307304329E-013
  0.13630000000000003          6.9049609179681423E-013
  0.13740000000000002          7.1716760813937856E-013
  0.13850000000000001          7.4581656430609523E-013
  0.13960000000000000          7.7596037233694005E-013
  0.14070000000000005          8.0662890216641050E-013
  0.14180000000000004          8.3638674361171419E-013
  0.14290000000000003          8.6345809021459891E-013
  0.14400000000000002          8.8594396081940146E-013
  0.14510000000000001          9.0207423509788612E-013
  0.14620000000000000          9.1041937729878189E-013
  0.14730000000000004          9.1001034135627832E-013
  0.14840000000000003          9.0036454102272808E-013
  0.14950000000000002          8.8145565357776655E-013
  0.15060000000000001          8.5367441695738426E-013
  0.15170000000000000          8.1780084248737725E-013
  0.15280000000000005          7.7496847533014403E-013
  0.15390000000000004          7.2658340501009854E-013
  0.15500000000000003          6.7417592349984710E-013
  0.15610000000000002          6.1920520707806959E-013
  0.15720000000000001          5.6287766225496368E-013
  0.15830000000000000          5.0604247145201086E-013
  0.15940000000000004          4.4919218098088895E-013
  0.16050000000000003          3.9253763804925768E-013
  0.16160000000000002          3.3608506265700176E-013
  0.16270000000000001          2.7965110061875564E-013
  0.16380000000000000          2.2280606118809078E-013
  0.16490000000000005          1.6480491024110230E-013
  0.16600000000000004          1.0460515234463336E-013
  0.16710000000000003          4.1044593515284178E-014
  0.16820000000000002         -2.6827292321301285E-014
  0.16930000000000001         -9.9365866799050902E-014
  0.17040000000000000         -1.7604915607742590E-013
  0.17150000000000004         -2.5542705445355553E-013
  0.17260000000000003         -3.3533983022173636E-013
  0.17370000000000002         -4.1333108958544656E-013
  0.17480000000000001         -4.8710546758429607E-013
  0.17590000000000000         -5.5488116412384341E-013
  0.17700000000000005         -6.1555534877003847E-013
  0.17810000000000004         -6.6869574633610479E-013
  0.17920000000000003         -7.1443486815887323E-013
  0.18030000000000002         -7.5335234005500607E-013
  0.18140000000000001         -7.8638411288912181E-013
  0.18250000000000000         -8.1474132894555921E-013
  0.18360000000000004         -8.3979420376738319E-013
  0.18470000000000003         -8.6289509848781023E-013
  0.18580000000000002         -8.8516586171190406E-013
  0.18690000000000001         -9.0731599279593514E-013
  0.18800000000000000         -9.2956065338820035E-013
  0.18910000000000005         -9.5166320802584594E-013
  0.19020000000000004         -9.7306837917387086E-013
  0.19130000000000003         -9.9305022400460630E-013
  0.19240000000000002         -1.0108096090981086E-012
  0.19350000000000001         -1.0255021577608283E-012
  0.19460000000000005         -1.0362344524112000E-012
  0.19570000000000004         -1.0420860020367539E-012
  0.19680000000000003         -1.0421949909290836E-012
  0.19790000000000002         -1.0358873644225867E-012
  0.19900000000000001         -1.0227868060609992E-012
  0.20010000000000000         -1.0028412727245385E-012
  0.20120000000000005         -9.7625011732474263E-013
  0.20230000000000004         -9.4333842562379031E-013
  0.20340000000000003         -9.0446429184319099E-013
  0.20450000000000002         -8.6002376392882613E-013
  0.20560000000000000         -8.1054800929834188E-013
  0.20670000000000005         -7.5680925386780199E-013
  0.20780000000000004         -6.9982323268629381E-013
  0.20890000000000003         -6.4067730079605583E-013
  0.21000000000000002         -5.8021251205479159E-013
  0.21110000000000001         -5.1868699747409027E-013
  0.21220000000000000         -4.5558573578396832E-013
  0.21330000000000005         -3.8969180110729637E-013
  0.21440000000000003         -3.1941716972463126E-013
  0.21550000000000002         -2.4327102384923477E-013
  0.21660000000000001         -1.6028341690938309E-013
  0.21770000000000000         -7.0234510389881391E-014
  0.21880000000000005          2.6357012449773812E-014
  0.21990000000000004          1.2841850751210057E-013
  0.22100000000000003          2.3454955911803425E-013
  0.22210000000000002          3.4317430257798850E-013
  0.22320000000000001          4.5258140857119399E-013
  0.22430000000000000          5.6089887167854260E-013
  0.22540000000000004          6.6609425937392561E-013
  0.22650000000000003          7.6606967774450843E-013
  0.22760000000000002          8.5885579670000842E-013
  0.22870000000000001          9.4284348023217005E-013
  0.22980000000000000          1.0169650295739540E-012
  0.23090000000000005          1.0807602191735093E-012
  0.23200000000000004          1.1343176754605710E-012
  0.23310000000000003          1.1781303718987785E-012
  0.23420000000000002          1.2129218727295277E-012
  0.23530000000000001          1.2394865375355397E-012
  0.23640000000000000          1.2585559557103841E-012
  0.23750000000000004          1.2706873171214728E-012
  0.23860000000000003          1.2761756611781357E-012
  0.23970000000000002          1.2750050066188686E-012
  0.24080000000000001          1.2668649751366445E-012
  0.24190000000000000          1.2512418673563353E-012
  0.24300000000000005          1.2275586676479104E-012
  0.24410000000000004          1.1953113236209205E-012
  0.24520000000000003          1.1541450992744542E-012
  0.24630000000000002          1.1038512679192739E-012
  0.24740000000000001          1.0443163451048777E-012
  0.24850000000000005          9.7549559572077509E-013
  0.24960000000000004          8.9747747741253050E-013
  0.25070000000000003          8.1065477157686643E-013
  0.25180000000000002          7.1594619460161861E-013
  0.25290000000000001          6.1496401422453842E-013
  0.25400000000000000          5.1002127489904005E-013
  0.25510000000000005          4.0393073569062400E-013
  0.25620000000000004          2.9963322168859522E-013
  0.25730000000000003          1.9976326774511174E-013
  0.25840000000000002          1.0628515996555953E-013
  0.25950000000000001          2.0300486671243644E-014
  0.26060000000000005         -5.7936690006009940E-014
  0.26170000000000004         -1.2883016011516262E-013
  0.26280000000000003         -1.9315269904758953E-013
  0.26390000000000002         -2.5174365459431095E-013
  0.26500000000000001         -3.0526325430620540E-013
  0.26610000000000000         -3.5404917423216209E-013
  0.26720000000000005         -3.9809519719526475E-013
  0.26830000000000004         -4.3714637987812483E-013
  0.26940000000000003         -4.7087681357823708E-013
  0.27050000000000002         -4.9908770198861321E-013
  0.27160000000000001         -5.2184668563832204E-013
  0.27270000000000005         -5.3950184586822207E-013
  0.27380000000000004         -5.5254823339851782E-013
  0.27490000000000003         -5.6138974975256864E-013
  0.27600000000000002         -5.6609730298529477E-013
  0.27710000000000001         -5.6627789238967824E-013
  0.27820000000000000         -5.6113380739779865E-013
  0.27930000000000005         -5.4971184693860844E-013
  0.28040000000000004         -5.3126006748933448E-013
  0.28150000000000003         -5.0556578014025383E-013
  0.28260000000000002         -4.7315914754134496E-013
  0.28370000000000001         -4.3532663544285407E-013
  0.28480000000000005         -3.9395221544947915E-013
  0.28590000000000004         -3.5125491260732426E-013
  0.28700000000000003         -3.0950070489583475E-013
  0.28810000000000002         -2.7074226948236803E-013
  0.28920000000000001         -2.3660614834574342E-013
  0.29030000000000000         -2.0813154678385118E-013
  0.29140000000000005         -1.8567290028644326E-013
  0.29250000000000004         -1.6889482744993841E-013
  0.29360000000000003         -1.5688988929859414E-013
  0.29470000000000002         -1.4842139900685289E-013
  0.29580000000000001         -1.4224272593536622E-013
  0.29690000000000005         -1.3739991360862450E-013
  0.29800000000000004         -1.3341623945469812E-013
  0.29910000000000003         -1.3029725138089580E-013
  0.30020000000000002         -1.2836946885703483E-013
  0.30130000000000001         -1.2803746300405145E-013
  0.30240000000000000         -1.2957654788690734E-013
  0.30350000000000005         -1.3305453586881060E-013
  0.30460000000000004         -1.3840957084494119E-013
  0.30570000000000003         -1.4563508594240968E-013
  0.30680000000000002         -1.5497605833189729E-013
  0.30790000000000001         -1.6703978793870720E-013
  0.30900000000000005         -1.8276610605942747E-013
  0.31010000000000004         -2.0325915642598386E-013
  0.31120000000000003         -2.2953179113734030E-013
  0.31230000000000002         -2.6223591997636348E-013
  0.31340000000000001         -3.0144937581222162E-013
  0.31450000000000006         -3.4657085666337094E-013
  0.31560000000000005         -3.9634890644044935E-013
  0.31670000000000004         -4.4904443330966539E-013
  0.31780000000000003         -5.0269630428721073E-013
  0.31890000000000002         -5.5543231277614505E-013
  0.32000000000000001         -6.0574793596037014E-013
  0.32110000000000005         -6.5268016260045013E-013
  0.32220000000000004         -6.9583261756243397E-013
  0.32330000000000003         -7.3526438382116042E-013
  0.32440000000000002         -7.7130523616781699E-013
  0.32550000000000001         -8.0438859286232682E-013
  0.32660000000000006         -8.3497437491317413E-013
  0.32770000000000005         -8.6357977582330897E-013
  0.32880000000000004         -8.9086935826400370E-013
  0.32990000000000003         -9.1771288488404069E-013
  0.33100000000000002         -9.4512528786753975E-013
  0.33210000000000001         -9.7405726570754007E-013
  0.33320000000000005         -1.0050806939378681E-012
  0.33430000000000004         -1.0380760806619104E-012
  0.33540000000000003         -1.0720466023851776E-012
  0.33650000000000002         -1.1051513284900123E-012
  0.33760000000000001         -1.1349784671134908E-012
  0.33870000000000006         -1.1590060135209526E-012
  0.33980000000000005         -1.1751392878344265E-012
  0.34090000000000004         -1.1821923887707980E-012
  0.34200000000000003         -1.1801931491942185E-012
  0.34310000000000002         -1.1704289710474058E-012
  0.34420000000000001         -1.1552066881170830E-012
  0.34530000000000005         -1.1373614609906314E-012
  0.34640000000000004         -1.1196140995385555E-012
  0.34750000000000003         -1.1039261482642052E-012
  0.34860000000000002         -1.0910182519543510E-012
  0.34970000000000001         -1.0801910320098523E-012
  0.35080000000000006         -1.0695084026652771E-012
  0.35190000000000005         -1.0563029768168371E-012
  0.35300000000000004         -1.0378627793153176E-012
  0.35410000000000003         -1.0121089122706595E-012
  0.35520000000000002         -9.7808446757414960E-013
  0.35630000000000001         -9.3614831945259506E-013
  0.35740000000000005         -8.8786243998350478E-013
  0.35850000000000004         -8.3564795855429265E-013
  0.35960000000000003         -7.8232321560609075E-013
  0.36070000000000002         -7.3062712842403846E-013
  0.36180000000000001         -6.8279319526297573E-013
  0.36290000000000006         -6.4019925527992607E-013
  0.36400000000000005         -6.0310586640032893E-013
  0.36510000000000004         -5.7050732520620661E-013
  0.36620000000000003         -5.4014343533626649E-013
  0.36730000000000002         -5.0872685673453619E-013
  0.36840000000000006         -4.7241571172500030E-013
  0.36950000000000005         -4.2750368294917428E-013
  0.37060000000000004         -3.7122810819446397E-013
  0.37170000000000003         -3.0253960335485182E-013
  0.37280000000000002         -2.2265643995438987E-013
  0.37390000000000001         -1.3524872329147296E-013
  0.37500000000000006         -4.6158707420156104E-014
  0.37610000000000005          3.7352878599297932E-014
  0.37720000000000004          1.0775668895151037E-013
  0.37830000000000003          1.5864005525611675E-013
  0.37940000000000002          1.8610165262026819E-013
  0.38050000000000006          1.8989055532443488E-013
  0.38160000000000005          1.7402374726170506E-013
  0.38270000000000004          1.4666721906907788E-013
  0.38380000000000003          1.1917376778805636E-013
  0.38490000000000002          1.0432814142285261E-013
  0.38600000000000001          1.1403247426497201E-013
  0.38710000000000000          1.5682967404113045E-013
  0.38819999999999999          2.3576392424824322E-013
  0.38930000000000009          3.4707681060528172E-013
  0.39040000000000008          4.8011946986272299E-013
  0.39150000000000007          6.1863836688034871E-013
  0.39260000000000006          7.4330993833186224E-013
  0.39370000000000005          8.3512064750179071E-013
  0.39480000000000004          8.7898037852882698E-013
  0.39590000000000003          8.6687060505281193E-013
  0.39700000000000002          7.9988939550001458E-013
  0.39810000000000001          6.8874408171534552E-013
  0.39920000000000000          5.5252668392053269E-013
  0.40029999999999999          4.1591723995692749E-013
  0.40140000000000009          3.0524490112853277E-013
  0.40250000000000008          2.4404084637538414E-013
  0.40360000000000007          2.4881910195266134E-013
  0.40470000000000006          3.2580269463063138E-013
  0.40580000000000005          4.6918756858223930E-013
  0.40690000000000004          6.6131305072839279E-013
  0.40800000000000003          8.7481832036792503E-013
  0.40910000000000002          1.0765462561053978E-012
  0.41020000000000001          1.2326551835846009E-012
  0.41130000000000000          1.3141697220981693E-012
  0.41239999999999999          1.3020885013398667E-012
  0.41350000000000009          1.1911896339970009E-012
  0.41460000000000008          9.9183784455551449E-013
  0.41570000000000007          7.2937834188425709E-013
  0.41680000000000006          4.4105206857136201E-013
  0.41790000000000005          1.7075008376969688E-013
  0.41900000000000004         -3.7714690008952302E-014
  0.42010000000000003         -1.4784608456207760E-013
  0.42120000000000002         -1.3706292507291404E-013
  0.42230000000000001         -1.4923330303584014E-015
  0.42340000000000000          2.4202182784337333E-013
  0.42449999999999999          5.5728611736144943E-013
  0.42560000000000009          8.9354031939233001E-013
  0.42670000000000008          1.1930743570082136E-012
  0.42780000000000007          1.4005293665413556E-012
  0.42890000000000006          1.4723469226144789E-012
  0.43000000000000005          1.3847201225467655E-012
  0.43110000000000004          1.1385922315885210E-012
  0.43220000000000003          7.6071782206472887E-013
  0.43330000000000002          3.0044896766038367E-013
  0.43440000000000001         -1.7737770631453416E-013
  0.43550000000000000         -6.0241390457414348E-013
  0.43659999999999999         -9.1008835065829124E-013
  0.43770000000000009         -1.0523967557011394E-012
  0.43880000000000008         -1.0063928003026256E-012
  0.43990000000000007         -7.7889171937815331E-013
  0.44100000000000006         -4.0646963848725397E-013
  0.44210000000000005          4.9399079169106804E-014
  0.44320000000000004          5.1142099800916279E-013
  0.44430000000000003          8.9841078499539087E-013
  0.44540000000000002          1.1382025294484513E-012
  0.44650000000000001          1.1794885997763915E-012
  0.44760000000000000          1.0006686528773357E-012
  0.44869999999999999          6.1422716758712460E-013
  0.44980000000000009          6.5820764707604678E-014
  0.45090000000000008         -5.7194698326542948E-013
  0.45200000000000007         -1.2102570838144847E-012
  0.45310000000000006         -1.7577577408781607E-012
  0.45420000000000005         -2.1350820119888268E-012
  0.45530000000000004         -2.2878379433443930E-012
  0.45640000000000003         -2.1958469951574335E-012
  0.45750000000000002         -1.8769559301134607E-012
  0.45860000000000001         -1.3846418723592254E-012
  0.45970000000000000         -7.9971092330207615E-013
  0.46079999999999999         -2.1744252000958359E-013
  0.46190000000000009          2.6765560581121136E-013
  0.46300000000000008          5.7689657727016906E-013
  0.46410000000000007          6.5972927867084080E-013
  0.46520000000000006          5.0126550724226764E-013
  0.46630000000000005          1.2379160470119249E-013
  0.46740000000000004         -4.1793945641245074E-013
  0.46850000000000003         -1.0467677930889798E-012
  0.46960000000000002         -1.6767281408402302E-012
  0.47070000000000001         -2.2277211395845929E-012
  0.47180000000000000         -2.6385462221464249E-012
  0.47289999999999999         -2.8758651962942163E-012
  0.47400000000000009         -2.9374287545647712E-012
  0.47510000000000008         -2.8490463284134490E-012
  0.47620000000000007         -2.6560478752576399E-012
  0.47730000000000006         -2.4111258520588510E-012
  0.47840000000000005         -2.1611699144409297E-012