 -0.12000000000000000          0.0000000000000000     
 -0.11889999999999999         -2.9948211871007872E-006
 -0.11780000000000000         -6.5593307318658877E-006
 -0.11670000000000000         -7.9873085654105664E-006
 -0.11559999999999999         -6.5899564017596422E-006
 -0.11449999999999999         -4.1004709459229296E-006
 -0.11340000000000000         -2.9130969900889109E-006
 -0.11230000000000000         -3.8353466007547767E-006
 -0.11119999999999999         -5.4372067175646516E-006
 -0.11009999999999999         -5.6106685552096964E-006
 -0.10900000000000000         -3.8393916345128530E-006
 -0.10790000000000000         -1.8631160013128905E-006
 -0.10679999999999999         -1.9277071918149386E-006
 -0.10569999999999999         -4.3717317264462696E-006
 -0.10460000000000000         -7.1520927177774545E-006
 -0.10349999999999999         -7.8606941707739524E-006
 -0.10239999999999999         -6.0436778259393889E-006
 -0.10130000000000000         -3.4231844137167303E-006
 -0.10020000000000000         -2.0878341985550771E-006
  -9.9099999999999994E-002    -2.7468036202335402E-006
  -9.7999999999999990E-002    -4.5332915795132523E-006
  -9.6899999999999986E-002    -5.9686228364468338E-006
  -9.5799999999999996E-002    -6.0227413921244276E-006
  -9.4699999999999993E-002    -4.7795677378007580E-006
  -9.3599999999999989E-002    -3.4710684182089318E-006
  -9.2499999999999999E-002    -3.5271515431710464E-006
  -9.1399999999999995E-002    -5.0703819689104982E-006
  -9.0299999999999991E-002    -6.4813058952678233E-006
  -8.9200000000000002E-002    -6.0188263465466729E-006
  -8.8099999999999984E-002    -3.9281309094139178E-006
  -8.6999999999999994E-002    -2.3720206347598212E-006
  -8.5899999999999990E-002    -3.0015913784948740E-006
  -8.4799999999999986E-002    -5.0773789755733680E-006
  -8.3699999999999997E-002    -6.4318439761735819E-006
  -8.2599999999999993E-002    -5.9274516657537745E-006
  -8.1499999999999989E-002    -4.3820720984652322E-006
  -8.0399999999999999E-002    -3.2722450081867720E-006
  -7.9299999999999995E-002    -3.2541655168269489E-006
  -7.8199999999999992E-002    -4.0375145224429371E-006
  -7.7100000000000002E-002    -4.9584048114457058E-006
  -7.5999999999999984E-002    -5.2744351246556982E-006
  -7.4899999999999994E-002    -4.5024760605117363E-006
  -7.3799999999999991E-002    -3.1043411190040317E-006
  -7.2699999999999987E-002    -2.4636582061254202E-006
  -7.1599999999999997E-002    -3.4126381790220252E-006
  -7.0499999999999993E-002    -4.9017615345016907E-006
  -6.9399999999999989E-002    -4.9664748031304532E-006
  -6.8300000000000000E-002    -3.1788318288393188E-006
  -6.7199999999999996E-002    -1.3272642400414105E-006
  -6.6099999999999992E-002    -1.2061224657685526E-006
  -6.5000000000000002E-002    -2.4235826081412762E-006
  -6.3899999999999985E-002    -3.1354109616245563E-006
  -6.2799999999999995E-002    -2.4792249100964312E-006
  -6.1699999999999991E-002    -1.3053857530607354E-006
  -6.0599999999999994E-002    -6.0539760752029767E-007
  -5.9499999999999990E-002    -2.9759679195356367E-007
  -5.8399999999999994E-002     8.0337019177321718E-008
  -5.7299999999999990E-002     4.2611436450562705E-007
  -5.6199999999999986E-002     5.5196972967245581E-007
  -5.5099999999999996E-002     9.5601397246039809E-007
  -5.3999999999999992E-002     2.1534211000786067E-006
  -5.2899999999999989E-002     3.5259733304620364E-006
  -5.1799999999999985E-002     3.8890777256898873E-006
  -5.0699999999999995E-002     3.2889567028632486E-006
  -4.9599999999999991E-002     3.2148687724085055E-006
  -4.8499999999999988E-002     4.5815152814867254E-006
  -4.7399999999999998E-002     6.3747039038936863E-006
  -4.6299999999999994E-002     7.0548876735928245E-006
  -4.5199999999999990E-002     6.6785124395040850E-006
  -4.4099999999999986E-002     6.6306718432072702E-006
  -4.2999999999999997E-002     7.5413205599313160E-006
  -4.1899999999999993E-002     8.6088477772193125E-006
  -4.0799999999999989E-002     9.1330058219663175E-006
  -3.9699999999999985E-002     9.6013222525884970E-006
  -3.8599999999999995E-002     1.0658491902301042E-005
  -3.7499999999999992E-002     1.1861765773208029E-005
  -3.6399999999999988E-002     1.2354611565597111E-005
  -3.5299999999999984E-002     1.2242821318181606E-005
  -3.4199999999999994E-002     1.2235630399227022E-005
  -3.3099999999999991E-002     1.2103808105008869E-005
  -3.1999999999999987E-002     1.0674735501723775E-005
  -3.0899999999999997E-002     7.6536520485907832E-006
  -2.9799999999999993E-002     4.4219356260732576E-006
  -2.8699999999999989E-002     2.3906396595883275E-006
  -2.7599999999999986E-002     1.3611633855522285E-006
  -2.6499999999999996E-002     4.0321833586940640E-007
  -2.5399999999999992E-002    -2.1157823777663218E-007
  -2.4299999999999988E-002     8.4634363609287309E-007
  -2.3199999999999985E-002     3.9417706629388824E-006
  -2.2099999999999995E-002     7.7754579005001904E-006
  -2.0999999999999991E-002     1.1091161251395828E-005
  -1.9899999999999987E-002     1.4076144991441669E-005
  -1.8799999999999983E-002     1.7347012178712298E-005
  -1.7699999999999994E-002     2.0343006682172466E-005
  -1.6599999999999990E-002     2.1825398503594295E-005
  -1.5499999999999986E-002     2.1677418180905325E-005
  -1.4399999999999996E-002     2.1074359907693792E-005
  -1.3299999999999992E-002     2.0756655962497471E-005
  -1.2199999999999989E-002     2.0186597108740815E-005
  -1.1099999999999985E-002     1.8861589277913528E-005
  -9.9999999999999950E-003     1.7529298595473232E-005
  -8.8999999999999913E-003     1.7266426071052511E-005
  -7.7999999999999875E-003     1.7915050227301289E-005
  -6.6999999999999837E-003     1.8411457473397296E-005
  -5.5999999999999939E-003     1.8437133051086912E-005
  -4.4999999999999901E-003     1.8698496946870742E-005
  -3.3999999999999864E-003     1.9451063564820156E-005
  -2.2999999999999826E-003     1.9786461127582560E-005
  -1.1999999999999927E-003     1.8928038816888213E-005
  -9.9999999999988987E-005     1.7443867574671733E-005
   1.0000000000000148E-003     1.6370712789841291E-005
   2.1000000000000185E-003     1.5623398723947071E-005
   3.2000000000000084E-003     1.4227254300789151E-005
   4.3000000000000121E-003     1.1968360115661688E-005
   5.4000000000000159E-003     9.7908528494211025E-006
   6.5000000000000058E-003     8.3323408034634131E-006
   7.6000000000000234E-003     6.9948266520534715E-006
   8.7000000000000133E-003     5.0386725429913109E-006
   9.8000000000000032E-003     2.8926476740953437E-006
   1.0900000000000021E-002     1.5457044844966578E-006
   1.2000000000000011E-002     1.0079358542071436E-006
   1.3100000000000001E-002     3.1474734941222494E-007
   1.4200000000000018E-002    -9.6164647309358333E-007
   1.5300000000000008E-002    -2.1335079995050119E-006
   1.6400000000000026E-002    -2.6426243254291297E-006
   1.7500000000000016E-002    -3.0889943498777677E-006
   1.8600000000000005E-002    -4.3969760231556240E-006
   1.9700000000000023E-002    -6.4599336065406551E-006
   2.0800000000000013E-002    -8.3555636411856288E-006
   2.1900000000000003E-002    -9.6592900443123763E-006
   2.3000000000000020E-002    -1.0736121589093408E-005
   2.4100000000000010E-002    -1.1724397927282960E-005
   2.5200000000000000E-002    -1.2093145246650774E-005
   2.6300000000000018E-002    -1.1603928700414182E-005
   2.7400000000000008E-002    -1.1051485282662267E-005
   2.8500000000000025E-002    -1.1392258498097509E-005
   2.9600000000000015E-002    -1.2457489320923793E-005
   3.0700000000000005E-002    -1.3207065842652318E-005
   3.1800000000000023E-002    -1.3171099595581917E-005
   3.2900000000000013E-002    -1.2981339073410073E-005
   3.4000000000000002E-002    -1.3357567397009450E-005
   3.5100000000000020E-002    -1.4161826674664096E-005
   3.6200000000000010E-002    -1.4747695776012251E-005
   3.7300000000000028E-002    -1.4753318453233008E-005
   3.8400000000000017E-002    -1.4130055663018630E-005
   3.9500000000000007E-002    -1.2813225902486388E-005
   4.0600000000000025E-002    -1.1016132859785779E-005
   4.1700000000000015E-002    -9.6711704426210725E-006
   4.2800000000000005E-002    -9.7677373413615411E-006
   4.3900000000000022E-002    -1.0974470856235729E-005
   4.5000000000000012E-002    -1.1524223960676173E-005
   4.6100000000000002E-002    -1.0023959545781589E-005
   4.7200000000000020E-002    -7.1593191693293906E-006
   4.8300000000000010E-002    -5.1070309403320737E-006
   4.9400000000000027E-002    -5.2687948200085336E-006
   5.0500000000000017E-002    -6.9312278545926057E-006
   5.1600000000000007E-002    -8.1436480795437992E-006
   5.2700000000000025E-002    -7.5516729023596496E-006
   5.3800000000000014E-002    -5.3550409654712754E-006
   5.4900000000000004E-002    -2.9577395781307707E-006
   5.6000000000000022E-002    -1.9440097598821317E-006
   5.7100000000000012E-002    -2.9568013750996642E-006
   5.8200000000000002E-002    -5.0103319782931029E-006
   5.9300000000000019E-002    -6.0005445926223511E-006
   6.0400000000000009E-002    -4.4996255074122767E-006
   6.1500000000000027E-002    -1.3387295096809414E-006
   6.2600000000000017E-002     8.8735653837462305E-007
   6.3700000000000007E-002     2.4472805206783471E-007
   6.4800000000000024E-002    -2.6118034429405951E-006
   6.5900000000000014E-002    -5.0468423572885790E-006
   6.7000000000000004E-002    -4.8992153535313486E-006
   6.8100000000000022E-002    -2.2705556472704132E-006
   6.9200000000000012E-002     8.6286319954803015E-007
   7.0300000000000029E-002     2.4625929017701786E-006
   7.1400000000000019E-002     1.9357526252953237E-006
   7.2500000000000009E-002     3.4567078320949955E-007
   7.3600000000000027E-002    -5.5813059740359567E-007
   7.4700000000000016E-002     2.4616316373167528E-007
   7.5800000000000006E-002     2.1784520895107894E-006
   7.6900000000000024E-002     3.5050043880685975E-006
   7.8000000000000014E-002     2.9023008067119811E-006
   7.9100000000000004E-002     7.4568474846122094E-007
   8.0200000000000021E-002    -1.2135159606142909E-006
   8.1300000000000011E-002    -1.5112648225795958E-006
   8.2400000000000029E-002    -2.4948548883730709E-007
   8.3500000000000019E-002     1.2714788671938927E-006
   8.4600000000000009E-002     1.9741743304169964E-006
   8.5700000000000026E-002     1.8564613509317944E-006
   8.6800000000000016E-002     1.5430922291347758E-006
   8.7900000000000006E-002     1.3478700981211528E-006
   8.9000000000000024E-002     1.0114971287122812E-006
   9.0100000000000013E-002     2.6800827102948252E-007
   9.1200000000000003E-002    -5.9667883581304080E-007
   9.2300000000000021E-002    -9.1867467349736432E-007
   9.3400000000000011E-002    -3.9630517411057364E-007
   9.4500000000000028E-002     4.0086833931974252E-007
   9.5600000000000018E-002     3.5502840460733290E-007
   9.6700000000000008E-002    -1.2134769314324681E-006
   9.7800000000000026E-002    -3.7390743883747420E-006
   9.8900000000000016E-002    -5.6245913062414644E-006
  0.10000000000000001         -5.5162812577174463E-006
  0.10110000000000002         -3.6366348707398203E-006
  0.10220000000000001         -1.8654378589340028E-006
  0.10330000000000003         -2.2249735596810714E-006
  0.10440000000000002         -4.9754573593528833E-006
  0.10550000000000001         -8.1446212546014350E-006
  0.10660000000000003         -9.1541233375045712E-006
  0.10770000000000002         -7.1916585574114840E-006
  0.10880000000000001         -4.1018455650525265E-006
  0.10990000000000003         -2.8492951405929270E-006
  0.11100000000000002         -4.8903786869689513E-006
  0.11210000000000001         -8.8383378684299288E-006
  0.11320000000000002         -1.1605418134433248E-005
  0.11430000000000001         -1.0972265032601892E-005
  0.11540000000000003         -7.3708045961878041E-006
  0.11650000000000002         -3.4704047555501676E-006
  0.11760000000000001         -2.0117856617403148E-006
  0.11870000000000003         -3.6608776594860507E-006
  0.11980000000000002         -6.5623477615352221E-006
  0.12090000000000001         -7.9367170600192990E-006
  0.12200000000000003         -6.4305909676084041E-006
  0.12310000000000001         -3.2307062488540032E-006
  0.12420000000000003         -9.3214120411544117E-007
  0.12530000000000002         -1.1696366519613763E-006
  0.12640000000000001         -3.2200851131946088E-006
  0.12750000000000003         -4.8449436053875621E-006
  0.12860000000000002         -4.4229144903789230E-006
  0.12970000000000001         -2.2493749163099235E-006
  0.13080000000000003          7.1864976750523821E-008
  0.13190000000000002          1.2482013183275943E-006
  0.13300000000000001          1.2818808253834600E-006
  0.13410000000000000          1.1357523801151684E-006
  0.13520000000000004          1.7090882225381955E-006
  0.13630000000000003          3.1104243063252392E-006
  0.13740000000000002          4.6958098909865588E-006
  0.13850000000000001          5.7066005689013753E-006
  0.13960000000000000          5.9632855092614393E-006
  0.14070000000000005          6.0040615606611017E-006
  0.14180000000000004          6.4689379660463538E-006
  0.14290000000000003          7.3168024413301657E-006
  0.14400000000000002          7.8079118058813833E-006
  0.14510000000000001          7.4176074492417730E-006
  0.14620000000000000          6.6683190435327065E-006
  0.14730000000000004          6.7939441803162076E-006
  0.14840000000000003          8.4752600410075557E-006
  0.14950000000000002          1.1033584468151802E-005
  0.15060000000000001          1.2982645983025567E-005
  0.15170000000000000          1.3330003269117191E-005
  0.15280000000000005          1.2329263442778792E-005
  0.15390000000000004          1.1143251517151966E-005
  0.15500000000000003          1.0928863427093929E-005
  0.15610000000000002          1.2074099362815766E-005
  0.15720000000000001          1.3949111299030699E-005
  0.15830000000000000          1.5284285925830360E-005
  0.15940000000000004          1.5092634387382602E-005
  0.16050000000000003          1.3563217555990521E-005
  0.16160000000000002          1.2049576178259407E-005
  0.16270000000000001          1.1940425988861262E-005
  0.16380000000000000          1.3401452533922298E-005
  0.16490000000000005          1.5245770356341835E-005
  0.16600000000000004          1.6027839702019564E-005
  0.16710000000000003          1.5211554229663278E-005
  0.16820000000000002          1.3386761276234282E-005
  0.16930000000000001          1.1634452639354159E-005
  0.17040000000000000          1.0785129360709660E-005
  0.17150000000000004          1.0994521526915495E-005
  0.17260000000000003          1.1648638199992576E-005
  0.17370000000000002          1.1669021688683008E-005
  0.17480000000000001          1.0265937090133976E-005
  0.17590000000000000          7.6609835956323557E-006
  0.17700000000000005          5.0029996087318115E-006
  0.17810000000000004          3.3962232077100523E-006
  0.17920000000000003          2.9790352264606507E-006
  0.18030000000000002          2.9708889960271636E-006
  0.18140000000000001          2.4972767200248647E-006
  0.18250000000000000          1.2417235047844279E-006
  0.18360000000000004         -5.6594767035438617E-007
  0.18470000000000003         -2.4762682160998646E-006
  0.18580000000000002         -4.0440580722038354E-006
  0.18690000000000001         -5.0064954031810421E-006
  0.18800000000000000         -5.5139539104737904E-006
  0.18910000000000005         -6.1162572701105907E-006
  0.19020000000000004         -7.2792391106592605E-006
  0.19130000000000003         -8.8783605575820602E-006
  0.19240000000000002         -1.0338137892646176E-005
  0.19350000000000001         -1.1311985844705336E-005
  0.19460000000000005         -1.2043199570518551E-005
  0.19570000000000004         -1.2954747425557154E-005
  0.19680000000000003         -1.4060239821777892E-005
  0.19790000000000002         -1.4986024890315410E-005
  0.19900000000000001         -1.5497384649557219E-005
  0.20010000000000000         -1.5760554291057868E-005
  0.20120000000000005         -1.6039048610200250E-005
  0.20230000000000004         -1.6320713263582016E-005
  0.20340000000000003         -1.6350335695184979E-005
  0.20450000000000002         -1.5907437028268058E-005
  0.20560000000000000         -1.4957628516191687E-005
  0.20670000000000005         -1.3675419561478151E-005
  0.20780000000000004         -1.2485339890681918E-005
  0.20890000000000003         -1.1951021617387426E-005
  0.21000000000000002         -1.2308631015544787E-005
  0.21110000000000001         -1.3022627900071670E-005
  0.21220000000000000         -1.3048900746874875E-005
  0.21330000000000005         -1.1769464370737481E-005
  0.21440000000000003         -9.6218136082526100E-006
  0.21550000000000002         -7.6644038382699193E-006
  0.21660000000000001         -6.5590460180622748E-006
  0.21770000000000000         -6.0987275542499174E-006
  0.21880000000000005         -5.6495093724343343E-006
  0.21990000000000004         -4.8119082386732667E-006
  0.22100000000000003         -3.6052367018289580E-006
  0.22210000000000002         -2.2669420458686757E-006
  0.22320000000000001         -1.0914289027276177E-006
  0.22430000000000000         -3.4335988404698124E-007
  0.22540000000000004         -6.1796206750675312E-008
  0.22650000000000003          8.1742632798742813E-008
  0.22760000000000002          5.3455914522800122E-007
  0.22870000000000001          1.3850088354513333E-006
  0.22980000000000000          2.2565448272247492E-006
  0.23090000000000005          2.7493540651095646E-006
  0.23200000000000004          2.8507383619714936E-006
  0.23310000000000003          2.7975277781085435E-006
  0.23420000000000002          2.6884142542914723E-006
  0.23530000000000001          2.4705007424749524E-006
  0.23640000000000000          2.2687760985125681E-006
  0.23750000000000004          2.4345906099428159E-006
  0.23860000000000003          3.1099617291460076E-006
  0.23970000000000002          3.8972939891724704E-006
  0.24080000000000001          4.1539241795982050E-006
  0.24190000000000000          3.5870253123102089E-006
  0.24300000000000005          2.4549227743712095E-006
  0.24410000000000004          1.2593441225607448E-006
  0.24520000000000003          4.0192823093712637E-007
  0.24630000000000002          8.3085484851272732E-008
  0.24740000000000001          2.6358883895061561E-007
  0.24850000000000005          6.0301741929367624E-007
  0.24960000000000004          6.4006024015602410E-007
  0.25070000000000003          2.6561105326407080E-007
  0.25180000000000002         -4.5845795390881826E-008
  0.25290000000000001          2.9899605809623555E-007
  0.25400000000000000          1.2804928585074252E-006
  0.25510000000000005          2.1735302213221273E-006
  0.25620000000000004          2.2728524576351744E-006
  0.25730000000000003          1.5966191164073631E-006
  0.25840000000000002          7.9223951721575867E-007
  0.25950000000000001          4.7353044706139105E-007
  0.26060000000000005          7.8125388465851692E-007
  0.26170000000000004          1.4771905370033550E-006
  0.26280000000000003          2.2281811317354782E-006
  0.26390000000000002          2.7694261381602305E-006
  0.26500000000000001          3.0060601574630357E-006
  0.26610000000000000          3.0990137816720167E-006
  0.26720000000000005          3.3473556945047545E-006
  0.26830000000000004          3.8459298725784014E-006
  0.26940000000000003          4.3125962958632848E-006
  0.27050000000000002          4.3857399850119117E-006
  0.27160000000000001          4.0646327377047607E-006
  0.27270000000000005          3.7169475334951504E-006
  0.27380000000000004          3.6522081606611104E-006
  0.27490000000000003          3.8472729857025572E-006
  0.27600000000000002          4.1433120640724903E-006
  0.27710000000000001          4.5320549074867231E-006
  0.27820000000000000          5.0780704012805028E-006
  0.27930000000000005          5.6522567891097305E-006
  0.28040000000000004          5.9731302319631448E-006
  0.28150000000000003          5.9656982782344437E-006
  0.28260000000000002          5.9168177934828235E-006
  0.28370000000000001          6.1538666096399588E-006
  0.28480000000000005          6.6358480377252276E-006
  0.28590000000000004          6.9659395459082491E-006
  0.28700000000000003          6.7892329019557157E-006
  0.28810000000000002          6.1181664577004318E-006
  0.28920000000000001          5.3108835168235737E-006
  0.29030000000000000          4.8163986998142009E-006
  0.29140000000000005          4.8935809455102398E-006
  0.29250000000000004          5.4158313057116477E-006
  0.29360000000000003          5.8860718153742355E-006
  0.29470000000000002          5.7746349026043702E-006
  0.29580000000000001          5.0045201072296589E-006
  0.29690000000000005          4.1092836145364758E-006
  0.29800000000000004          3.7976886254057396E-006
  0.29910000000000003          4.2886936713307271E-006
  0.30020000000000002          5.0876634893140396E-006
  0.30130000000000001          5.4341269131138437E-006
  0.30240000000000000          4.9577454582709179E-006
  0.30350000000000005          3.9195814044382256E-006
  0.30460000000000004          2.8943492882011217E-006
  0.30570000000000003          2.2709395845601566E-006
  0.30680000000000002          2.0121026144604201E-006
  0.30790000000000001          1.7971659236823694E-006
  0.30900000000000005          1.3512091049272155E-006
  0.31010000000000004          6.7040910387685196E-007
  0.31120000000000003         -2.1597369798584377E-008
  0.31230000000000002         -5.2274646217563003E-007
  0.31340000000000001         -8.6915532224423730E-007
  0.31450000000000006         -1.3073173133656529E-006
  0.31560000000000005         -2.0395549795351319E-006
  0.31670000000000004         -2.9973455147092628E-006
  0.31780000000000003         -3.9005683080312769E-006
  0.31890000000000002         -4.5845580360937699E-006
  0.32000000000000001         -5.2569428776031476E-006
  0.32110000000000005         -6.3357184412788530E-006
  0.32220000000000004         -7.9340136621851754E-006
  0.32330000000000003         -9.5345824331018094E-006
  0.32440000000000002         -1.0344546446685232E-005
  0.32550000000000001         -1.0115972724723788E-005
  0.32660000000000006         -9.5731308452986510E-006
  0.32770000000000005         -9.8552678589439754E-006
  0.32880000000000004         -1.1427788231517869E-005
  0.32990000000000003         -1.3570611820470013E-005
  0.33100000000000002         -1.4997674007058816E-005
  0.33210000000000001         -1.4997036747396676E-005
  0.33320000000000005         -1.4012861339658331E-005
  0.33430000000000004         -1.3223217636595844E-005
  0.33540000000000003         -1.3572959151526647E-005
  0.33650000000000002         -1.5038647182077122E-005
  0.33760000000000001         -1.6631479443840014E-005
  0.33870000000000006         -1.7168168625689172E-005
  0.33980000000000005         -1.6301465623351865E-005
  0.34090000000000004         -1.4916549240770829E-005
  0.34200000000000003         -1.4344755624859460E-005
  0.34310000000000002         -1.5007762876110414E-005
  0.34420000000000001         -1.5922860953879398E-005
  0.34530000000000005         -1.5732598801554204E-005
  0.34640000000000004         -1.4182958877497322E-005
  0.34750000000000003         -1.2379092199878020E-005
  0.34860000000000002         -1.1565547417949134E-005
  0.34970000000000001         -1.1874626906488678E-005
  0.35080000000000006         -1.2367059560122837E-005
  0.35190000000000005         -1.2087630208060848E-005
  0.35300000000000004         -1.0898091930477570E-005
  0.35410000000000003         -9.4402939337708686E-006
  0.35520000000000002         -8.5354898299844608E-006
  0.35630000000000001         -8.5161852910941790E-006
  0.35740000000000005         -8.8227828416082878E-006
  0.35850000000000004         -8.2703115452022614E-006
  0.35960000000000003         -6.1377304181903128E-006
  0.36070000000000002         -3.2211320426699585E-006
  0.36180000000000001         -1.4634616610588783E-006
  0.36290000000000006         -2.0899814112911150E-006
  0.36400000000000005         -4.1641144450432955E-006
  0.36510000000000004         -5.3782568945399220E-006
  0.36620000000000003         -4.3710080180587945E-006
  0.36730000000000002         -2.0076450404461085E-006
  0.36840000000000006         -3.1353026872145835E-007
  0.36950000000000005         -4.4902440863941150E-007
  0.37060000000000004         -1.8477981887921724E-006
  0.37170000000000003         -2.9484134710738035E-006
  0.37280000000000002         -2.4320565689231160E-006
  0.37390000000000001         -8.4819658197285373E-008
  0.37500000000000006          2.9272560103826126E-006
  0.37610000000000005          4.6372328414947471E-006
  0.37720000000000004          3.8058100016870092E-006
  0.37830000000000003          1.2890974277326100E-006
  0.37940000000000002         -4.5871370885192087E-007
  0.38050000000000006          2.9047729200424471E-007
  0.38160000000000005          2.8022181798810269E-006
  0.38270000000000004          4.7626029651531279E-006
  0.38380000000000003          4.7349822604552912E-006
  0.38490000000000002          3.3527059931707484E-006
  0.38600000000000001          2.2322619203326600E-006
  0.38710000000000000          2.3391873095831195E-006
  0.38819999999999999          3.5716006666788142E-006
  0.38930000000000009          5.2728808188336825E-006
  0.39040000000000008          6.5971361696847450E-006
  0.39150000000000007          6.7745084559251226E-006
  0.39260000000000006          5.7828625978118301E-006
  0.39370000000000005          4.7601051966869481E-006
  0.39480000000000004          5.0808758630044911E-006
  0.39590000000000003          6.7767608021859576E-006
  0.39700000000000002          8.3566604912596663E-006
  0.39810000000000001          8.4943244319816633E-006
  0.39920000000000000          7.4661150053551462E-006
  0.40029999999999999          6.5343474370953042E-006
  0.40140000000000009          6.3481414884274611E-006
  0.40250000000000008          6.5965206964369114E-006
  0.40360000000000007          6.9848887280344967E-006
  0.40470000000000006          7.6568379643441090E-006
  0.40580000000000005          8.4509612276306560E-006
  0.40690000000000004          8.5701757140949205E-006
  0.40800000000000003          7.6127620733262044E-006
  0.40910000000000002          6.4690273061766834E-006
  0.41020000000000001          6.4551606038036309E-006
  0.41130000000000000          7.6789867419884686E-006
  0.41239999999999999          8.9063479207340378E-006
  0.41350000000000009          9.0563922388826120E-006
  0.41460000000000008          8.2162815052828604E-006
  0.41570000000000007          7.0859108825782309E-006
  0.41680000000000006          6.1402592212098377E-006
  0.41790000000000005          5.7065720457814199E-006
  0.41900000000000004          6.1549887149541156E-006
  0.42010000000000003          7.2396023582279971E-006
  0.42120000000000002          7.6480245804483185E-006
  0.42230000000000001          6.2181381852407570E-006
  0.42340000000000000          3.7139867258522536E-006
  0.42449999999999999          2.4905653237323371E-006
  0.42560000000000009          3.8955166298884625E-006
  0.42670000000000008          6.5738363795134235E-006
  0.42780000000000007          7.9222353299048919E-006
  0.42890000000000006          6.8485663900535369E-006
  0.43000000000000005          4.5155470034199290E-006
  0.43110000000000004          2.7120831320457458E-006
  0.43220000000000003          2.2992009905429612E-006
  0.43330000000000002          3.1323129942076289E-006
  0.43440000000000001          4.4728888334719664E-006
  0.43550000000000000          5.0782590959839674E-006
  0.43659999999999999          3.7876575964901289E-006
  0.43770000000000009          8.8982261536670504E-007
  0.43880000000000008         -1.5110130756466102E-006
  0.43990000000000007         -1.4506594687509916E-006
  0.44100000000000006          5.4919356035919290E-007
  0.44210000000000005          1.8565354043727301E-006
  0.44320000000000004          6.3751168454803187E-007
  0.44430000000000003         -2.2584087412557037E-006
  0.44540000000000002         -4.5658732205744328E-006
  0.44650000000000001         -5.0410445565324559E-006
  0.44760000000000000         -4.1276385636982460E-006
  0.44869999999999999         -2.8758107130224869E-006
  0.44980000000000009         -2.1401728109028386E-006
  0.45090000000000008         -2.5886361472501077E-006
  0.45200000000000007         -4.3796945255253952E-006
  0.45310000000000006         -6.5014565001906329E-006
  0.45420000000000005         -7.2970151418496828E-006
  0.45530000000000004         -6.2860164217529418E-006
  0.45640000000000003         -4.9625084789487091E-006
  0.45750000000000002         -5.1253490521802557E-006
  0.45860000000000001         -6.7481586574781843E-006
  0.45970000000000000         -8.2129777280091324E-006
  0.46079999999999999         -8.4364583044874446E-006
  0.46190000000000009         -7.8801359952875808E-006
  0.46300000000000008         -7.3802830115953606E-006
  0.46410000000000007         -6.9630755958653093E-006
  0.46520000000000006         -6.3798781755256397E-006
  0.46630000000000005         -6.0623589727698145E-006
  0.46740000000000004         -6.6107491349085587E-006
  0.46850000000000003         -7.5855991222038637E-006
  0.46960000000000002         -7.7328808904081564E-006
  0.47070000000000001         -6.5433111190269118E-006
  0.47180000000000000         -4.8792958892825903E-006
  0.47289999999999999         -3.8110619468959580E-006
  0.47400000000000009         -3.4628408242275334E-006
  0.47510000000000008         -3.3631125462273441E-006
  0.47620000000000007         -3.2846916360426250E-006
  0.47730000000000006         -3.0889603307042557E-006
  0.47840000000000005         -2.2168436447819910E-006