 -0.12000000000000000          0.0000000000000000     
 -0.11889999999999999         -2.5620533551341615E-014
 -0.11780000000000000         -6.9455944123342315E-014
 -0.11670000000000000         -1.1924169501385407E-013
 -0.11559999999999999         -1.6365480963445626E-013
 -0.11449999999999999         -1.9668509335609892E-013
 -0.11340000000000000         -2.1839204703109443E-013
 -0.11230000000000000         -2.3233209764604515E-013
 -0.11119999999999999         -2.4196397091624777E-013
 -0.11009999999999999         -2.4859680294519353E-013
 -0.10900000000000000         -2.5192509610997124E-013
 -0.10790000000000000         -2.5213216664669689E-013
 -0.10679999999999999         -2.5146365049423573E-013
 -0.10569999999999999         -2.5377986879164452E-013
 -0.10460000000000000         -2.6231297118070978E-013
 -0.10349999999999999         -2.7732332589856818E-013
 -0.10239999999999999         -2.9547052267333385E-013
 -0.10130000000000000         -3.1145020902592475E-013
 -0.10020000000000000         -3.2079534160367098E-013
  -9.9099999999999994E-002    -3.2194045238604604E-013
  -9.7999999999999990E-002    -3.1625524398228027E-013
  -9.6899999999999986E-002    -3.0625563932599838E-013
  -9.5799999999999996E-002    -2.9345580148693989E-013
  -9.4699999999999993E-002    -2.7743534566132305E-013
  -9.3599999999999989E-002    -2.5666061904105357E-013
  -9.2499999999999999E-002    -2.3025850941720496E-013
  -9.1399999999999995E-002    -1.9929943829032775E-013
  -9.0299999999999991E-002    -1.6661773334785007E-013
  -8.9200000000000002E-002    -1.3534309976872838E-013
  -8.8099999999999984E-002    -1.0723243833998855E-013
  -8.6999999999999994E-002    -8.1925651290047183E-014
  -8.5899999999999990E-002    -5.7469820741136500E-014
  -8.4799999999999986E-002    -3.1534863030104883E-014
  -8.3699999999999997E-002    -2.3885840481081592E-015
  -8.2599999999999993E-002     3.0895852588505389E-014
  -8.1499999999999989E-002     6.8788184244194747E-014
  -8.0399999999999999E-002     1.1157013124266198E-013
  -7.9299999999999995E-002     1.5910999841270464E-013
  -7.8199999999999992E-002     2.1034189950359384E-013
  -7.7100000000000002E-002     2.6307411356703402E-013
  -7.5999999999999984E-002     3.1457718666603842E-013
  -7.4899999999999994E-002     3.6275018340212821E-013
  -7.3799999999999991E-002     4.0708796921406546E-013
  -7.2699999999999987E-002     4.4869258172404932E-013
  -7.1599999999999997E-002     4.8923464750610941E-013
  -7.0499999999999993E-002     5.2957298502002744E-013
  -6.9399999999999989E-002     5.6904221149280707E-013
  -6.8300000000000000E-002     6.0594468901405629E-013
  -6.7199999999999996E-002     6.3887402585707350E-013
  -6.6099999999999992E-002     6.6785362880243023E-013
  -6.5000000000000002E-002     6.9439877222220709E-013
  -6.3899999999999985E-002     7.2042343047277136E-013
  -6.2799999999999995E-002     7.4678973370321336E-013
  -6.1699999999999991E-002     7.7256488717068325E-013
  -6.0599999999999994E-002     7.9550532098045560E-013
  -5.9499999999999990E-002     8.1336541171600340E-013
  -5.8399999999999994E-002     8.2504445267763830E-013
  -5.7299999999999990E-002     8.3078268101350263E-013
  -5.6199999999999986E-002     8.3141414856122288E-013
  -5.5099999999999996E-002     8.2742613556958868E-013
  -5.3999999999999992E-002     8.1866922605159237E-013
  -5.2899999999999989E-002     8.0494289534241341E-013
  -5.1799999999999985E-002     7.8687735922373446E-013
  -5.0699999999999995E-002     7.6621682774499818E-013
  -4.9599999999999991E-002     7.4507300054687926E-013
  -4.8499999999999988E-002     7.2459650717249921E-013
  -4.7399999999999998E-002     7.0408998091867395E-013
  -4.6299999999999994E-002     6.8135155902551873E-013
  -4.5199999999999990E-002     6.5412912252490482E-013
  -4.4099999999999986E-002     6.2167980626617922E-013
  -4.2999999999999997E-002     5.8527782524198331E-013
  -4.1899999999999993E-002     5.4726556408577007E-013
  -4.0799999999999989E-002     5.0934844100692384E-013
  -3.9699999999999985E-002     4.7144178272336082E-013
  -3.8599999999999995E-002     4.3198989472500012E-013
  -3.7499999999999992E-002     3.8955578407672798E-013
  -3.6399999999999988E-002     3.4447009529402909E-013
  -3.5299999999999984E-002     2.9921866982917454E-013
  -3.4199999999999994E-002     2.5715869221125316E-013
  -3.3099999999999991E-002     2.2041927313793836E-013
  -3.1999999999999987E-002     1.8850535588510919E-013
  -3.0899999999999997E-002     1.5866193547216126E-013
  -2.9799999999999993E-002     1.2778745461194416E-013
  -2.8699999999999989E-002     9.4548824541426108E-014
  -2.7599999999999986E-002     6.0196594872256219E-014
  -2.6499999999999996E-002     2.7531616591263627E-014
  -2.5399999999999992E-002    -1.1718646882409128E-015
  -2.4299999999999988E-002    -2.5734116967588127E-014
  -2.3199999999999985E-002    -4.7987157381011430E-014
  -2.2099999999999995E-002    -7.0152951071150560E-014
  -2.0999999999999991E-002    -9.2946777543903404E-014
  -1.9899999999999987E-002    -1.1486139004455435E-013
  -1.8799999999999983E-002    -1.3318516183826522E-013
  -1.7699999999999994E-002    -1.4599886484540041E-013
  -1.6599999999999990E-002    -1.5366350348815763E-013
  -1.5499999999999986E-002    -1.5869583052780151E-013
  -1.4399999999999996E-002    -1.6412719594173241E-013
  -1.3299999999999992E-002    -1.7155149479892206E-013
  -1.2199999999999989E-002    -1.8026937449502496E-013
  -1.1099999999999985E-002    -1.8810009393119032E-013
  -9.9999999999999950E-003    -1.9320225340536656E-013
  -8.8999999999999913E-003    -1.9553794627219899E-013
  -7.7999999999999875E-003    -1.9693249556362581E-013
  -6.6999999999999837E-003    -1.9975154535933902E-013
  -5.5999999999999939E-003    -2.0522270413010290E-013
  -4.4999999999999901E-003    -2.1263363059484435E-013
  -3.3999999999999864E-003    -2.1993342727491989E-013
  -2.2999999999999826E-003    -2.2521588013210596E-013
  -1.1999999999999927E-003    -2.2796506881817774E-013
  -9.9999999999988987E-005    -2.2920838816537014E-013
   1.0000000000000148E-003    -2.3059579360776698E-013
   2.1000000000000185E-003    -2.3321140398276052E-013
   3.2000000000000084E-003    -2.3703685172917318E-013
   4.3000000000000121E-003    -2.4138724719425478E-013
   5.4000000000000159E-003    -2.4583816900295873E-013
   6.5000000000000058E-003    -2.5079641392738370E-013
   7.6000000000000234E-003    -2.5720381323737657E-013
   8.7000000000000133E-003    -2.6560613056486939E-013
   9.8000000000000032E-003    -2.7536361716886260E-013
   1.0900000000000021E-002    -2.8469168051770305E-013
   1.2000000000000011E-002    -2.9157842042560953E-013
   1.3100000000000001E-002    -2.9493989841229477E-013
   1.4200000000000018E-002    -2.9518059455262697E-013
   1.5300000000000008E-002    -2.9376931329814298E-013
   1.6400000000000026E-002    -2.9216789577654994E-013
   1.7500000000000016E-002    -2.9090264092299173E-013
   1.8600000000000005E-002    -2.8941219069893162E-013
   1.9700000000000023E-002    -2.8668688959994201E-013
   2.0800000000000013E-002    -2.8212549658870842E-013
   2.1900000000000003E-002    -2.7592443659297398E-013
   2.3000000000000020E-002    -2.6873877207631682E-013
   2.4100000000000010E-002    -2.6095455967565155E-013
   2.5200000000000000E-002    -2.5220850243512287E-013
   2.6300000000000018E-002    -2.4156160106708217E-013
   2.7400000000000008E-002    -2.2818303266309770E-013
   2.8500000000000025E-002    -2.1198284764457781E-013
   2.9600000000000015E-002    -1.9367766477500889E-013
   3.0700000000000005E-002    -1.7424009857967473E-013
   3.1800000000000023E-002    -1.5418410576269609E-013
   3.2900000000000013E-002    -1.3327137103471029E-013
   3.4000000000000002E-002    -1.1088197892203515E-013
   3.5100000000000020E-002    -8.6752173427263667E-014
   3.6200000000000010E-002    -6.1476368541061473E-014
   3.7300000000000028E-002    -3.6345109645743174E-014
   3.8400000000000017E-002    -1.2608124669058783E-014
   3.9500000000000007E-002     9.2946142044131717E-015
   4.0600000000000025E-002     2.9957518302852888E-014
   4.1700000000000015E-002     5.0523853231557840E-014
   4.2800000000000005E-002     7.1857216463146806E-014
   4.3900000000000022E-002     9.3979780781956955E-014
   4.5000000000000012E-002     1.1615960758252825E-013
   4.6100000000000002E-002     1.3751968142320480E-013
   4.7200000000000020E-002     1.5765187381436598E-013
   4.8300000000000010E-002     1.7674763277402449E-013
   4.9400000000000027E-002     1.9516761701095465E-013
   5.0500000000000017E-002     2.1283135242512903E-013
   5.1600000000000007E-002     2.2895121774062624E-013
   5.2700000000000025E-002     2.4235802004208566E-013
   5.3800000000000014E-002     2.5219410486923079E-013
   5.4900000000000004E-002     2.5845853398410562E-013
   5.6000000000000022E-002     2.6200414288776424E-013
   5.7100000000000012E-002     2.6400512586274758E-013
   5.8200000000000002E-002     2.6530300915257824E-013
   5.9300000000000019E-002     2.6609612002173731E-013
   6.0400000000000009E-002     2.6613198789294051E-013
   6.1500000000000027E-002     2.6515544022797370E-013
   6.2600000000000017E-002     2.6318604640773833E-013
   6.3700000000000007E-002     2.6038642176847658E-013
   6.4800000000000024E-002     2.5666979097311665E-013
   6.5900000000000014E-002     2.5145193833938603E-013
   6.7000000000000004E-002     2.4385481871710591E-013
   6.8100000000000022E-002     2.3328995636328536E-013
   6.9200000000000012E-002     2.1999627780961118E-013
   7.0300000000000029E-002     2.0508055846975794E-013
   7.1400000000000019E-002     1.8995497505532465E-013
   7.2500000000000009E-002     1.7552687257546711E-013
   7.3600000000000027E-002     1.6171105218165986E-013
   7.4700000000000016E-002     1.4762359333734114E-013
   7.5800000000000006E-002     1.3232522208773284E-013
   7.6900000000000024E-002     1.1557963420587679E-013
   7.8000000000000014E-002     9.8085155908055601E-014
   7.9100000000000004E-002     8.1032072380383606E-014
   8.0200000000000021E-002     6.5334833925447380E-014
   8.1300000000000011E-002     5.1111392345233525E-014
   8.2400000000000029E-002     3.7769073985155174E-014
   8.3500000000000019E-002     2.4580950570228680E-014
   8.4600000000000009E-002     1.1270949490859312E-014
   8.5700000000000026E-002    -1.8500670492445523E-015
   8.6800000000000016E-002    -1.4270321547815965E-014
   8.7900000000000006E-002    -2.5824564147723194E-014
   8.9000000000000024E-002    -3.6907292906925671E-014
   9.0100000000000013E-002    -4.8129399355116919E-014
   9.1200000000000003E-002    -5.9662044838758370E-014
   9.2300000000000021E-002    -7.0798509515377138E-014
   9.3400000000000011E-002    -8.0136565196140981E-014
   9.4500000000000028E-002    -8.6327352484479790E-014
   9.5600000000000018E-002    -8.8898977318672725E-014
   9.6700000000000008E-002    -8.8582807370897942E-014
   9.7800000000000026E-002    -8.6915667721032727E-014
   9.8900000000000016E-002    -8.5405033320390976E-014
  0.10000000000000001         -8.4839406384566120E-014
  0.10110000000000002         -8.5184029858405554E-014
  0.10220000000000001         -8.6038308644696316E-014
  0.10330000000000003         -8.7207616430821807E-014
  0.10440000000000002         -8.8885490157488650E-014
  0.10550000000000001         -9.1293374375664872E-014
  0.10660000000000003         -9.4104791453492229E-014
  0.10770000000000002         -9.6206505029609906E-014
  0.10880000000000001         -9.6128175872330628E-014
  0.10990000000000003         -9.2957578602822863E-014
  0.11100000000000002         -8.7136777390221496E-014
  0.11210000000000001         -8.0537126687694735E-014
  0.11320000000000002         -7.5661469215406217E-014
  0.11430000000000001         -7.4411701702820552E-014
  0.11540000000000003         -7.7170996530427105E-014
  0.11650000000000002         -8.2757374905415065E-014
  0.11760000000000001         -8.9240447639653212E-014
  0.11870000000000003         -9.5066198933898368E-014
  0.11980000000000002         -9.9775619347904022E-014
  0.12090000000000001         -1.0392208952679107E-013
  0.12200000000000003         -1.0834908989803238E-013
  0.12310000000000001         -1.1339408295725168E-013
  0.12420000000000003         -1.1857560445359908E-013
  0.12530000000000002         -1.2293765553893624E-013
  0.12640000000000001         -1.2575961626699729E-013
  0.12750000000000003         -1.2711250396760241E-013
  0.12860000000000002         -1.2788510056299354E-013
  0.12970000000000001         -1.2928270534443156E-013
  0.13080000000000003         -1.3214033855033573E-013
  0.13190000000000002         -1.3647227316746715E-013
  0.13300000000000001         -1.4148387613392773E-013
  0.13410000000000000         -1.4596825154627959E-013
  0.13520000000000004         -1.4881006739280183E-013
  0.13630000000000003         -1.4932992424213720E-013
  0.13740000000000002         -1.4736796167130646E-013
  0.13850000000000001         -1.4318062723480620E-013
  0.13960000000000000         -1.3728971852744980E-013
  0.14070000000000005         -1.3036891138639463E-013
  0.14180000000000004         -1.2315849993353832E-013
  0.14290000000000003         -1.1635575096289088E-013
  0.14400000000000002         -1.1046226982415943E-013
  0.14510000000000001         -1.0563685106530410E-013
  0.14620000000000000         -1.0163373547792355E-013
  0.14730000000000004         -9.7874082444808512E-014
  0.14840000000000003         -9.3630513842620807E-014
  0.14950000000000002         -8.8254245467045139E-014
  0.15060000000000001         -8.1371393811344103E-014
  0.15170000000000000         -7.3004782595164076E-014
  0.15280000000000005         -6.3604106456960535E-014
  0.15390000000000004         -5.3972688662700165E-014
  0.15500000000000003         -4.5081185238355083E-014
  0.15610000000000002         -3.7786114103260518E-014
  0.15720000000000001         -3.2529298197941623E-014
  0.15830000000000000         -2.9143245664363558E-014
  0.15940000000000004         -2.6874848485744171E-014
  0.16050000000000003         -2.4647141265474428E-014
  0.16160000000000002         -2.1451367768103731E-014
  0.16270000000000001         -1.6683919998900030E-014
  0.16380000000000000         -1.0275119708170418E-014
  0.16490000000000005         -2.5843680351712887E-015
  0.16600000000000004          5.8280231781326982E-015
  0.16710000000000003          1.4393360917314743E-014
  0.16820000000000002          2.2601756292233887E-014
  0.16930000000000001          2.9981175453569208E-014
  0.17040000000000000          3.6104979310642234E-014
  0.17150000000000004          4.0709883893383378E-014
  0.17260000000000003          4.3885105873649828E-014
  0.17370000000000002          4.6188014829634110E-014
  0.17480000000000001          4.8547511123712202E-014
  0.17590000000000000          5.1943562354763005E-014
  0.17700000000000005          5.7010893372662547E-014
  0.17810000000000004          6.3784553763104371E-014
  0.17920000000000003          7.1726170138771787E-014
  0.18030000000000002          7.9994453355140744E-014
  0.18140000000000001          8.7779015372428869E-014
  0.18250000000000000          9.4506063983911650E-014
  0.18360000000000004          9.9848788526561236E-014
  0.18470000000000003          1.0363155584396011E-013
  0.18580000000000002          1.0578149909106573E-013
  0.18690000000000001          1.0640621504137701E-013
  0.18800000000000000          1.0592991445821430E-013
  0.18910000000000005          1.0512944745188122E-013
  0.19020000000000004          1.0495903523528883E-013
  0.19130000000000003          1.0620855268385045E-013
  0.19240000000000002          1.0918178244384925E-013
  0.19350000000000001          1.1359182519350101E-013
  0.19460000000000005          1.1873326957848811E-013
  0.19570000000000004          1.2380632511786539E-013
  0.19680000000000003          1.2817847956182519E-013
  0.19790000000000002          1.3144201674693087E-013
  0.19900000000000001          1.3330359197170116E-013
  0.20010000000000000          1.3347880425520172E-013
  0.20120000000000005          1.3175010800460922E-013
  0.20230000000000004          1.2818744776876532E-013
  0.20340000000000003          1.2335787271788573E-013
  0.20450000000000002          1.1830921364456387E-013
  0.20560000000000000          1.1425028573898666E-013
  0.20670000000000005          1.1207070797457723E-013
  0.20780000000000004          1.1197740016379516E-013
  0.20890000000000003          1.1346358694808883E-013
  0.21000000000000002          1.1560730135514134E-013
  0.21110000000000001          1.1748122792959855E-013
  0.21220000000000000          1.1840679990876938E-013
  0.21330000000000005          1.1793810641690428E-013
  0.21440000000000003          1.1569297050120006E-013
  0.21550000000000002          1.1127472253400836E-013
  0.21660000000000001          1.0444209408376535E-013
  0.21770000000000000          9.5450405088304972E-014
  0.21880000000000005          8.5290361772546366E-014
  0.21990000000000004          7.5559541210733648E-014
  0.22100000000000003          6.7930163178382828E-014
  0.22210000000000002          6.3467174661753992E-014
  0.22320000000000001          6.2186923612030403E-014
  0.22430000000000000          6.3118008504736500E-014
  0.22540000000000004          6.4813134438352493E-014
  0.22650000000000003          6.5983936377816535E-014
  0.22760000000000002          6.5884309577329841E-014
  0.22870000000000001          6.4279357697709644E-014
  0.22980000000000000          6.1144786567592971E-014
  0.23090000000000005          5.6417443913050016E-014
  0.23200000000000004          5.0035713245489995E-014
  0.23310000000000003          4.2240684125673495E-014
  0.23420000000000002          3.3865070044356263E-014
  0.23530000000000001          2.6307721659546181E-014
  0.23640000000000000          2.1103373402226571E-014
  0.23750000000000004          1.9293566814440005E-014
  0.23860000000000003          2.0965159292116940E-014
  0.23970000000000002          2.5229016976893384E-014
  0.24080000000000001          3.0632352439196438E-014
  0.24190000000000000          3.5736048750530904E-014
  0.24300000000000005          3.9525122269347548E-014
  0.24410000000000004          4.1485474393002213E-014
  0.24520000000000003          4.1434804503859628E-014
  0.24630000000000002          3.9346331184506730E-014
  0.24740000000000001          3.5348047639616948E-014
  0.24850000000000005          2.9880736507823693E-014
  0.24960000000000004          2.3824437471392479E-014
  0.25070000000000003          1.8397320768904686E-014
  0.25180000000000002          1.4796746889600938E-014
  0.25290000000000001          1.3756727332945036E-014
  0.25400000000000000          1.5277746674256213E-014
  0.25510000000000005          1.8680036170654241E-014
  0.25620000000000004          2.2921146974225778E-014
  0.25730000000000003          2.6962781635811947E-014
  0.25840000000000002          2.9982226588111284E-014
  0.25950000000000001          3.1379658375829630E-014
  0.26060000000000005          3.0702413958584101E-014
  0.26170000000000004          2.7654480088452899E-014
  0.26280000000000003          2.2252144572444497E-014
  0.26390000000000002          1.5019472320793735E-014
  0.26500000000000001          7.0325397431080218E-015
  0.26610000000000000         -3.0445819277552244E-016
  0.26720000000000005         -5.6875065299534523E-015
  0.26830000000000004         -8.3326621098677786E-015
  0.26940000000000003         -8.1721213522010226E-015
  0.27050000000000002         -5.7562269157424102E-015
  0.27160000000000001         -1.9726234745705294E-015
  0.27270000000000005          2.2236769928540400E-015
  0.27380000000000004          5.9441466963451782E-015
  0.27490000000000003          8.3900517364452756E-015
  0.27600000000000002          8.8922475849402317E-015
  0.27710000000000001          7.0613785652515526E-015
  0.27820000000000000          3.0052124498843728E-015
  0.27930000000000005         -2.5499833493599639E-015
  0.28040000000000004         -8.3872562260186439E-015
  0.28150000000000003         -1.3180601843964642E-014
  0.28260000000000002         -1.5954809538175468E-014
  0.28370000000000001         -1.6376648722539115E-014
  0.28480000000000005         -1.4731319549149521E-014
  0.28590000000000004         -1.1642337366055719E-014
  0.28700000000000003         -7.7509125814804914E-015
  0.28810000000000002         -3.5656386503279882E-015
  0.28920000000000001          4.6716824583245373E-016
  0.29030000000000000          3.8105559456418497E-015
  0.29140000000000005          5.8074503162750580E-015
  0.29250000000000004          5.8743628369204209E-015
  0.29360000000000003          3.8212342543936144E-015
  0.29470000000000002          6.9390961311770327E-017
  0.29580000000000001         -4.4181351894169731E-015
  0.29690000000000005         -8.4906024339275861E-015
  0.29800000000000004         -1.1249452213044153E-014
  0.29910000000000003         -1.2321795156262595E-014
  0.30020000000000002         -1.1841871724744548E-014
  0.30130000000000001         -1.0223630397293275E-014
  0.30240000000000000         -7.9389597199455276E-015
  0.30350000000000005         -5.4727781159176757E-015
  0.30460000000000004         -3.4490714824627389E-015
  0.30570000000000003         -2.7561568919579054E-015
  0.30680000000000002         -4.4806574773669860E-015
  0.30790000000000001         -9.6065931255210458E-015
  0.30900000000000005         -1.8635073429552980E-014
  0.31010000000000004         -3.1373709809025096E-014
  0.31120000000000003         -4.7054387662187645E-014
  0.31230000000000002         -6.4726219961158677E-014
  0.31340000000000001         -8.3693600720445488E-014
  0.31450000000000006         -1.0375710592989477E-013
  0.31560000000000005         -1.2517106128522544E-013
  0.31670000000000004         -1.4843265166634431E-013
  0.31780000000000003         -1.7410901348951891E-013
  0.31890000000000002         -2.0282853147955001E-013
  0.32000000000000001         -2.3538319562984471E-013
  0.32110000000000005         -2.7276417246800073E-013
  0.32220000000000004         -3.1598885774147858E-013
  0.32330000000000003         -3.6575107897091213E-013
  0.32440000000000002         -4.2209986831933240E-013
  0.32550000000000001         -4.8437931186899449E-013
  0.32660000000000006         -5.5150969010143513E-013
  0.32770000000000005         -6.2246383453836408E-013
  0.32880000000000004         -6.9665644166911988E-013
  0.32990000000000003         -7.7402656722511427E-013
  0.33100000000000002         -8.5480477174652496E-013
  0.33210000000000001         -9.3916328779251103E-013
  0.33320000000000005         -1.0269996569503546E-012
  0.33430000000000004         -1.1179692597811453E-012
  0.33540000000000003         -1.2116721244003668E-012
  0.33650000000000002         -1.3077815531487862E-012
  0.33760000000000001         -1.4059696297645497E-012
  0.33870000000000006         -1.5056742273307086E-012
  0.33980000000000005         -1.6059183683096149E-012
  0.34090000000000004         -1.7053830141205545E-012
  0.34200000000000003         -1.8027542617532193E-012
  0.34310000000000002         -1.8971404395242038E-012
  0.34420000000000001         -1.9882570331903100E-012
  0.34530000000000005         -2.0762009666459990E-012
  0.34640000000000004         -2.1608955990598443E-012
  0.34750000000000003         -2.2415145005406102E-012
  0.34860000000000002         -2.3162265348422078E-012
  0.34970000000000001         -2.3824256613410270E-012
  0.35080000000000006         -2.4373285317056596E-012
  0.35190000000000005         -2.4786451323706637E-012
  0.35300000000000004         -2.5050230897155939E-012
  0.35410000000000003         -2.5161379229808520E-012
  0.35520000000000002         -2.5124860298592225E-012
  0.35630000000000001         -2.4950457615614698E-012
  0.35740000000000005         -2.4649302090563972E-012
  0.35850000000000004         -2.4230677686083132E-012
  0.35960000000000003         -2.3698959144592442E-012
  0.36070000000000002         -2.3050801963558544E-012
  0.36180000000000001         -2.2273486996399335E-012
  0.36290000000000006         -2.1345597133664398E-012
  0.36400000000000005         -2.0240553930148147E-012
  0.36510000000000004         -1.8932357054164215E-012
  0.36620000000000003         -1.7401920598836104E-012
  0.36730000000000002         -1.5642430142280683E-012
  0.36840000000000006         -1.3662971247084842E-012
  0.36950000000000005         -1.1490463120780037E-012
  0.37060000000000004         -9.1699943083402802E-013
  0.37170000000000003         -6.7628687815616897E-013
  0.37280000000000002         -4.3410426177011689E-013
  0.37390000000000001         -1.9771196028594688E-013
  0.37500000000000006          2.6902263122628712E-014
  0.37610000000000005          2.3635563658785290E-013
  0.37720000000000004          4.3073386588916539E-013
  0.37830000000000003          6.1362999951475293E-013
  0.37940000000000002          7.9131026555010132E-013
  0.38050000000000006          9.7130664555985958E-013
  0.38160000000000005          1.1609278124984993E-012
  0.38270000000000004          1.3661168448212819E-012
  0.38380000000000003          1.5908267741653105E-012
  0.38490000000000002          1.8367953369066467E-012
  0.38600000000000001          2.1034387593813262E-012
  0.38710000000000000          2.3875940340317353E-012
  0.38819999999999999          2.6829538127042459E-012
  0.38930000000000009          2.9791751599950639E-012
  0.39040000000000008          3.2607523129748452E-012
  0.39150000000000007          3.5059059609904378E-012
  0.39260000000000006          3.6859889475147556E-012
  0.39370000000000005          3.7662203075067491E-012
  0.39480000000000004          3.7087303970130733E-012
  0.39590000000000003          3.4786645670185030E-012
  0.39700000000000002          3.0533603668890559E-012
  0.39810000000000001          2.4334272599088734E-012
  0.39920000000000000          1.6533718235018696E-012
  0.40029999999999999          7.8867714677668829E-013
  0.40140000000000009         -4.3665348490912341E-014
  0.40250000000000008         -6.9318600033065143E-013
  0.40360000000000007         -9.9291198217266322E-013
  0.40470000000000006         -7.8382084136560238E-013
  0.40580000000000005          5.6328343658641301E-014
  0.40690000000000004          1.5840082870133864E-012
  0.40800000000000003          3.7654284980660675E-012
  0.40910000000000002          6.4608445857733271E-012
  0.41020000000000001          9.4208930600508018E-012
  0.41130000000000000          1.2296425746424231E-011
  0.41239999999999999          1.4661238792563538E-011
  0.41350000000000009          1.6045132863289776E-011
  0.41460000000000008          1.5973388611948636E-011
  0.41570000000000007          1.4008344725040584E-011
  0.41680000000000006          9.7892370149423860E-012
  0.41790000000000005          3.0674244631674342E-012
  0.41900000000000004         -6.2649505422335198E-012
  0.42010000000000003         -1.8154389674429363E-011
  0.42120000000000002         -3.2375037635745648E-011
  0.42230000000000001         -4.8528797196826660E-011
  0.42340000000000000         -6.6057654274059651E-011
  0.42449999999999999         -8.4268087631182129E-011
  0.42560000000000009         -1.0236544996671096E-010
  0.42670000000000008         -1.1949401987452713E-010
  0.42780000000000007         -1.3477686750084432E-010
  0.42890000000000006         -1.4734955169700373E-010
  0.43000000000000005         -1.5638273988421698E-010
  0.43110000000000004         -1.6109182800085203E-010
  0.43220000000000003         -1.6073501564841246E-010
  0.43330000000000002         -1.5460451230890639E-010
  0.43440000000000001         -1.4201784382294376E-010
  0.43550000000000000         -1.2231589472929394E-010
  0.43659999999999999         -9.4872497540132517E-011
  0.43770000000000009         -5.9116264442920128E-011
  0.43880000000000008         -1.4560625798463827E-011
  0.43990000000000007          3.9165414210839706E-011
  0.44100000000000006          1.0229493125787058E-010
  0.44210000000000005          1.7491651742438114E-010
  0.44320000000000004          2.5698662511740709E-010
  0.44430000000000003          3.4835840485811676E-010
  0.44540000000000002          4.4882007221018954E-010
  0.44650000000000001          5.5813260211910243E-010
  0.44760000000000000          6.7605748631046379E-010
  0.44869999999999999          8.0236836995685909E-010
  0.44980000000000009          9.3684508743888129E-010
  0.45090000000000008          1.0792528053647897E-009
  0.45200000000000007          1.2293114595353469E-009
  0.45310000000000006          1.3866629408921891E-009
  0.45420000000000005          1.5508412711955467E-009
  0.45530000000000004          1.7212520099898373E-009
  0.45640000000000003          1.8971621847960907E-009
  0.45750000000000002          2.0777052758648099E-009
  0.45860000000000001          2.2619022443130383E-009
  0.45970000000000000          2.4487029020031776E-009
  0.46079999999999999          2.6370434179313484E-009
  0.46190000000000009          2.8259210554755639E-009
  0.46300000000000008          3.0144735825155461E-009
  0.46410000000000007          3.2020521099774215E-009
  0.46520000000000006          3.3882691961976712E-009
  0.46630000000000005          3.5730039390873242E-009
  0.46740000000000004          3.7563538141822715E-009
  0.46850000000000003          3.9385344043916907E-009
  0.46960000000000002          4.1197393859002469E-009
  0.47070000000000001          4.2999934736324517E-009
  0.47180000000000000          4.4790276475104060E-009
  0.47289999999999999          4.6562169005380340E-009
  0.47400000000000009          4.8305961836714215E-009
  0.47510000000000008          5.0009637937584223E-009
  0.47620000000000007          5.1660475942999497E-009
  0.47730000000000006          5.3247023140558086E-009
  0.47840000000000005          5.4760880807387815E-009