 -0.12000000000000000          0.0000000000000000     
 -0.11889999999999999          4.1063387499346016E-013
 -0.11780000000000000          1.0091030657503080E-012
 -0.11670000000000000          1.4872866388774154E-012
 -0.11559999999999999          1.6514565312916455E-012
 -0.11449999999999999          1.5362082250283311E-012
 -0.11340000000000000          1.3579038047824617E-012
 -0.11230000000000000          1.3467105013505223E-012
 -0.11119999999999999          1.5799922110665954E-012
 -0.11009999999999999          1.9346052508497827E-012
 -0.10900000000000000          2.1871475944527219E-012
 -0.10790000000000000          2.1844644094440675E-012
 -0.10679999999999999          1.9585678496334170E-012
 -0.10569999999999999          1.7037625573818465E-012
 -0.10460000000000000          1.6356165477838839E-012
 -0.10349999999999999          1.8365517371432639E-012
 -0.10239999999999999          2.2000361541255655E-012
 -0.10130000000000000          2.5111507867108688E-012
 -0.10020000000000000          2.6014316505657712E-012
  -9.9099999999999994E-002     2.4636549237211759E-012
  -9.7999999999999990E-002     2.2447054981793370E-012
  -9.6899999999999986E-002     2.1262880691660821E-012
  -9.5799999999999996E-002     2.1855442718925830E-012
  -9.4699999999999993E-002     2.3402026767481040E-012
  -9.3599999999999989E-002     2.4176285901609052E-012
  -9.2499999999999999E-002     2.2935585649865192E-012
  -9.1399999999999995E-002     1.9942511105308454E-012
  -9.0299999999999991E-002     1.6836735912218280E-012
  -8.9200000000000002E-002     1.5439614557828512E-012
  -8.8099999999999984E-002     1.6379690485700868E-012
  -8.6999999999999994E-002     1.8572051369108208E-012
  -8.5899999999999990E-002     1.9958594166719068E-012
  -8.4799999999999986E-002     1.8981990389901840E-012
  -8.3699999999999997E-002     1.5715233949366476E-012
  -8.2599999999999993E-002     1.1810721600162896E-012
  -8.1499999999999989E-002     9.2937126463712878E-013
  -8.0399999999999999E-002     9.0736477981731966E-013
  -7.9299999999999995E-002     1.0259862558970124E-012
  -7.8199999999999992E-002     1.0787365952383891E-012
  -7.7100000000000002E-002     8.9063169273382819E-013
  -7.5999999999999984E-002     4.4596557893933663E-013
  -7.4899999999999994E-002    -9.7515472926109695E-014
  -7.3799999999999991E-002    -5.1836730912038711E-013
  -7.2699999999999987E-002    -6.8623541469608939E-013
  -7.1599999999999997E-002    -6.5096501578795958E-013
  -7.0499999999999993E-002    -6.0346665971847023E-013
  -6.9399999999999989E-002    -7.3831717751087960E-013
  -6.8300000000000000E-002    -1.1177755777735826E-012
  -6.7199999999999996E-002    -1.6338507158734856E-012
  -6.6099999999999992E-002    -2.0926548253235944E-012
  -6.5000000000000002E-002    -2.3569781095411463E-012
  -6.3899999999999985E-002    -2.4428254528609170E-012
  -6.2799999999999995E-002    -2.5015967986995678E-012
  -6.1699999999999991E-002    -2.7040500864382059E-012
  -6.0599999999999994E-002    -3.1129055443360986E-012
  -5.9499999999999990E-002    -3.6370019354154130E-012
  -5.8399999999999994E-002    -4.0983718093592904E-012
  -5.7299999999999990E-002    -4.3607639126003146E-012
  -5.6199999999999986E-002    -4.4247713039437668E-012
  -5.5099999999999996E-002    -4.4214831338631781E-012
  -5.3999999999999992E-002    -4.5122898350967801E-012
  -5.2899999999999989E-002    -4.7706582479954695E-012
  -5.1799999999999985E-002    -5.1326928687652090E-012
  -5.0699999999999995E-002    -5.4503896920197516E-012
  -4.9599999999999991E-002    -5.6050580698568818E-012
  -4.8499999999999988E-002    -5.5951194040106439E-012
  -4.7399999999999998E-002    -5.5336108786940913E-012
  -4.6299999999999994E-002    -5.5592522592010008E-012
  -4.5199999999999990E-002    -5.7292594964013700E-012
  -4.4099999999999986E-002    -5.9746222543850572E-012
  -4.2999999999999997E-002    -6.1508254903703270E-012
  -4.1899999999999993E-002    -6.1453207785613433E-012
  -4.0799999999999989E-002    -5.9610202860247704E-012
  -3.9699999999999985E-002    -5.7136309363662374E-012
  -3.8599999999999995E-002    -5.5453180894137786E-012
  -3.7499999999999992E-002    -5.5195036693637385E-012
  -3.6399999999999988E-002    -5.5752438045719001E-012
  -3.5299999999999984E-002    -5.5748118589513031E-012
  -3.4199999999999994E-002    -5.4085529254321620E-012
  -3.3099999999999991E-002    -5.0785838002677457E-012
  -3.1999999999999987E-002    -4.6988948980738348E-012
  -3.0899999999999997E-002    -4.4117478557717618E-012
  -2.9799999999999993E-002    -4.2824927427196916E-012
  -2.8699999999999989E-002    -4.2509624097825841E-012
  -2.7599999999999986E-002    -4.1756840855972073E-012
  -2.6499999999999996E-002    -3.9384693246486695E-012
  -2.5399999999999992E-002    -3.5323380332252832E-012
  -2.4299999999999988E-002    -3.0680182615102294E-012
  -2.3199999999999985E-002    -2.6942519227341585E-012
  -2.2099999999999995E-002    -2.4904767755959742E-012
  -2.0999999999999991E-002    -2.4105769311847029E-012
  -1.9899999999999987E-002    -2.3187074948839607E-012
  -1.8799999999999983E-002    -2.0906223668954096E-012
  -1.7699999999999994E-002    -1.7061412920915822E-012
  -1.6599999999999990E-002    -1.2652316140568795E-012
  -1.5499999999999986E-002    -9.1628016972774799E-013
  -1.4399999999999996E-002    -7.4916455464638983E-013
  -1.3299999999999992E-002    -7.3093288315678242E-013
  -1.2199999999999989E-002    -7.3029385555041292E-013
  -1.1099999999999985E-002    -6.1232051698632104E-013
  -9.9999999999999950E-003    -3.3427443092837510E-013
  -8.8999999999999913E-003     2.6267599082212513E-014
  -7.7999999999999875E-003     3.2972204099199829E-013
  -6.6999999999999837E-003     4.7526393035299945E-013
  -5.5999999999999939E-003     4.7044269912024849E-013
  -4.4999999999999901E-003     4.2037611210710097E-013
  -3.3999999999999864E-003     4.4677781676140317E-013
  -2.2999999999999826E-003     5.9776917787266126E-013
  -1.1999999999999927E-003     8.1457545992911837E-013
  -9.9999999999988987E-005     9.7801725668124962E-013
   1.0000000000000148E-003     9.9875121317207400E-013
   2.1000000000000185E-003     8.8390769349100058E-013
   3.2000000000000084E-003     7.3148334130005990E-013
   4.3000000000000121E-003     6.5786693488138908E-013
   5.4000000000000159E-003     7.1293383427136570E-013
   6.5000000000000058E-003     8.4532158768186996E-013
   7.6000000000000234E-003     9.4252676372626151E-013
   8.7000000000000133E-003     9.1503302291580649E-013
   9.8000000000000032E-003     7.6181996835342148E-013
   1.0900000000000021E-002     5.6934665198779143E-013
   1.2000000000000011E-002     4.4588112359299779E-013
   1.3100000000000001E-002     4.4069958602013228E-013
   1.4200000000000018E-002     5.0817173734085865E-013
   1.5300000000000008E-002     5.4286859252057867E-013
   1.6400000000000026E-002     4.5909001400942511E-013
   1.7500000000000016E-002     2.5565644400673246E-013
   1.8600000000000005E-002     1.8158359719637582E-014
   1.9700000000000023E-002    -1.4273012088251085E-013
   2.0800000000000013E-002    -1.7126038581053554E-013
   2.1900000000000003E-002    -1.0624155353058265E-013
   2.3000000000000020E-002    -5.1656815269276398E-014
   2.4100000000000010E-002    -1.0034429246323614E-013
   2.5200000000000000E-002    -2.6685836595086473E-013
   2.6300000000000018E-002    -4.7829117949176617E-013
   2.7400000000000008E-002    -6.2898514407288655E-013
   2.8500000000000025E-002    -6.5842589478181755E-013
   2.9600000000000015E-002    -5.9523842901668515E-013
   3.0700000000000005E-002    -5.3563858826397725E-013
   3.1800000000000023E-002    -5.7281539258719201E-013
   3.2900000000000013E-002    -7.2918190301959629E-013
   3.4000000000000002E-002    -9.4061856556969357E-013
   3.5100000000000020E-002    -1.1033804051639986E-012
   3.6200000000000010E-002    -1.1487546995124718E-012
   3.7300000000000028E-002    -1.0910590972751940E-012
   3.8400000000000017E-002    -1.0148740532490915E-012
   3.9500000000000007E-002    -1.0120506820123609E-012
   4.0600000000000025E-002    -1.1151967976487394E-012
   4.1700000000000015E-002    -1.2759223971160771E-012
   4.2800000000000005E-002    -1.4026436216793622E-012
   4.3900000000000022E-002    -1.4291750243347464E-012
   4.5000000000000012E-002    -1.3635006699090886E-012
   4.6100000000000002E-002    -1.2814546458350782E-012
   4.7200000000000020E-002    -1.2707116114822587E-012
   4.8300000000000010E-002    -1.3665010901973200E-012
   4.9400000000000027E-002    -1.5257918565959022E-012
   5.0500000000000017E-002    -1.6580654974203721E-012
   5.1600000000000007E-002    -1.6896167562351420E-012
   5.2700000000000025E-002    -1.6146168537574666E-012
   5.3800000000000014E-002    -1.4967260217329681E-012
   5.4900000000000004E-002    -1.4214367458128335E-012
   5.6000000000000022E-002    -1.4347061877459258E-012
   5.7100000000000012E-002    -1.5122651323376213E-012
   5.8200000000000002E-002    -1.5805789765368371E-012
   5.9300000000000019E-002    -1.5725341962849178E-012
   6.0400000000000009E-002    -1.4763349972261606E-012
   6.1500000000000027E-002    -1.3422658089095990E-012
   6.2600000000000017E-002    -1.2436268298883216E-012
   6.3700000000000007E-002    -1.2216397520980688E-012
   6.4800000000000024E-002    -1.2550672233055452E-012
   6.5900000000000014E-002    -1.2762720497401517E-012
   6.7000000000000004E-002    -1.2210150356813468E-012
   6.8100000000000022E-002    -1.0748893026303040E-012
   6.9200000000000012E-002    -8.8249366969908182E-013
   7.0300000000000029E-002    -7.1334967403418626E-013
   7.1400000000000019E-002    -6.1033355434374978E-013
   7.2500000000000009E-002    -5.5875588906211764E-013
   7.3600000000000027E-002    -4.9849929389749992E-013
   7.4700000000000016E-002    -3.6974646458976624E-013
   7.5800000000000006E-002    -1.5830679382317688E-013
   7.6900000000000024E-002     9.2832186419258990E-014
   7.8000000000000014E-002     3.1411359405499076E-013
   7.9100000000000004E-002     4.5969635822683673E-013
   8.0200000000000021E-002     5.4069824034319334E-013
   8.1300000000000011E-002     6.1724329246849315E-013
   8.2400000000000029E-002     7.5514161079286085E-013
   8.3500000000000019E-002     9.7856271811042336E-013
   8.4600000000000009E-002     1.2527505080159260E-012
   8.5700000000000026E-002     1.5089674300917320E-012
   8.6800000000000016E-002     1.6934387912581113E-012
   8.7900000000000006E-002     1.8050252034388248E-012
   8.9000000000000024E-002     1.8947449925057159E-012
   9.0100000000000013E-002     2.0277898256558683E-012
   9.1200000000000003E-002     2.2354325387735162E-012
   9.2300000000000021E-002     2.4911682918385029E-012
   9.3400000000000011E-002     2.7279012333732396E-012
   9.4500000000000028E-002     2.8837845683324754E-012
   9.5600000000000018E-002     2.9443047328021483E-012
   9.6700000000000008E-002     2.9513160506760531E-012
   9.7800000000000026E-002     2.9733476887106446E-012
   9.8900000000000016E-002     3.0585655452405686E-012
  0.10000000000000001          3.2032469036211466E-012
  0.10110000000000002          3.3568586184135682E-012
  0.10220000000000001          3.4587564916140531E-012
  0.10330000000000003          3.4797861100269742E-012
  0.10440000000000002          3.4397517274713559E-012
  0.10550000000000001          3.3897600323364792E-012
  0.10660000000000003          3.3735048058374649E-012
  0.10770000000000002          3.3957743183568481E-012
  0.10880000000000001          3.4202330518577220E-012
  0.10990000000000003          3.3969736624042711E-012
  0.11100000000000002          3.2992057311956522E-012
  0.11210000000000001          3.1426432509507951E-012
  0.11320000000000002          2.9742887712045241E-012
  0.11430000000000001          2.8394554375969404E-012
  0.11540000000000003          2.7510272581733105E-012
  0.11650000000000002          2.6826240760841741E-012
  0.11760000000000001          2.5896741230811597E-012
  0.11870000000000003          2.4424438050800482E-012
  0.11980000000000002          2.2470686222310016E-012
  0.12090000000000001          2.0399489278450992E-012
  0.12200000000000003          1.8604048316558369E-012
  0.12310000000000001          1.7219966670690022E-012
  0.12420000000000003          1.6034118382276459E-012
  0.12530000000000002          1.4652616053761906E-012
  0.12640000000000001          1.2802392525459327E-012
  0.12750000000000003          1.0545276594786152E-012
  0.12860000000000002          8.2483937547023177E-013
  0.12970000000000001          6.3318175955155665E-013
  0.13080000000000003          4.9754042475117975E-013
  0.13190000000000002          3.9961132786796570E-013
  0.13300000000000001          2.9845881662206984E-013
  0.13410000000000000          1.6037146754575389E-013
  0.13520000000000004         -1.6444077872045706E-014
  0.13630000000000003         -2.0004718973662083E-013
  0.13740000000000002         -3.4723867948451833E-013
  0.13850000000000001         -4.3439541482665214E-013
  0.13960000000000000         -4.7468490916564410E-013
  0.14070000000000005         -5.0924547922485789E-013
  0.14180000000000004         -5.7833290116874570E-013
  0.14290000000000003         -6.9268224019513327E-013
  0.14400000000000002         -8.2532543094317028E-013
  0.14510000000000001         -9.2981742074634517E-013
  0.14620000000000000         -9.7228952266533040E-013
  0.14730000000000004         -9.5499779878617628E-013
  0.14840000000000003         -9.1491549474830898E-013
  0.14950000000000002         -8.9831402822845022E-013
  0.15060000000000001         -9.2900513521714379E-013
  0.15170000000000000         -9.9229066632517980E-013
  0.15280000000000005         -1.0456699506070350E-012
  0.15390000000000004         -1.0487328215518424E-012
  0.15500000000000003         -9.9142059353366679E-013
  0.15610000000000002         -9.0115881104787382E-013
  0.15720000000000001         -8.2419493091137502E-013
  0.15830000000000000         -7.9435714507913518E-013
  0.15940000000000004         -8.1091112337660379E-013
  0.16050000000000003         -8.4048268344527949E-013
  0.16160000000000002         -8.4105221483272940E-013
  0.16270000000000001         -7.9081668293065456E-013
  0.16380000000000000         -7.0184022220203976E-013
  0.16490000000000005         -6.0963039962509859E-013
  0.16600000000000004         -5.4689932946989989E-013
  0.16710000000000003         -5.2061382380487520E-013
  0.16820000000000002         -5.0848631797445374E-013
  0.16930000000000001         -4.7671621288543663E-013
  0.17040000000000000         -4.0552004438270653E-013
  0.17150000000000004         -3.0373281338718601E-013
  0.17260000000000003         -2.0210517699244106E-013
  0.17370000000000002         -1.3061088010899877E-013
  0.17480000000000001         -9.6652272428336911E-014
  0.17590000000000000         -8.0153317796473798E-014
  0.17700000000000005         -4.8945104081233305E-014
  0.17810000000000004          1.7128041248333203E-014
  0.17920000000000003          1.1132743071672324E-013
  0.18030000000000002          2.0541443424228443E-013
  0.18140000000000001          2.7128329406222288E-013
  0.18250000000000000          3.0263354186396072E-013
  0.18360000000000004          3.2027058363544342E-013
  0.18470000000000003          3.5664079574409566E-013
  0.18580000000000002          4.3070410956493900E-013
  0.18690000000000001          5.3179097291033917E-013
  0.18800000000000000          6.2494307567357899E-013
  0.18910000000000005          6.7466399103208389E-013
  0.19020000000000004          6.7029579469383638E-013
  0.19130000000000003          6.3452324864162470E-013
  0.19240000000000002          6.0831412458011034E-013
  0.19350000000000001          6.2257647863474818E-013
  0.19460000000000005          6.7666732479820797E-013
  0.19570000000000004          7.3930650888721205E-013
  0.19680000000000003          7.7150324764763370E-013
  0.19790000000000002          7.5518974550484336E-013
  0.19900000000000001          7.0690333812736970E-013
  0.20010000000000000          6.6639163605741124E-013
  0.20120000000000005          6.6799901993639704E-013
  0.20230000000000004          7.1522963122248772E-013
  0.20340000000000003          7.7686511522873647E-013
  0.20450000000000002          8.0776368452204750E-013
  0.20560000000000000          7.7985604956827605E-013
  0.20670000000000005          7.0151062480573238E-013
  0.20780000000000004          6.1166365810952285E-013
  0.20890000000000003          5.5301509680395566E-013
  0.21000000000000002          5.4334439287519450E-013
  0.21110000000000001          5.6505749296232048E-013
  0.21220000000000000          5.7979163791504750E-013
  0.21330000000000005          5.5693833671011249E-013
  0.21440000000000003          4.9525758730093248E-013
  0.21550000000000002          4.2221382991181429E-013
  0.21660000000000001          3.7212634591927879E-013
  0.21770000000000000          3.5962641655889565E-013
  0.21880000000000005          3.6808175709125681E-013
  0.21990000000000004          3.6142966193209246E-013
  0.22100000000000003          3.1059342796854412E-013
  0.22210000000000002          2.1502211783569263E-013
  0.22320000000000001          1.0360456947880671E-013
  0.22430000000000000          1.4426032080354368E-014
  0.22540000000000004         -3.1695933367067828E-014
  0.22650000000000003         -4.4581161052621002E-014
  0.22760000000000002         -5.5482308857520526E-014
  0.22870000000000001         -9.2528761646244055E-014
  0.22980000000000000         -1.5926261814030805E-013
  0.23090000000000005         -2.3221466554345727E-013
  0.23200000000000004         -2.7918027071791819E-013
  0.23310000000000003         -2.8439894228127744E-013
  0.23420000000000002         -2.6166812861824765E-013
  0.23530000000000001         -2.4535256626503719E-013
  0.23640000000000000         -2.6566872587049116E-013
  0.23750000000000004         -3.2637399143871750E-013
  0.23860000000000003         -4.0136703595553716E-013
  0.23970000000000002         -4.5287761673932686E-013
  0.24080000000000001         -4.5807422491382963E-013
  0.24190000000000000         -4.2472535872254993E-013
  0.24300000000000005         -3.8458196008057010E-013
  0.24410000000000004         -3.6949314545683314E-013
  0.24520000000000003         -3.8790116353914878E-013
  0.24630000000000002         -4.1900329175904883E-013
  0.24740000000000001         -4.2880911438600119E-013
  0.24850000000000005         -3.9618669079060395E-013
  0.24960000000000004         -3.2964191223895418E-013
  0.25070000000000003         -2.6238465020196651E-013
  0.25180000000000002         -2.2916466853079014E-013
  0.25290000000000001         -2.4169503701464146E-013
  0.25400000000000000         -2.8046911545320110E-013
  0.25510000000000005         -3.0876451547052848E-013
  0.25620000000000004         -2.9848787822543394E-013
  0.25730000000000003         -2.4907745142383343E-013
  0.25840000000000002         -1.8603280278187746E-013
  0.25950000000000001         -1.4071555080494553E-013
  0.26060000000000005         -1.2671255123785363E-013
  0.26170000000000004         -1.3028732850288065E-013
  0.26280000000000003         -1.2176615005351980E-013
  0.26390000000000002         -7.9110174028398611E-014
  0.26500000000000001         -5.9433427703544111E-015
  0.26610000000000000          6.9509420379986487E-014
  0.26720000000000005          1.1396138414302680E-013
  0.26830000000000004          1.1283145566056205E-013
  0.26940000000000003          8.0892729761449545E-014
  0.27050000000000002          5.2081147805265564E-014
  0.27160000000000001          5.5930404119307227E-014
  0.27270000000000005          9.7688992724669024E-014
  0.27380000000000004          1.5623815288569175E-013
  0.27490000000000003          2.0078712565248465E-013
  0.27600000000000002          2.1371492195211785E-013
  0.27710000000000001          2.0278284365019738E-013
  0.27820000000000000          1.9410541793454630E-013
  0.27930000000000005          2.1154249229232121E-013
  0.28040000000000004          2.5801509714185025E-013
  0.28150000000000003          3.1254770162395795E-013
  0.28260000000000002          3.4507143571072108E-013
  0.28370000000000001          3.3798910181275828E-013
  0.28480000000000005          2.9874678359092727E-013
  0.28590000000000004          2.5447186992036060E-013
  0.28700000000000003          2.3289234349050522E-013
  0.28810000000000002          2.4351898841483972E-013
  0.28920000000000001          2.7244067768213539E-013
  0.29030000000000000          2.9381588618300316E-013
  0.29140000000000005          2.8900777486030046E-013
  0.29250000000000004          2.5919842221995975E-013
  0.29360000000000003          2.2270306583008917E-013
  0.29470000000000002          1.9976991312178836E-013
  0.29580000000000001          1.9669815163649993E-013
  0.29690000000000005          2.0109014637525370E-013
  0.29800000000000004          1.9133045675449320E-013
  0.29910000000000003          1.5271642036008670E-013
  0.30020000000000002          8.8017353787887416E-014
  0.30130000000000001          1.4841913280012605E-014
  0.30240000000000000         -4.7702643701915470E-014
  0.30350000000000005         -9.2684839818696087E-014
  0.30460000000000004         -1.2912498300520032E-013
  0.30570000000000003         -1.7345417414231604E-013
  0.30680000000000002         -2.3562870959693188E-013
  0.30790000000000001         -3.1073773634515666E-013
  0.30900000000000005         -3.8250969728614727E-013
  0.31010000000000004         -4.3592730810580631E-013
  0.31120000000000003         -4.6923093572712874E-013
  0.31230000000000002         -4.9610841568602334E-013
  0.31340000000000001         -5.3631475181054678E-013
  0.31450000000000006         -6.0164389537088371E-013
  0.31560000000000005         -6.8757672914609097E-013
  0.31670000000000004         -7.7661835009128040E-013
  0.31780000000000003         -8.5067217712114453E-013
  0.31890000000000002         -9.0328422571179071E-013
  0.32000000000000001         -9.4297995695368681E-013
  0.32110000000000005         -9.8570836422977169E-013
  0.32220000000000004         -1.0424110532324564E-012
  0.32330000000000003         -1.1110097168562485E-012
  0.32440000000000002         -1.1784539220245866E-012
  0.32550000000000001         -1.2308486421509445E-012
  0.32660000000000006         -1.2638734399994013E-012
  0.32770000000000005         -1.2858851290488059E-012
  0.32880000000000004         -1.3118252078285261E-012
  0.32990000000000003         -1.3528166148354471E-012
  0.33100000000000002         -1.4091079576420473E-012
  0.33210000000000001         -1.4710100467201279E-012
  0.33320000000000005         -1.5263047909655124E-012
  0.33430000000000004         -1.5680870151579560E-012
  0.33540000000000003         -1.5973759777377494E-012
  0.33650000000000002         -1.6194179161540293E-012
  0.33760000000000001         -1.6375574856819833E-012
  0.33870000000000006         -1.6500074874750221E-012
  0.33980000000000005         -1.6519258746558943E-012
  0.34090000000000004         -1.6405406675481041E-012
  0.34200000000000003         -1.6185468674914235E-012
  0.34310000000000002         -1.5926150283372383E-012
  0.34420000000000001         -1.5681351527520495E-012
  0.34530000000000005         -1.5446364801546010E-012
  0.34640000000000004         -1.5158853901739149E-012
  0.34750000000000003         -1.4747839364711618E-012
  0.34860000000000002         -1.4190941089301410E-012
  0.34970000000000001         -1.3531258280091097E-012
  0.35080000000000006         -1.2837294082585439E-012
  0.35190000000000005         -1.2136972123421321E-012
  0.35300000000000004         -1.1381086971150440E-012
  0.35410000000000003         -1.0470893828975180E-012
  0.35520000000000002         -9.3334909432319955E-013
  0.35630000000000001         -7.9873281825754943E-013
  0.35740000000000005         -6.5430228999126914E-013
  0.35850000000000004         -5.1321929018281592E-013
  0.35960000000000003         -3.8138708278078682E-013
  0.36070000000000002         -2.5294514845136802E-013
  0.36180000000000001         -1.1440183801266555E-013
  0.36290000000000006          4.5270678749678755E-014
  0.36400000000000005          2.2598669900593938E-013
  0.36510000000000004          4.1599316966631901E-013
  0.36620000000000003          6.0016314960203266E-013
  0.36730000000000002          7.7116942441324178E-013
  0.36840000000000006          9.3515353866118178E-013
  0.36950000000000005          1.1073762342220237E-012
  0.37060000000000004          1.3007439079076954E-012
  0.37170000000000003          1.5155285859756502E-012
  0.37280000000000002          1.7379009444258674E-012
  0.37390000000000001          1.9484854231063280E-012
  0.37500000000000006          2.1347667511554505E-012
  0.37610000000000005          2.2983542099301782E-012
  0.37720000000000004          2.4519724298291740E-012
  0.37830000000000003          2.6087031773814710E-012
  0.37940000000000002          2.7716780620623102E-012
  0.38050000000000006          2.9318565724155760E-012
  0.38160000000000005          3.0752000250331616E-012
  0.38270000000000004          3.1933561601287816E-012
  0.38380000000000003          3.2894067140553875E-012
  0.38490000000000002          3.3742544239274979E-012
  0.38600000000000001          3.4566698347979143E-012
  0.38710000000000000          3.5350615546514096E-012
  0.38819999999999999          3.5976998169368076E-012
  0.38930000000000009          3.6313959526934775E-012
  0.39040000000000008          3.6317942881246953E-012
  0.39150000000000007          3.6069070773499995E-012
  0.39260000000000006          3.5706934234165384E-012
  0.39370000000000005          3.5314457382638502E-012
  0.39480000000000004          3.4842345882865314E-012
  0.39590000000000003          3.4139321005278904E-012
  0.39700000000000002          3.3072008534974488E-012
  0.39810000000000001          3.1644701912368767E-012
  0.39920000000000000          3.0022084942375488E-012
  0.40029999999999999          2.8427050076282112E-012
  0.40140000000000009          2.6981541869413366E-012
  0.40250000000000008          2.5608107086964433E-012
  0.40360000000000007          2.4072532038714574E-012
  0.40470000000000006          2.2146743955590087E-012
  0.40580000000000005          1.9779826535199196E-012
  0.40690000000000004          1.7152656141817536E-012
  0.40800000000000003          1.4571055850534666E-012
  0.40910000000000002          1.2268311274082808E-012
  0.41020000000000001          1.0255699198872318E-012
  0.41130000000000000          8.3281032104162376E-013
  0.41239999999999999          6.2217710727351588E-013
  0.41350000000000009          3.8118718139946625E-013
  0.41460000000000008          1.2087003730536284E-013
  0.41570000000000007         -1.3152410956894399E-013
  0.41680000000000006         -3.5126413338337586E-013
  0.41790000000000005         -5.3265974820633551E-013
  0.41900000000000004         -6.9151330920237304E-013
  0.42010000000000003         -8.5208337921247469E-013
  0.42120000000000002         -1.0284620385455048E-012
  0.42230000000000001         -1.2141349125599108E-012
  0.42340000000000000         -1.3871498345343849E-012
  0.42449999999999999         -1.5266013265993256E-012
  0.42560000000000009         -1.6278365352089737E-012
  0.42670000000000008         -1.7050373669880014E-012
  0.42780000000000007         -1.7795799520396373E-012
  0.42890000000000006         -1.8633677460067738E-012
  0.43000000000000005         -1.9500067749190908E-012
  0.43110000000000004         -2.0205137428450844E-012
  0.43220000000000003         -2.0589853554310931E-012
  0.43330000000000002         -2.0659398613420367E-012
  0.43440000000000001         -2.0588006064072409E-012
  0.43550000000000000         -2.0589268071779900E-012
  0.43659999999999999         -2.0751156801018635E-012
  0.43770000000000009         -2.0964757637942658E-012
  0.43880000000000008         -2.1005972498038711E-012
  0.43990000000000007         -2.0711906509656055E-012
  0.44100000000000006         -2.0118071630812572E-012
  0.44210000000000005         -1.9448199485465929E-012
  0.44320000000000004         -1.8958205154852356E-012
  0.44430000000000003         -1.8747904627845116E-012
  0.44540000000000002         -1.8682861171498287E-012
  0.44650000000000001         -1.8489868848263394E-012
  0.44760000000000000         -1.7960175371601569E-012
  0.44869999999999999         -1.7111212544250144E-012
  0.44980000000000009         -1.6184415927489705E-012
  0.45090000000000008         -1.5476279037214403E-012
  0.45200000000000007         -1.5124362192412609E-012
  0.45310000000000006         -1.5006228609657092E-012
  0.45420000000000005         -1.4828414033718442E-012
  0.45530000000000004         -1.4342740250237164E-012
  0.45640000000000003         -1.3531801477793349E-012
  0.45750000000000002         -1.2626062235979168E-012
  0.45860000000000001         -1.1937990675601628E-012
  0.45970000000000000         -1.1633993398727594E-012
  0.46079999999999999         -1.1612130464033783E-012
  0.46190000000000009         -1.1576921000241854E-012
  0.46300000000000008         -1.1257407705315819E-012
  0.46410000000000007         -1.0608263339248161E-012
  0.46520000000000006         -9.8449546529414533E-013
  0.46630000000000005         -9.2855616276137518E-013
  0.46740000000000004         -9.1144788635500746E-013
  0.46850000000000003         -9.2417067379502471E-013
  0.46960000000000002         -9.3621583483289651E-013
  0.47070000000000001         -9.1730312065340552E-013
  0.47180000000000000         -8.5912559108566051E-013
  0.47289999999999999         -7.8128112203503715E-013
  0.47400000000000009         -7.1711923027328401E-013
  0.47510000000000008         -6.8985761742227363E-013
  0.47620000000000007         -6.9629880857892458E-013
  0.47730000000000006         -7.0974714409639374E-013
  0.47840000000000005         -6.9961744329262954E-013