 -0.12000000000000000          0.0000000000000000     
 -0.11889999999999999          2.0328156475832304E-013
 -0.11780000000000000          5.1291945933968427E-013
 -0.11670000000000000          7.8316747546812590E-013
 -0.11559999999999999          9.1669683827348144E-013
 -0.11449999999999999          9.2415397959103812E-013
 -0.11340000000000000          9.0610076545408490E-013
 -0.11230000000000000          9.7329685064684121E-013
 -0.11119999999999999          1.1645059865632084E-012
 -0.11009999999999999          1.4207829740262059E-012
 -0.10900000000000000          1.6326449689134623E-012
 -0.10790000000000000          1.7233608148319293E-012
 -0.10679999999999999          1.7065216365174686E-012
 -0.10569999999999999          1.6765566728879712E-012
 -0.10460000000000000          1.7408169012337087E-012
 -0.10349999999999999          1.9440970017610716E-012
 -0.10239999999999999          2.2403656532445142E-012
 -0.10130000000000000          2.5302670020626425E-012
 -0.10020000000000000          2.7343385698016721E-012
  -9.9099999999999994E-002     2.8469709112994213E-012
  -9.7999999999999990E-002     2.9325758273093546E-012
  -9.6899999999999986E-002     3.0698412422995823E-012
  -9.5799999999999996E-002     3.2884951125852363E-012
  -9.4699999999999993E-002     3.5470558629662492E-012
  -9.3599999999999989E-002     3.7674468422028767E-012
  -9.2499999999999999E-002     3.8984540257975177E-012
  -9.1399999999999995E-002     3.9582803008481341E-012
  -9.0299999999999991E-002     4.0230037002271861E-012
  -8.9200000000000002E-002     4.1696034456652633E-012
  -8.8099999999999984E-002     4.4172438947801435E-012
  -8.6999999999999994E-002     4.7120029029312060E-012
  -8.5899999999999990E-002     4.9671260815690688E-012
  -8.4799999999999986E-002     5.1284141640296229E-012
  -8.3699999999999997E-002     5.2148771176242559E-012
  -8.2599999999999993E-002     5.3032690837961665E-012
  -8.1499999999999989E-002     5.4677416850566366E-012
  -8.0399999999999999E-002     5.7203213255918715E-012
  -7.9299999999999995E-002     5.9979755266997008E-012
  -7.8199999999999992E-002     6.2072451935422606E-012
  -7.7100000000000002E-002     6.2937771027139176E-012
  -7.5999999999999984E-002     6.2845058720453681E-012
  -7.4899999999999994E-002     6.2698275084205802E-012
  -7.3799999999999991E-002     6.3376647366939979E-012
  -7.2699999999999987E-002     6.5076685044185761E-012
  -7.1599999999999997E-002     6.7145793816067173E-012
  -7.0499999999999993E-002     6.8539913008765508E-012
  -6.9399999999999989E-002     6.8576333523218064E-012
  -6.8300000000000000E-002     6.7430366514595335E-012
  -6.7199999999999996E-002     6.6007745806557390E-012
  -6.6099999999999992E-002     6.5280887993208242E-012
  -6.5000000000000002E-002     6.5571120241595373E-012
  -6.3899999999999985E-002     6.6300480393134615E-012
  -6.2799999999999995E-002     6.6394420009209769E-012
  -6.1699999999999991E-002     6.5042649752716352E-012
  -6.0599999999999994E-002     6.2266341924178150E-012
  -5.9499999999999990E-002     5.8884858465177103E-012
  -5.8399999999999994E-002     5.5914504473643746E-012
  -5.7299999999999990E-002     5.3842576785159576E-012
  -5.6199999999999986E-002     5.2302350518749342E-012
  -5.5099999999999996E-002     5.0373476805351494E-012
  -5.3999999999999992E-002     4.7273760154120139E-012
  -5.2899999999999989E-002     4.2929730688989171E-012
  -5.1799999999999985E-002     3.8015003221433302E-012
  -5.0699999999999995E-002     3.3444566324586211E-012
  -4.9599999999999991E-002     2.9710968709532385E-012
  -4.8499999999999988E-002     2.6552980535537976E-012
  -4.7399999999999998E-002     2.3188638330948729E-012
  -4.6299999999999994E-002     1.8922641072584309E-012
  -4.5199999999999990E-002     1.3667670370084757E-012
  -4.4099999999999986E-002     7.9972236376988592E-013
  -4.2999999999999997E-002     2.7068277160465764E-013
  -4.1899999999999993E-002    -1.7724857732534643E-013
  -4.0799999999999989E-002    -5.6639052694741265E-013
  -3.9699999999999985E-002    -9.6280882842486473E-013
  -3.8599999999999995E-002    -1.4217403299982022E-012
  -3.7499999999999992E-002    -1.9424175791698025E-012
  -3.6399999999999988E-002    -2.4667238699195435E-012
  -3.5299999999999984E-002    -2.9222488084430674E-012
  -3.4199999999999994E-002    -3.2764181909451447E-012
  -3.3099999999999991E-002    -3.5601313457682442E-012
  -3.1999999999999987E-002    -3.8427824163070944E-012
  -3.0899999999999997E-002    -4.1777089454049319E-012
  -2.9799999999999993E-002    -4.5597037268444966E-012
  -2.8699999999999989E-002    -4.9271597909478561E-012
  -2.7599999999999986E-002    -5.2075513847901930E-012
  -2.6499999999999996E-002    -5.3719823520299299E-012
  -2.5399999999999992E-002    -5.4573931955239398E-012
  -2.4299999999999988E-002    -5.5392183658163805E-012
  -2.3199999999999985E-002    -5.6746495276299048E-012
  -2.2099999999999995E-002    -5.8590319841605994E-012
  -2.0999999999999991E-002    -6.0284164553370827E-012
  -1.9899999999999987E-002    -6.1068693239469218E-012
  -1.8799999999999983E-002    -6.0635688905790647E-012
  -1.7699999999999994E-002    -5.9371058137972110E-012
  -1.6599999999999990E-002    -5.8085849215175740E-012
  -1.5499999999999986E-002    -5.7431099522497662E-012
  -1.4399999999999996E-002    -5.7427903297110547E-012
  -1.3299999999999992E-002    -5.7459869918146639E-012
  -1.2199999999999989E-002    -5.6733849115951818E-012
  -1.1099999999999985E-002    -5.4869611187868975E-012
  -9.9999999999999950E-003    -5.2185534271186828E-012
  -8.8999999999999913E-003    -4.9473155342622598E-012
  -7.7999999999999875E-003    -4.7430288605760760E-012
  -6.6999999999999837E-003    -4.6171100549088928E-012
  -5.5999999999999939E-003    -4.5170308228699399E-012
  -4.4999999999999901E-003    -4.3675340893775946E-012
  -3.3999999999999864E-003    -4.1276591299455244E-012
  -2.2999999999999826E-003    -3.8214726307981199E-012
  -1.1999999999999927E-003    -3.5204085532967496E-012
  -9.9999999999988987E-005    -3.2910627149918059E-012
   1.0000000000000148E-003    -3.1474154692183114E-012
   2.1000000000000185E-003    -3.0424729400275999E-012
   3.2000000000000084E-003    -2.9046298621180686E-012
   4.3000000000000121E-003    -2.6910552622608815E-012
   5.4000000000000159E-003    -2.4184939925581788E-012
   6.5000000000000058E-003    -2.1494173486746200E-012
   7.6000000000000234E-003    -1.9449242431328946E-012
   8.7000000000000133E-003    -1.8200813998417767E-012
   9.8000000000000032E-003    -1.7347192365912131E-012
   1.0900000000000021E-002    -1.6256120698337758E-012
   1.2000000000000011E-002    -1.4550627320428629E-012
   1.3100000000000001E-002    -1.2392436165602713E-012
   1.4200000000000018E-002    -1.0354964417179357E-012
   1.5300000000000008E-002    -8.9883433060984116E-013
   1.6400000000000026E-002    -8.4069794720220604E-013
   1.7500000000000016E-002    -8.2075182638188090E-013
   1.8600000000000005E-002    -7.7729819654861707E-013
   1.9700000000000023E-002    -6.7296596400841302E-013
   2.0800000000000013E-002    -5.2134576569406178E-013
   2.1900000000000003E-002    -3.7507705379907992E-013
   2.3000000000000020E-002    -2.8503278988657358E-013
   2.4100000000000010E-002    -2.6167525387201057E-013
   2.5200000000000000E-002    -2.6749709489817850E-013
   2.6300000000000018E-002    -2.4571975635387549E-013
   2.7400000000000008E-002    -1.6319795803266177E-013
   2.8500000000000025E-002    -3.5178492944062222E-014
   2.9600000000000015E-002     8.6387976987259723E-014
   3.0700000000000005E-002     1.5177579634209064E-013
   3.1800000000000023E-002     1.5025516171663617E-013
   3.2900000000000013E-002     1.1738934782665612E-013
   3.4000000000000002E-002     1.0797371576099757E-013
   3.5100000000000020E-002     1.5541009504532361E-013
   3.6200000000000010E-002     2.4800672042283167E-013
   3.7300000000000028E-002     3.3945575841518420E-013
   3.8400000000000017E-002     3.8488209454072183E-013
   3.9500000000000007E-002     3.7493613847144437E-013
   4.0600000000000025E-002     3.4243449457075401E-013
   4.1700000000000015E-002     3.3711423290492318E-013
   4.2800000000000005E-002     3.8803500751909330E-013
   4.3900000000000022E-002     4.8203189347200118E-013
   4.5000000000000012E-002     5.7404271073570534E-013
   4.6100000000000002E-002     6.2094264017972075E-013
   4.7200000000000020E-002     6.1308607719420232E-013
   4.8300000000000010E-002     5.8002484946439344E-013
   4.9400000000000027E-002     5.6676093670018202E-013
   5.0500000000000017E-002     5.9911298738914040E-013
   5.1600000000000007E-002     6.6456968786274726E-013
   5.2700000000000025E-002     7.2277372630458155E-013
   5.3800000000000014E-002     7.3710221689138658E-013
   5.4900000000000004E-002     7.0298009750261486E-013
   5.6000000000000022E-002     6.5141815245516173E-013
   5.7100000000000012E-002     6.2535555838971726E-013
   5.8200000000000002E-002     6.4703683711890171E-013
   5.9300000000000019E-002     7.0123268856000830E-013
   6.0400000000000009E-002     7.4683471986554581E-013
   6.1500000000000027E-002     7.4775856845898522E-013
   6.2600000000000017E-002     6.9961663079777068E-013
   6.3700000000000007E-002     6.3211772703145010E-013
   6.4800000000000024E-002     5.8574694218372872E-013
   6.5900000000000014E-002     5.8072383366307948E-013
   6.7000000000000004E-002     6.0183493072967229E-013
   6.8100000000000022E-002     6.1042793791883892E-013
   6.9200000000000012E-002     5.7416598324416753E-013
   7.0300000000000029E-002     4.9181388938866763E-013
   7.1400000000000019E-002     3.9433695838587983E-013
   7.2500000000000009E-002     3.2170208081742793E-013
   7.3600000000000027E-002     2.9312405682406878E-013
   7.4700000000000016E-002     2.9323242318980347E-013
   7.5800000000000006E-002     2.8434695301923908E-013
   7.6900000000000024E-002     2.3523725686432549E-013
   7.8000000000000014E-002     1.4446527608767815E-013
   7.9100000000000004E-002     4.0833607223106609E-014
   8.0200000000000021E-002    -3.8985143070641128E-014
   8.1300000000000011E-002    -7.8331764532045247E-014
   8.2400000000000029E-002    -9.2762454370402646E-014
   8.3500000000000019E-002    -1.1757961131733596E-013
   8.4600000000000009E-002    -1.8053051691750748E-013
   8.5700000000000026E-002    -2.8061157941102337E-013
   8.6800000000000016E-002    -3.8897520110444821E-013
   8.7900000000000006E-002    -4.7092483884317970E-013
   8.9000000000000024E-002    -5.1197576842235750E-013
   9.0100000000000013E-002    -5.2810452208226673E-013
   9.1200000000000003E-002    -5.5261708595145817E-013
   9.2300000000000021E-002    -6.0998710153681378E-013
   9.3400000000000011E-002    -6.9683820062076942E-013
   9.4500000000000028E-002    -7.8456202826528668E-013
   9.5600000000000018E-002    -8.4136522301716169E-013
   9.6700000000000008E-002    -8.5666282745657488E-013
   9.7800000000000026E-002    -8.4904365052972312E-013
   9.8900000000000016E-002    -8.5172368957915950E-013
  0.10000000000000001         -8.8670178623189412E-013
  0.10110000000000002         -9.4748741837441069E-013
  0.10220000000000001         -1.0036991810527168E-012
  0.10330000000000003         -1.0240975774987120E-012
  0.10440000000000002         -1.0005185653232666E-012
  0.10550000000000001         -9.5445471793406340E-013
  0.10660000000000003         -9.2122262016182169E-013
  0.10770000000000002         -9.2366955603417835E-013
  0.10880000000000001         -9.5528651778746294E-013
  0.10990000000000003         -9.8541367735435034E-013
  0.11100000000000002         -9.8247830843820160E-013
  0.11210000000000001         -9.3762681607642715E-013
  0.11320000000000002         -8.7098025793127694E-013
  0.11430000000000001         -8.1604655276574671E-013
  0.11540000000000003         -7.9438229612427150E-013
  0.11650000000000002         -7.9981290239726793E-013
  0.11760000000000001         -8.0401879390413201E-013
  0.11870000000000003         -7.7890894278451590E-013
  0.11980000000000002         -7.1848695205965918E-013
  0.12090000000000001         -6.4351301656721282E-013
  0.12200000000000003         -5.8560155017740019E-013
  0.12310000000000001         -5.6316637158970240E-013
  0.12420000000000003         -5.6775493221925454E-013
  0.12530000000000002         -5.7116420612819742E-013
  0.12640000000000001         -5.4765414946429793E-013
  0.12750000000000003         -4.9395475426085716E-013
  0.12860000000000002         -4.3154279168974865E-013
  0.12970000000000001         -3.8944021270509063E-013
  0.13080000000000003         -3.8093497207545354E-013
  0.13190000000000002         -3.9243274661533334E-013
  0.13300000000000001         -3.9335247554736693E-013
  0.13410000000000000         -3.5967872831139383E-013
  0.13520000000000004         -2.9303623607327417E-013
  0.13630000000000003         -2.2032751070133156E-013
  0.13740000000000002         -1.7378585576859519E-013
  0.13850000000000001         -1.6645693394827341E-013
  0.13960000000000000         -1.8194203824851265E-013
  0.14070000000000005         -1.8660597811814941E-013
  0.14180000000000004         -1.5531986091184986E-013
  0.14290000000000003         -9.1227418926683341E-014
  0.14400000000000002         -2.4210631238482227E-014
  0.14510000000000001          1.1276745734110831E-014
  0.14620000000000000          2.5617200811274417E-015
  0.14730000000000004         -3.0686247862750099E-014
  0.14840000000000003         -5.0071173126190177E-014
  0.14950000000000002         -2.6512003887265041E-014
  0.15060000000000001          3.8085677976027035E-014
  0.15170000000000000          1.1183615225480933E-013
  0.15280000000000005          1.5606175486628089E-013
  0.15390000000000004          1.5357451352651880E-013
  0.15500000000000003          1.2105450601393854E-013
  0.15610000000000002          9.6314245434669005E-014
  0.15720000000000001          1.0995242440676213E-013
  0.15830000000000000          1.6254074274374055E-013
  0.15940000000000004          2.2432592803617440E-013
  0.16050000000000003          2.5757857127718584E-013
  0.16160000000000002          2.4481154846551285E-013
  0.16270000000000001          2.0178636740370851E-013
  0.16380000000000000          1.6571305003561951E-013
  0.16490000000000005          1.6765709221297163E-013
  0.16600000000000004          2.0990564552621822E-013
  0.16710000000000003          2.6513947144423541E-013
  0.16820000000000002          2.9772730900974523E-013
  0.16930000000000001          2.9081408343722446E-013
  0.17040000000000000          2.5865716175664711E-013
  0.17150000000000004          2.3499225360918715E-013
  0.17260000000000003          2.4645676989517718E-013
  0.17370000000000002          2.9142828339442794E-013
  0.17480000000000001          3.4048463705886255E-013
  0.17590000000000000          3.5822931327031602E-013
  0.17700000000000005          3.2994714063312760E-013
  0.17810000000000004          2.7282134126247439E-013
  0.17920000000000003          2.2310553525137963E-013
  0.18030000000000002          2.0888763335093829E-013
  0.18140000000000001          2.2907034163518973E-013
  0.18250000000000000          2.5455768525727355E-013
  0.18360000000000004          2.5083033390756444E-013
  0.18470000000000003          2.0481423236089143E-013
  0.18580000000000002          1.3555610232877083E-013
  0.18690000000000001          8.0368436413592976E-014
  0.18800000000000000          6.6686862243721733E-014
  0.18910000000000005          9.0857293232507063E-014
  0.19020000000000004          1.2006708238782777E-013
  0.19130000000000003          1.1630972575091996E-013
  0.19240000000000002          6.4620150110976149E-014
  0.19350000000000001         -1.5587584950995464E-014
  0.19460000000000005         -8.4736484900982857E-014
  0.19570000000000004         -1.1239032822662033E-013
  0.19680000000000003         -9.9784200789490561E-014
  0.19790000000000002         -7.8666340893036561E-014
  0.19900000000000001         -8.7200211109131071E-014
  0.20010000000000000         -1.4087584858074884E-013
  0.20120000000000005         -2.2021955245203045E-013
  0.20230000000000004         -2.8463911854393608E-013
  0.20340000000000003         -3.0225501846300157E-013
  0.20450000000000002         -2.7359023068186145E-013
  0.20560000000000000         -2.3148578118627215E-013
  0.20670000000000005         -2.1724563932158448E-013
  0.20780000000000004         -2.5065442123264758E-013
  0.20890000000000003         -3.1601733818641963E-013
  0.21000000000000002         -3.7441539455218975E-013
  0.21110000000000001         -3.9288846473389694E-013
  0.21220000000000000         -3.6877491371888003E-013
  0.21330000000000005         -3.3119757746742101E-013
  0.21440000000000003         -3.1880799248819286E-013
  0.21550000000000002         -3.5055763333790365E-013
  0.21660000000000001         -4.1131843732928562E-013
  0.21770000000000000         -4.6294982534616232E-013
  0.21880000000000005         -4.7238872680028756E-013
  0.21990000000000004         -4.3575472790769746E-013
  0.22100000000000003         -3.8063215463092537E-013
  0.22210000000000002         -3.4511770300480247E-013
  0.22320000000000001         -3.4952671969768928E-013
  0.22430000000000000         -3.8192089190956950E-013
  0.22540000000000004         -4.0803064884791704E-013
  0.22650000000000003         -3.9777135880979791E-013
  0.22760000000000002         -3.4821326357338827E-013
  0.22870000000000001         -2.8574850038623156E-013
  0.22980000000000000         -2.4600574166598125E-013
  0.23090000000000005         -2.4683052153657445E-013
  0.23200000000000004         -2.7477361016614036E-013
  0.23310000000000003         -2.9524006770415053E-013
  0.23420000000000002         -2.7857655808461111E-013
  0.23530000000000001         -2.2239489563071132E-013
  0.23640000000000000         -1.5333037703223063E-013
  0.23750000000000004         -1.0697002778452896E-013
  0.23860000000000003         -1.0112531094870698E-013
  0.23970000000000002         -1.2260029341623032E-013
  0.24080000000000001         -1.3740812367113146E-013
  0.24190000000000000         -1.1672052994515132E-013
  0.24300000000000005         -5.8991941384365465E-014
  0.24410000000000004          8.4286319714784802E-015
  0.24520000000000003          4.9476248309041070E-014
  0.24630000000000002          4.6250404463880052E-014
  0.24740000000000001          1.2461096146136313E-014
  0.24850000000000005         -1.6653791347525439E-014
  0.24960000000000004         -1.0441319735483691E-014
  0.25070000000000003          3.4493288585402723E-014
  0.25180000000000002          9.1935837652159851E-014
  0.25290000000000001          1.2573996714079583E-013
  0.25400000000000000          1.1683038661402205E-013
  0.25510000000000005          7.7432370074879731E-014
  0.25620000000000004          4.2010224569595521E-014
  0.25730000000000003          4.1752211513269330E-014
  0.25840000000000002          8.1609814466930544E-014
  0.25950000000000001          1.3686691688750585E-013
  0.26060000000000005          1.7159656878993137E-013
  0.26170000000000004          1.6512417989176262E-013
  0.26280000000000003          1.2683764000660216E-013
  0.26390000000000002          8.8557767997199166E-014
  0.26500000000000001          8.0461190115253555E-014
  0.26610000000000000          1.0867173773442409E-013
  0.26720000000000005          1.5114285078436526E-013
  0.26830000000000004          1.7461382215585719E-013
  0.26940000000000003          1.5969083636207385E-013
  0.27050000000000002          1.1522616022732898E-013
  0.27160000000000001          7.1408542743782508E-014
  0.27270000000000005          5.7018998013442881E-014
  0.27380000000000004          7.8073879090694497E-014
  0.27490000000000003          1.1382477505009433E-013
  0.27600000000000002          1.3288988760004552E-013
  0.27710000000000001          1.1715761262967267E-013
  0.27820000000000000          7.5388703528202766E-014
  0.27930000000000005          3.6347392998253658E-014
  0.28040000000000004          2.6776859236833192E-014
  0.28150000000000003          5.0922516088260643E-014
  0.28260000000000002          8.7078727476266910E-014
  0.28370000000000001          1.0378002858677956E-013
  0.28480000000000005          8.3477929587356575E-014
  0.28590000000000004          3.5928650861300003E-014
  0.28700000000000003         -8.7612258839631730E-015
  0.28810000000000002         -2.2253776264004449E-014
  0.28920000000000001          1.2357553298410653E-015
  0.29030000000000000          4.0959301867952563E-014
  0.29140000000000005          6.5367959012422021E-014
  0.29250000000000004          5.5782575002291528E-014
  0.29360000000000003          2.0376634952896185E-014
  0.29470000000000002         -1.1873551716003954E-014
  0.29580000000000001         -1.2690418484736409E-014
  0.29690000000000005          2.4565753134778666E-014
  0.29800000000000004          8.0014879581224741E-014
  0.29910000000000003          1.2193341526806742E-013
  0.30020000000000002          1.3000849871956070E-013
  0.30130000000000001          1.0996732629796117E-013
  0.30240000000000000          8.8934678099634101E-014
  0.30350000000000005          9.5213929735249210E-014
  0.30460000000000004          1.3761400024710902E-013
  0.30570000000000003          1.9954541726341227E-013
  0.30680000000000002          2.5196058845618565E-013
  0.30790000000000001          2.7522171219034131E-013
  0.30900000000000005          2.7353802724032931E-013
  0.31010000000000004          2.7138000382190790E-013
  0.31120000000000003          2.9480215862780913E-013
  0.31230000000000002          3.5175494620905127E-013
  0.31340000000000001          4.2601433810588440E-013
  0.31450000000000006          4.8905703507215538E-013
  0.31560000000000005          5.2085028773671776E-013
  0.31670000000000004          5.2405735744644959E-013
  0.31780000000000003          5.2126531971519758E-013
  0.31890000000000002          5.3757106966168936E-013
  0.32000000000000001          5.8166166878832518E-013
  0.32110000000000005          6.3943191783210067E-013
  0.32220000000000004          6.8467215076786532E-013
  0.32330000000000003          6.9864160773560866E-013
  0.32440000000000002          6.8388220074412082E-013
  0.32550000000000001          6.6210892728062003E-013
  0.32660000000000006          6.5794624136243615E-013
  0.32770000000000005          6.8071448698258358E-013
  0.32880000000000004          7.1772519186363982E-013
  0.32990000000000003          7.4383543650608098E-013
  0.33100000000000002          7.3995610689737908E-013
  0.33210000000000001          7.0675463791153361E-013
  0.33320000000000005          6.6360019300353011E-013
  0.33430000000000004          6.3385808799587084E-013
  0.33540000000000003          6.2764951281631780E-013
  0.33650000000000002          6.3480188632993370E-013
  0.33760000000000001          6.3291830208918592E-013
  0.33870000000000006          6.0425188836643671E-013
  0.33980000000000005          5.4874913979202465E-013
  0.34090000000000004          4.8376406744264061E-013
  0.34200000000000003          4.3100543463438144E-013
  0.34310000000000002          4.0066354918312351E-013
  0.34420000000000001          3.8447006844565167E-013
  0.34530000000000005          3.6253150879948170E-013
  0.34640000000000004          3.1848042894754319E-013
  0.34750000000000003          2.5150381279442366E-013
  0.34860000000000002          1.7644995821971492E-013
  0.34970000000000001          1.1229418545104775E-013
  0.35080000000000006          6.7865857525124081E-014
  0.35190000000000005          3.5521396527261841E-014
  0.35300000000000004         -2.7495312516054811E-015
  0.35410000000000003         -6.1666526334926130E-014
  0.35520000000000002         -1.4182577369493017E-013
  0.35630000000000001         -2.2969847575157780E-013
  0.35740000000000005         -3.0819040304739411E-013
  0.35850000000000004         -3.6961679833444403E-013
  0.35960000000000003         -4.2133080209752050E-013
  0.36070000000000002         -4.7994995398611285E-013
  0.36180000000000001         -5.5873675711045489E-013
  0.36290000000000006         -6.5771715099452496E-013
  0.36400000000000005         -7.6388862419188766E-013
  0.36510000000000004         -8.6118503517562182E-013
  0.36620000000000003         -9.4257164655276421E-013
  0.36730000000000002         -1.0151679803408789E-012
  0.36840000000000006         -1.0946437937552329E-012
  0.36950000000000005         -1.1931921328886158E-012
  0.37060000000000004         -1.3101216020123139E-012
  0.37170000000000003         -1.4320517368124654E-012
  0.37280000000000002         -1.5424851001437249E-012
  0.37390000000000001         -1.6335940775640420E-012
  0.37500000000000006         -1.7115206744074086E-012
  0.37610000000000005         -1.7913841984410782E-012
  0.37720000000000004         -1.8857914273059451E-012
  0.37830000000000003         -1.9953166628943144E-012
  0.37940000000000002         -2.1077976504621123E-012
  0.38050000000000006         -2.2067261108511734E-012
  0.38160000000000005         -2.2824240217776466E-012
  0.38270000000000004         -2.3378844317884583E-012
  0.38380000000000003         -2.3853043985368937E-012
  0.38490000000000002         -2.4362050880312961E-012
  0.38600000000000001         -2.4925588808696734E-012
  0.38710000000000000         -2.5452877522312909E-012
  0.38819999999999999         -2.5808875303359936E-012
  0.38930000000000009         -2.5910046542654017E-012
  0.39040000000000008         -2.5779111781078986E-012
  0.39150000000000007         -2.5521373070823173E-012
  0.39260000000000006         -2.5244136069630200E-012
  0.39370000000000005         -2.4980733489123286E-012
  0.39480000000000004         -2.4673815370910836E-012
  0.39590000000000003         -2.4225937960166486E-012
  0.39700000000000002         -2.3575739750540720E-012
  0.39810000000000001         -2.2741704220784240E-012
  0.39920000000000000         -2.1803162444186089E-012
  0.40029999999999999         -2.0836882440070888E-012
  0.40140000000000009         -1.9859942561124493E-012
  0.40250000000000008         -1.8822178941037246E-012
  0.40360000000000007         -1.7651791374849408E-012
  0.40470000000000006         -1.6317008401925483E-012
  0.40580000000000005         -1.4855925634040288E-012
  0.40690000000000004         -1.3352727033245511E-012
  0.40800000000000003         -1.1880304595898546E-012
  0.40910000000000002         -1.0454384674397406E-012
  0.41020000000000001         -9.0340397206274490E-013
  0.41130000000000000         -7.5666452713193920E-013
  0.41239999999999999         -6.0408882187628735E-013
  0.41350000000000009         -4.5056565942786321E-013
  0.41460000000000008         -3.0396079104820628E-013
  0.41570000000000007         -1.6947552760096563E-013
  0.41680000000000006         -4.5791462300735128E-014
  0.41790000000000005          7.3934011462957472E-014
  0.41900000000000004          1.9682985842753938E-013
  0.42010000000000003          3.2467670110368320E-013
  0.42120000000000002          4.5207563279134806E-013
  0.42230000000000001          5.6982755040000575E-013
  0.42340000000000000          6.7108119065011025E-013
  0.42449999999999999          7.5576692066299851E-013
  0.42560000000000009          8.3009960415998484E-013
  0.42670000000000008          9.0155237570070174E-013
  0.42780000000000007          9.7299468477712171E-013
  0.42890000000000006          1.0402645502979204E-012
  0.43000000000000005          1.0949188562442512E-012
  0.43110000000000004          1.1301680033275629E-012
  0.43220000000000003          1.1457632755582306E-012
  0.43330000000000002          1.1484264011504684E-012
  0.43440000000000001          1.1476307050197775E-012
  0.43550000000000000          1.1497752568148958E-012
  0.43659999999999999          1.1547720193105381E-012
  0.43770000000000009          1.1571866459366470E-012
  0.43880000000000008          1.1508104529322663E-012
  0.43990000000000007          1.1332604723356557E-012
  0.44100000000000006          1.1074408480962233E-012
  0.44210000000000005          1.0791425208771519E-012
  0.44320000000000004          1.0528185258567108E-012
  0.44430000000000003          1.0286942686681022E-012
  0.44540000000000002          1.0031675960010128E-012
  0.44650000000000001          9.7195515031491878E-013
  0.44760000000000000          9.3351888239586144E-013
  0.44869999999999999          8.9029700029839727E-013
  0.44980000000000009          8.4703261748350951E-013
  0.45090000000000008          8.0763558383185218E-013
  0.45200000000000007          7.7296176853629940E-013
  0.45310000000000006          7.4104518778556523E-013
  0.45420000000000005          7.0940746381700962E-013
  0.45530000000000004          6.7756124774089473E-013
  0.45640000000000003          6.4778677935192349E-013
  0.45750000000000002          6.2363747706478631E-013
  0.45860000000000001          6.0734170161328370E-013
  0.45970000000000000          5.9805551003364116E-013
  0.46079999999999999          5.9225817261397238E-013
  0.46190000000000009          5.8601197548310435E-013
  0.46300000000000008          5.7749285690435755E-013
  0.46410000000000007          5.6805292540712792E-013
  0.46520000000000006          5.6114872593961867E-013
  0.46630000000000005          5.5995409773359600E-013
  0.46740000000000004          5.6532561471511927E-013
  0.46850000000000003          5.7546138707979896E-013
  0.46960000000000002          5.8737899148544544E-013
  0.47070000000000001          5.9910718574657133E-013
  0.47180000000000000          6.1106680293411395E-013
  0.47289999999999999          6.2573540764455077E-013
  0.47400000000000009          6.4587224020195178E-013
  0.47510000000000008          6.7251851416845904E-013
  0.47620000000000007          7.0408283759934638E-013
  0.47730000000000006          7.3706562272404850E-013
  0.47840000000000005          7.6790260911195917E-013