 -0.12000000000000000          0.0000000000000000     
 -0.11889999999999999          2.3983400246061445E-014
 -0.11780000000000000          6.5024460858076409E-014
 -0.11670000000000000          1.1225947355914202E-013
 -0.11559999999999999          1.5418771804887302E-013
 -0.11449999999999999          1.8202581822830727E-013
 -0.11340000000000000          1.9203155935070370E-013
 -0.11230000000000000          1.8612114659143934E-013
 -0.11119999999999999          1.7071732427654414E-013
 -0.11009999999999999          1.5434836858093066E-013
 -0.10900000000000000          1.4486501191383012E-013
 -0.10790000000000000          1.4716199712175452E-013
 -0.10679999999999999          1.6202058417221808E-013
 -0.10569999999999999          1.8626471278556553E-013
 -0.10460000000000000          2.1401049855548148E-013
 -0.10349999999999999          2.3851487548839406E-013
 -0.10239999999999999          2.5404742529370474E-013
 -0.10130000000000000          2.5729883362328312E-013
 -0.10020000000000000          2.4803491641118707E-013
  -9.9099999999999994E-002     2.2893076558465203E-013
  -9.7999999999999990E-002     2.0471819724537472E-013
  -9.6899999999999986E-002     1.8091681943159312E-013
  -9.5799999999999996E-002     1.6248239103223872E-013
  -9.4699999999999993E-002     1.5269430537647760E-013
  -9.3599999999999989E-002     1.5252376804265904E-013
  -9.2499999999999999E-002     1.6059566431330530E-013
  -9.1399999999999995E-002     1.7370817140246821E-013
  -9.0299999999999991E-002     1.8774362851475915E-013
  -8.9200000000000002E-002     1.9872429716419675E-013
  -8.8099999999999984E-002     2.0375615152111970E-013
  -8.6999999999999994E-002     2.0165558948811638E-013
  -8.5899999999999990E-002     1.9314501904261819E-013
  -8.4799999999999986E-002     1.8060266576524809E-013
  -8.3699999999999997E-002     1.6743844857483382E-013
  -8.2599999999999993E-002     1.5723168734206961E-013
  -8.1499999999999989E-002     1.5281042223634931E-013
  -8.0399999999999999E-002     1.5547615252568332E-013
  -7.9299999999999995E-002     1.6457263186977313E-013
  -7.8199999999999992E-002     1.7754711396712711E-013
  -7.7100000000000002E-002     1.9054670053703297E-013
  -7.5999999999999984E-002     1.9944268748053661E-013
  -7.4899999999999994E-002     2.0102214326050377E-013
  -7.3799999999999991E-002     1.9398986947754050E-013
  -7.2699999999999987E-002     1.7943832319443134E-013
  -7.1599999999999997E-002     1.6058749014042192E-013
  -7.0499999999999993E-002     1.4183501195980411E-013
  -6.9399999999999989E-002     1.2740603277552056E-013
  -6.8300000000000000E-002     1.2005228933839388E-013
  -6.7199999999999996E-002     1.2024968404102241E-013
  -6.6099999999999992E-002     1.2617065838175095E-013
  -6.5000000000000002E-002     1.3442593845978522E-013
  -6.3899999999999985E-002     1.4128688248461772E-013
  -6.2799999999999995E-002     1.4393047698659260E-013
  -6.1699999999999991E-002     1.4125966770961442E-013
  -6.0599999999999994E-002     1.3403593163830665E-013
  -5.9499999999999990E-002     1.2434009964562181E-013
  -5.8399999999999994E-002     1.1463511875580063E-013
  -5.7299999999999990E-002     1.0683625050738164E-013
  -5.6199999999999986E-002     1.0175248177901767E-013
  -5.5099999999999996E-002     9.9073865457142502E-014
  -5.3999999999999992E-002     9.7830277176256724E-014
  -5.2899999999999989E-002     9.7048091136610397E-014
  -5.1799999999999985E-002     9.6266489787590332E-014
  -5.0699999999999995E-002     9.5667505655590617E-014
  -4.9599999999999991E-002     9.5777722814594144E-014
  -4.8499999999999988E-002     9.6918334665349713E-014
  -4.7399999999999998E-002     9.8713217985124120E-014
  -4.6299999999999994E-002     9.9948301639310715E-014
  -4.5199999999999990E-002     9.8914458901303558E-014
  -4.4099999999999986E-002     9.4130934050571532E-014
  -4.2999999999999997E-002     8.5144532266931139E-014
  -4.1899999999999993E-002     7.3027033266733931E-014
  -4.0799999999999989E-002     6.0291203076146716E-014
  -3.9699999999999985E-002     5.0180002880368928E-014
  -3.8599999999999995E-002     4.5556135260321706E-014
  -3.7499999999999992E-002     4.7811792007223605E-014
  -3.6399999999999988E-002     5.6241925506100033E-014
  -3.5299999999999984E-002     6.8161875485947550E-014
  -3.4199999999999994E-002     7.9763868876809862E-014
  -3.3099999999999991E-002     8.7414272985174676E-014
  -3.1999999999999987E-002     8.8915302745077801E-014
  -3.0899999999999997E-002     8.4264510243103979E-014
  -2.9799999999999993E-002     7.5637204774328224E-014
  -2.8699999999999989E-002     6.6611323654537660E-014
  -2.7599999999999986E-002     6.0932004500917907E-014
  -2.6499999999999996E-002     6.1268182805804690E-014
  -2.5399999999999992E-002     6.8392430613423431E-014
  -2.4299999999999988E-002     8.1038989640872215E-014
  -2.3199999999999985E-002     9.6439626478990569E-014
  -2.2099999999999995E-002     1.1130371631829797E-013
  -2.0999999999999991E-002     1.2287889041918308E-013
  -1.9899999999999987E-002     1.2973708339444826E-013
  -1.8799999999999983E-002     1.3205912144649721E-013
  -1.7699999999999994E-002     1.3138156255235834E-013
  -1.6599999999999990E-002     1.2995055449989841E-013
  -1.5499999999999986E-002     1.2993977975575303E-013
  -1.4399999999999996E-002     1.3280335127297105E-013
  -1.3299999999999992E-002     1.3895694034036073E-013
  -1.2199999999999989E-002     1.4784466450495473E-013
  -1.1099999999999985E-002     1.5830831059586920E-013
  -9.9999999999999950E-003     1.6907789200594528E-013
  -8.8999999999999913E-003     1.7918138380015281E-013
  -7.7999999999999875E-003     1.8813118294003011E-013
  -6.6999999999999837E-003     1.9585754025840877E-013
  -5.5999999999999939E-003     2.0247707665182517E-013
  -4.4999999999999901E-003     2.0805366082834467E-013
  -3.3999999999999864E-003     2.1249950540303801E-013
  -2.2999999999999826E-003     2.1567762419924177E-013
  -1.1999999999999927E-003     2.1764532020725584E-013
  -9.9999999999988987E-005     2.1888401948570748E-013
   1.0000000000000148E-003     2.2034525094310121E-013
   2.1000000000000185E-003     2.2322224722282409E-013
   3.2000000000000084E-003     2.2849892482551606E-013
   4.3000000000000121E-003     2.3646285110402597E-013
   5.4000000000000159E-003     2.4642412487003296E-013
   6.5000000000000058E-003     2.5681912313173959E-013
   7.6000000000000234E-003     2.6571555808679243E-013
   8.7000000000000133E-003     2.7154501100411085E-013
   9.8000000000000032E-003     2.7376332604623175E-013
   1.0900000000000021E-002     2.7314355856084215E-013
   1.2000000000000011E-002     2.7154973782318275E-013
   1.3100000000000001E-002     2.7126054075670131E-013
   1.4200000000000018E-002     2.7411155921992007E-013
   1.5300000000000008E-002     2.8080961767710396E-013
   1.6400000000000026E-002     2.9070090961327687E-013
   1.7500000000000016E-002     3.0207865980963342E-013
   1.8600000000000005E-002     3.1288380168082171E-013
   1.9700000000000023E-002     3.2148941973806557E-013
   2.0800000000000013E-002     3.2723750886409082E-013
   2.1900000000000003E-002     3.3051954955791052E-013
   2.3000000000000020E-002     3.3240113163683954E-013
   2.4100000000000010E-002     3.3398901302912822E-013
   2.5200000000000000E-002     3.3583792199901931E-013
   2.6300000000000018E-002     3.3765881988656158E-013
   2.7400000000000008E-002     3.3844049899747947E-013
   2.8500000000000025E-002     3.3690809432721893E-013
   2.9600000000000015E-002     3.3209676347451849E-013
   3.0700000000000005E-002     3.2377935436151136E-013
   3.1800000000000023E-002     3.1256108642747850E-013
   3.2900000000000013E-002     2.9960668291750244E-013
   3.4000000000000002E-002     2.8612614075600358E-013
   3.5100000000000020E-002     2.7284615934720236E-013
   3.6200000000000010E-002     2.5969857547334464E-013
   3.7300000000000028E-002     2.4586321603076214E-013
   3.8400000000000017E-002     2.3015403106989216E-013
   3.9500000000000007E-002     2.1159245046871178E-013
   4.0600000000000025E-002     1.8993000160297518E-013
   4.1700000000000015E-002     1.6589440907687261E-013
   4.2800000000000005E-002     1.4103793227776496E-013
   4.3900000000000022E-002     1.1722359487480870E-013
   4.5000000000000012E-002     9.5935293300168694E-014
   4.6100000000000002E-002     7.7680466838393123E-014
   4.7200000000000020E-002     6.1733602263416990E-014
   4.8300000000000010E-002     4.6347420402541107E-014
   4.9400000000000027E-002     2.9378694326887871E-014
   5.0500000000000017E-002     9.1068000395251850E-015
   5.1600000000000007E-002    -1.5065530162712479E-014
   5.2700000000000025E-002    -4.2307727031431706E-014
   5.3800000000000014E-002    -7.0585589718271938E-014
   5.4900000000000004E-002    -9.7341281343631718E-014
   5.6000000000000022E-002    -1.2037394164284143E-013
   5.7100000000000012E-002    -1.3858238432514476E-013
   5.8200000000000002E-002    -1.5228405404882907E-013
   5.9300000000000019E-002    -1.6299395832450552E-013
   6.0400000000000009E-002    -1.7276415243707357E-013
   6.1500000000000027E-002    -1.8335817191100668E-013
   6.2600000000000017E-002    -1.9559331864123481E-013
   6.3700000000000007E-002    -2.0910304918109271E-013
   6.4800000000000024E-002    -2.2258879010983129E-013
   6.5900000000000014E-002    -2.3442490727317443E-013
   6.7000000000000004E-002    -2.4334123234821949E-013
   6.8100000000000022E-002    -2.4889018536650149E-013
   6.9200000000000012E-002    -2.5151555835648205E-013
   7.0300000000000029E-002    -2.5222208695571632E-013
   7.1400000000000019E-002    -2.5201837949500435E-013
   7.2500000000000009E-002    -2.5139664488861416E-013
   7.3600000000000027E-002    -2.5008070741767780E-013
   7.4700000000000016E-002    -2.4714502261710931E-013
   7.5800000000000006E-002    -2.4143662970244247E-013
   7.6900000000000024E-002    -2.3210033730648369E-013
   7.8000000000000014E-002    -2.1897003130210460E-013
   7.9100000000000004E-002    -2.0265654070094372E-013
   8.0200000000000021E-002    -1.8430395923247462E-013
   8.1300000000000011E-002    -1.6513301453923558E-013
   8.2400000000000029E-002    -1.4598054730608688E-013
   8.3500000000000019E-002    -1.2703894923838116E-013
   8.4600000000000009E-002    -1.0790501409962266E-013
   8.5700000000000026E-002    -8.7907411895751981E-014
   8.6800000000000016E-002    -6.6558395262141673E-014
   8.7900000000000006E-002    -4.3921005423300546E-014
   8.9000000000000024E-002    -2.0720709831180028E-014
   9.0100000000000013E-002     1.8576327319796493E-015
   9.1200000000000003E-002     2.2608119221833999E-014
   9.2300000000000021E-002     4.0792283479633194E-014
   9.3400000000000011E-002     5.6464045902458129E-014
   9.4500000000000028E-002     7.0479084624810433E-014
   9.5600000000000018E-002     8.4163642010630076E-014
   9.6700000000000008E-002     9.8759017849565084E-014
   9.7800000000000026E-002     1.1485489735043926E-013
   9.8900000000000016E-002     1.3203732757411655E-013
  0.10000000000000001          1.4889824023480740E-013
  0.10110000000000002          1.6341439855573573E-013
  0.10220000000000001          1.7355954082916355E-013
  0.10330000000000003          1.7792300172807439E-013
  0.10440000000000002          1.7610832120633058E-013
  0.10550000000000001          1.6877491345121926E-013
  0.10660000000000003          1.5732800423074568E-013
  0.10770000000000002          1.4339695283488648E-013
  0.10880000000000001          1.2831422854210522E-013
  0.10990000000000003          1.1278845216842546E-013
  0.11100000000000002          9.6867312857469248E-014
  0.11210000000000001          8.0154346315242630E-014
  0.11320000000000002          6.2137628690031842E-014
  0.11430000000000001          4.2454275894353398E-014
  0.11540000000000003          2.0964157598780445E-014
  0.11650000000000002         -2.3858633588553075E-015
  0.11760000000000001         -2.7812719072045253E-014
  0.11870000000000003         -5.5903894508631031E-014
  0.11980000000000002         -8.7635865654981604E-014
  0.12090000000000001         -1.2414795075016064E-013
  0.12200000000000003         -1.6633592868047172E-013
  0.12310000000000001         -2.1442722720506234E-013
  0.12420000000000003         -2.6772748849564881E-013
  0.12530000000000002         -3.2467151560163476E-013
  0.12640000000000001         -3.8319261891360607E-013
  0.12750000000000003         -4.4129177905990069E-013
  0.12860000000000002         -4.9760007473880294E-013
  0.12970000000000001         -5.5172083991808498E-013
  0.13080000000000003         -6.0421909373461941E-013
  0.13190000000000002         -6.5626099543605474E-013
  0.13300000000000001         -7.0904218308883696E-013
  0.13410000000000000         -7.6322630884010885E-013
  0.13520000000000004         -8.1860839881794827E-013
  0.13630000000000003         -8.7412697091483627E-013
  0.13740000000000002         -9.2820598598264364E-013
  0.13850000000000001         -9.7927591269184926E-013
  0.13960000000000000         -1.0262530867990421E-012
  0.14070000000000005         -1.0687741577993294E-012
  0.14180000000000004         -1.1070929518608938E-012
  0.14290000000000003         -1.1416865646374842E-012
  0.14400000000000002         -1.1727486156227640E-012
  0.14510000000000001         -1.1997950997230918E-012
  0.14620000000000000         -1.2215692318069530E-012
  0.14730000000000004         -1.2363070393166543E-012
  0.14840000000000003         -1.2422730047091637E-012
  0.14950000000000002         -1.2383634563237751E-012
  0.15060000000000001         -1.2245383293326157E-012
  0.15170000000000000         -1.2019101713148475E-012
  0.15280000000000005         -1.1724524832472477E-012
  0.15390000000000004         -1.1384368147578540E-012
  0.15500000000000003         -1.1018082168038198E-012
  0.15610000000000002         -1.0637236936339584E-012
  0.15720000000000001         -1.0244019712243463E-012
  0.15830000000000000         -9.8330649399800209E-013
  0.15940000000000004         -9.3955391590325490E-013
  0.16050000000000003         -8.9236962602790686E-013
  0.16160000000000002         -8.4141011796465140E-013
  0.16270000000000001         -7.8685187666539195E-013
  0.16380000000000000         -7.2924977996864545E-013
  0.16490000000000005         -6.6926578830058979E-013
  0.16600000000000004         -6.0741083696305488E-013
  0.16710000000000003         -5.4392095119353015E-013
  0.16820000000000002         -4.7881425556847082E-013
  0.16930000000000001         -4.1208723068556099E-013
  0.17040000000000000         -3.4394117189344149E-013
  0.17150000000000004         -2.7491741408189823E-013
  0.17260000000000003         -2.0586348056395237E-013
  0.17370000000000002         -1.3773285374599119E-013
  0.17480000000000001         -7.1302513872276880E-014
  0.17590000000000000         -6.9369374809036172E-015
  0.17700000000000005          5.5486209506617902E-014
  0.17810000000000004          1.1644266600615220E-013
  0.17920000000000003          1.7646880991780365E-013
  0.18030000000000002          2.3583601780992439E-013
  0.18140000000000001          2.9434283129272108E-013
  0.18250000000000000          3.5133127620404863E-013
  0.18360000000000004          4.0593666133877284E-013
  0.18470000000000003          4.5747179896410158E-013
  0.18580000000000002          5.0577857857462565E-013
  0.18690000000000001          5.5138204049554743E-013
  0.18800000000000000          5.9536182306245810E-013
  0.18910000000000005          6.3897745086407165E-013
  0.19020000000000004          6.8319459208359595E-013
  0.19130000000000003          7.2831015503700339E-013
  0.19240000000000002          7.7383782280010965E-013
  0.19350000000000001          8.1871059874092286E-013
  0.19460000000000005          8.6172341459861279E-013
  0.19570000000000004          9.0203904449786721E-013
  0.19680000000000003          9.3955394587988973E-013
  0.19790000000000002          9.7497940267487795E-013
  0.19900000000000001          1.0096099975260795E-012
  0.20010000000000000          1.0448737319518374E-012
  0.20120000000000005          1.0818440347896560E-012
  0.20230000000000004          1.1208973521717943E-012
  0.20340000000000003          1.1616394721163373E-012
  0.20450000000000002          1.2031120779396388E-012
  0.20560000000000000          1.2441866804907985E-012
  0.20670000000000005          1.2839827861960917E-012
  0.20780000000000004          1.3221482276662705E-012
  0.20890000000000003          1.3588962890207712E-012
  0.21000000000000002          1.3947916917101479E-012
  0.21110000000000001          1.4303724948186133E-012
  0.21220000000000000          1.4657575286651050E-012
  0.21330000000000005          1.5003916415000847E-012
  0.21440000000000003          1.5330291802590915E-012
  0.21550000000000002          1.5619649107185801E-012
  0.21660000000000001          1.5854238166639181E-012
  0.21770000000000000          1.6019651441389085E-012
  0.21880000000000005          1.6107493753706965E-012
  0.21990000000000004          1.6115779742620728E-012
  0.22100000000000003          1.6047073976364050E-012
  0.22210000000000002          1.5905335147819614E-012
  0.22320000000000001          1.5692920084200526E-012
  0.22430000000000000          1.5409046153775970E-012
  0.22540000000000004          1.5050311699737079E-012
  0.22650000000000003          1.4612884601235206E-012
  0.22760000000000002          1.4095178907879220E-012
  0.22870000000000001          1.3499646704471116E-012
  0.22980000000000000          1.2832703308335794E-012
  0.23090000000000005          1.2102726176533309E-012
  0.23200000000000004          1.1317003975970566E-012
  0.23310000000000003          1.0479021002225152E-012
  0.23420000000000002          9.5873836103126234E-013
  0.23530000000000001          8.6369938675465968E-013
  0.23640000000000000          7.6220972215375641E-013
  0.23750000000000004          6.5400352987988089E-013
  0.23860000000000003          5.3942288094808573E-013
  0.23970000000000002          4.1952479749436901E-013
  0.24080000000000001          2.9595966916094488E-013
  0.24190000000000000          1.7067477918211703E-013
  0.24300000000000005          4.5558548167328499E-014
  0.24410000000000004         -7.7844726650785427E-014
  0.24520000000000003         -1.9845846639668009E-013
  0.24630000000000002         -3.1561517085538697E-013
  0.24740000000000001         -4.2886627672437773E-013
  0.24850000000000005         -5.3775696485476387E-013
  0.24960000000000004         -6.4166352647790905E-013
  0.25070000000000003         -7.3975331555384697E-013
  0.25180000000000002         -8.3107032333268712E-013
  0.25290000000000001         -9.1469436965456755E-013
  0.25400000000000000         -9.8989720041308024E-013
  0.25510000000000005         -1.0562285297737255E-012
  0.25620000000000004         -1.1135041574237380E-012
  0.25730000000000003         -1.1617162793709345E-012
  0.25840000000000002         -1.2009221338613839E-012
  0.25950000000000001         -1.2311705130200496E-012
  0.26060000000000005         -1.2524994777353345E-012
  0.26170000000000004         -1.2649971746374400E-012
  0.26280000000000003         -1.2688771320396448E-012
  0.26390000000000002         -1.2645129240370496E-012
  0.26500000000000001         -1.2523953583686302E-012
  0.26610000000000000         -1.2330224047743359E-012
  0.26720000000000005         -1.2067735273316062E-012
  0.26830000000000004         -1.1738424767398090E-012
  0.26940000000000003         -1.1342802650083158E-012
  0.27050000000000002         -1.0881559257401008E-012
  0.27160000000000001         -1.0357808245526477E-012
  0.27270000000000005         -9.7790366782022779E-013
  0.27380000000000004         -9.1578254481667567E-013
  0.27490000000000003         -8.5108194840249205E-013
  0.27600000000000002         -7.8561099757066272E-013
  0.27710000000000001         -7.2098247987557392E-013
  0.27820000000000000         -6.5831146741057930E-013
  0.27930000000000005         -5.9806107305907854E-013
  0.28040000000000004         -5.4009349773880130E-013
  0.28150000000000003         -4.8391108886771500E-013
  0.28260000000000002         -4.2900190493556132E-013
  0.28370000000000001         -3.7516572034514436E-013
  0.28480000000000005         -3.2270119631829100E-013
  0.28590000000000004         -2.7238309452137507E-013
  0.28700000000000003         -2.2523505359215578E-013
  0.28810000000000002         -1.8217925984878793E-013
  0.28920000000000001         -1.4369605839944372E-013
  0.29030000000000000         -1.0962860545389921E-013
  0.29140000000000005         -7.9219234543380431E-014
  0.29250000000000004         -5.1377756281032560E-014
  0.29360000000000003         -2.5089892682441692E-014
  0.29470000000000002          1.8839297814307758E-016
  0.29580000000000001          2.4307986896859039E-014
  0.29690000000000005          4.6471742354472084E-014
  0.29800000000000004          6.5539604350259656E-014
  0.29910000000000003          8.0479333104017875E-014
  0.30020000000000002          9.0785613382061301E-014
  0.30130000000000001          9.6699337965128965E-014
  0.30240000000000000          9.9139589536769371E-014
  0.30350000000000005          9.9378801407762968E-014
  0.30460000000000004          9.8597674496999858E-014
  0.30570000000000003          9.7503603657300744E-014
  0.30680000000000002          9.6165679693313502E-014
  0.30790000000000001          9.4123216514980550E-014
  0.30900000000000005          9.0707531028242428E-014
  0.31010000000000004          8.5427554998150670E-014
  0.31120000000000003          7.8247211679735490E-014
  0.31230000000000002          6.9632784336322586E-014
  0.31340000000000001          6.0348876154694137E-014
  0.31450000000000006          5.1088187518398863E-014
  0.31560000000000005          4.2089888556726336E-014
  0.31670000000000004          3.2907532077426513E-014
  0.31780000000000003          2.2430476119056533E-014
  0.31890000000000002          9.1667985813778048E-015
  0.32000000000000001         -8.3023645341070610E-015
  0.32110000000000005         -3.0851702141423940E-014
  0.32220000000000004         -5.8488047124532855E-014
  0.32330000000000003         -9.0291054124086822E-014
  0.32440000000000002         -1.2464808640155131E-013
  0.32550000000000001         -1.5971573364866447E-013
  0.32660000000000006         -1.9396449325093507E-013
  0.32770000000000005         -2.2663331869990565E-013
  0.32880000000000004         -2.5794720671757437E-013
  0.32990000000000003         -2.8902392710238965E-013
  0.33100000000000002         -3.2149409014600317E-013
  0.33210000000000001         -3.5694819773588845E-013
  0.33320000000000005         -3.9637734172574521E-013
  0.33430000000000004         -4.3977628541598938E-013
  0.33540000000000003         -4.8602702318755549E-013
  0.33650000000000002         -5.3309828094872575E-013
  0.33760000000000001         -5.7850664835708118E-013
  0.33870000000000006         -6.1991393876614501E-013
  0.33980000000000005         -6.5570365686467276E-013
  0.34090000000000004         -6.8538641699577471E-013
  0.34200000000000003         -7.0973010502849850E-013
  0.34310000000000002         -7.3057624283207323E-013
  0.34420000000000001         -7.5037922624093120E-013
  0.34530000000000005         -7.7157050748889987E-013
  0.34640000000000004         -7.9589538947934721E-013
  0.34750000000000003         -8.2388539196975536E-013
  0.34860000000000002         -8.5460524106597220E-013
  0.34970000000000001         -8.8575411160400799E-013
  0.35080000000000006         -9.1411646388354553E-013
  0.35190000000000005         -9.3626254160243975E-013
  0.35300000000000004         -9.4932960947575027E-013
  0.35410000000000003         -9.5168237247865030E-013
  0.35520000000000002         -9.4327935802049228E-013
  0.35630000000000001         -9.2564936191746475E-013
  0.35740000000000005         -9.0148927743007924E-013
  0.35850000000000004         -8.7400255181640842E-013
  0.35960000000000003         -8.4616487997029645E-013
  0.36070000000000002         -8.2011635634213185E-013
  0.36180000000000001         -7.9683095794744418E-013
  0.36290000000000006         -7.7611989436849670E-013
  0.36400000000000005         -7.5691846772838801E-013
  0.36510000000000004         -7.3772373159670494E-013
  0.36620000000000003         -7.1701660414069789E-013
  0.36730000000000002         -6.9353187489908219E-013
  0.36840000000000006         -6.6631913778370582E-013
  0.36950000000000005         -6.3463521803761763E-013
  0.37060000000000004         -5.9779038925722267E-013
  0.37170000000000003         -5.5509487657217247E-013
  0.37280000000000002         -5.0601267354202845E-013
  0.37390000000000001         -4.5053016525693279E-013
  0.37500000000000006         -3.8962892008781470E-013
  0.37610000000000005         -3.2566232451794997E-013
  0.37720000000000004         -2.6241457261438542E-013
  0.37830000000000003         -2.0469155625972240E-013
  0.37940000000000002         -1.5743628190798313E-013
  0.38050000000000006         -1.2453623007144553E-013
  0.38160000000000005         -1.0763132496922223E-013
  0.38270000000000004         -1.0528679297716947E-013
  0.38380000000000003         -1.1283600413395503E-013
  0.38490000000000002         -1.2303440493563596E-013
  0.38600000000000001         -1.2744385213001632E-013
  0.38710000000000000         -1.1825292899372024E-013
  0.38819999999999999         -9.0099390514342004E-014
  0.38930000000000009         -4.1438812737224049E-014
  0.39040000000000008          2.4894057529727655E-014
  0.39150000000000007          1.0208691205967431E-013
  0.39260000000000006          1.8063438365210674E-013
  0.39370000000000005          2.5021644193636393E-013
  0.39480000000000004          3.0175304327898096E-013
  0.39590000000000003          3.2919885096374225E-013
  0.39700000000000002          3.3072491298651138E-013
  0.39810000000000001          3.0909117157955684E-013
  0.39920000000000000          2.7119034870246748E-013
  0.40029999999999999          2.2690005119648036E-013
  0.40140000000000009          1.8748040421782159E-013
  0.40250000000000008          1.6379222579214958E-013
  0.40360000000000007          1.6459887383001551E-013
  0.40470000000000006          1.9517172603237856E-013
  0.40580000000000005          2.5636829266549894E-013
  0.40690000000000004          3.4430069521279354E-013
  0.40800000000000003          4.5065941415321283E-013
  0.40910000000000002          5.6369478389946730E-013
  0.41020000000000001          6.6977939167427411E-013
  0.41130000000000000          7.5538325321059463E-013
  0.41239999999999999          8.0920568831892252E-013
  0.41350000000000009          8.2414477421525489E-013
  0.41460000000000008          7.9876881869280091E-013
  0.41570000000000007          7.3799964162767748E-013
  0.41680000000000006          6.5281780992623266E-013
  0.41790000000000005          5.5894769281978515E-013
  0.41900000000000004          4.7464845364195448E-013
  0.42010000000000003          4.1789916712156137E-013
  0.42120000000000002          4.0339757182620068E-013
  0.42230000000000001          4.3986363649186856E-013
  0.42340000000000000          5.2813745894896509E-013
  0.42449999999999999          6.6046930383446450E-013
  0.42560000000000009          8.2122739094256519E-013
  0.42670000000000008          9.8901314308540646E-013
  0.42780000000000007          1.1399136127597789E-012
  0.42890000000000006          1.2513891253829237E-012
  0.43000000000000005          1.3061369188375351E-012
  0.43110000000000004          1.2952361982961532E-012
  0.43220000000000003          1.2199749973874649E-012
  0.43330000000000002          1.0919785962636427E-012
  0.43440000000000001          9.3155989637456276E-013
  0.43550000000000000          7.6453566271242044E-013
  0.43659999999999999          6.1804143242170848E-013
  0.43770000000000009          5.1606023487454657E-013
  0.43880000000000008          4.7544006223436151E-013
  0.43990000000000007          5.0308158697954095E-013
  0.44100000000000006          5.9476691602563172E-013
  0.44210000000000005          7.3580472858550712E-013
  0.44320000000000004          9.0335526476376917E-013
  0.44430000000000003          1.0700210526270215E-012
  0.44540000000000002          1.2081018416488527E-012
  0.44650000000000001          1.2938315862398306E-012
  0.44760000000000000          1.3109472774450183E-012
  0.44869999999999999          1.2530639865582613E-012
  0.44980000000000009          1.1245198846984621E-012
  0.45090000000000008          9.3957590628685859E-013
  0.45200000000000007          7.2008872864949571E-013
  0.45310000000000006          4.9199673407118920E-013
  0.45420000000000005          2.8114090525936470E-013
  0.45530000000000004          1.0907366159190856E-013
  0.45640000000000003         -1.0455282834761052E-014
  0.45750000000000002         -7.3712289649812931E-014
  0.45860000000000001         -8.7453297573797911E-014
  0.45970000000000000         -6.7501200268096185E-014
  0.46079999999999999         -3.5612070648839236E-014
  0.46190000000000009         -1.5150856414556820E-014
  0.46300000000000008         -2.6357111092439602E-014
  0.46410000000000007         -8.2103720083942535E-014
  0.46520000000000006         -1.8499677390427682E-013
  0.46630000000000005         -3.2643347057433840E-013
  0.46740000000000004         -4.8786332041401941E-013
  0.46850000000000003         -6.4406164701375745E-013
  0.46960000000000002         -7.6781613308722008E-013
  0.47070000000000001         -8.3514043539058116E-013
  0.47180000000000000         -8.3003049632610168E-013
  0.47289999999999999         -7.4789304673530674E-013
  0.47400000000000009         -5.9706789408967699E-013
  0.47510000000000008         -3.9826028863263985E-013
  0.47620000000000007         -1.8209577332579354E-013
  0.47730000000000006          1.4687013780684002E-014
  0.47840000000000005          1.5373729318842026E-013