 -0.12000000000000000          0.0000000000000000     
 -0.11889999999999999         -2.2945437572490372E-005
 -0.11780000000000000         -4.6569653745114623E-005
 -0.11670000000000000         -5.1132816190671402E-005
 -0.11559999999999999         -3.7316319563934918E-005
 -0.11449999999999999         -1.8887416850874833E-005
 -0.11340000000000000         -6.5959931309688883E-006
 -0.11230000000000000         -4.5137030794163882E-006
 -0.11119999999999999         -1.4339970492771608E-005
 -0.11009999999999999         -3.2903689390982702E-005
 -0.10900000000000000         -4.7483274141041322E-005
 -0.10790000000000000         -4.4397471499854664E-005
 -0.10679999999999999         -2.5585589505263364E-005
 -0.10569999999999999         -9.3608743817754042E-006
 -0.10460000000000000         -1.0166457244078928E-005
 -0.10349999999999999         -2.3009951075441109E-005
 -0.10239999999999999         -3.2913640011851704E-005
 -0.10130000000000000         -3.4324380725385536E-005
 -0.10020000000000000         -3.3252941074031100E-005
  -9.9099999999999994E-002    -3.3220928074908628E-005
  -9.7999999999999990E-002    -2.9655679758366362E-005
  -9.6899999999999986E-002    -2.0655900848363012E-005
  -9.5799999999999996E-002    -1.4268311558725386E-005
  -9.4699999999999993E-002    -1.8574066002925065E-005
  -9.3599999999999989E-002    -2.9642888024605264E-005
  -9.2499999999999999E-002    -3.6426478417006891E-005
  -9.1399999999999995E-002    -3.4956434136357176E-005
  -9.0299999999999991E-002    -3.0488900053428716E-005
  -8.9200000000000002E-002    -2.6796787677431722E-005
  -8.8099999999999984E-002    -2.1855983773401270E-005
  -8.6999999999999994E-002    -1.6178327715394094E-005
  -8.5899999999999990E-002    -1.7006936610666702E-005
  -8.4799999999999986E-002    -2.8017122446104769E-005
  -8.3699999999999997E-002    -4.0027223394681322E-005
  -8.2599999999999993E-002    -3.9918643031325432E-005
  -8.1499999999999989E-002    -2.7383993275961886E-005
  -8.0399999999999999E-002    -1.5562233839922900E-005
  -7.9299999999999995E-002    -1.4519378892766392E-005
  -7.8199999999999992E-002    -2.0959945753343452E-005
  -7.7100000000000002E-002    -2.6485181252261519E-005
  -7.5999999999999984E-002    -2.9001173727642111E-005
  -7.4899999999999994E-002    -3.0637289491114428E-005
  -7.3799999999999991E-002    -2.9656033201841791E-005
  -7.2699999999999987E-002    -2.2552238247789177E-005
  -7.1599999999999997E-002    -1.2908905983614457E-005
  -7.0499999999999993E-002    -1.0045228030270992E-005
  -6.9399999999999989E-002    -1.6665345114178030E-005
  -6.8300000000000000E-002    -2.4098132878809368E-005
  -6.7199999999999996E-002    -2.3523465095211298E-005
  -6.6099999999999992E-002    -1.7033306769876901E-005
  -6.5000000000000002E-002    -1.2589881353445979E-005
  -6.3899999999999985E-002    -1.1743857787365998E-005
  -6.2799999999999995E-002    -9.1719029794621015E-006
  -6.1699999999999991E-002    -3.3157217187972110E-006
  -6.0599999999999994E-002     5.2848598497439418E-008
  -5.9499999999999990E-002    -2.7732518169410755E-006
  -5.8399999999999994E-002    -6.5013303942840727E-006
  -5.7299999999999990E-002    -3.7940466894927511E-006
  -5.6199999999999986E-002     4.6064639105090910E-006
  -5.5099999999999996E-002     1.1891658607909493E-005
  -5.3999999999999992E-002     1.5187550982450422E-005
  -5.2899999999999989E-002     1.7726709657294517E-005
  -5.1799999999999985E-002     2.1327069312300190E-005
  -5.0699999999999995E-002     2.2986779253267721E-005
  -4.9599999999999991E-002     2.1404393688213960E-005
  -4.8499999999999988E-002     2.1716175215678385E-005
  -4.7399999999999998E-002     2.9102857818997049E-005
  -4.6299999999999994E-002     4.0431243501162518E-005
  -4.5199999999999990E-002     4.7365836968734273E-005
  -4.4099999999999986E-002     4.7031753223738363E-005
  -4.2999999999999997E-002     4.4793120285423741E-005
  -4.1899999999999993E-002     4.5994589479211097E-005
  -4.0799999999999989E-002     4.9778392406402616E-005
  -3.9699999999999985E-002     5.3204569440275966E-005
  -3.8599999999999995E-002     5.7083930953881159E-005
  -3.7499999999999992E-002     6.3457515617910347E-005
  -3.6399999999999988E-002     6.9723826189645340E-005
  -3.5299999999999984E-002     7.0541084963127518E-005
  -3.4199999999999994E-002     6.5745493477112229E-005
  -3.3099999999999991E-002     6.1879770949667585E-005
  -3.1999999999999987E-002     6.4120542991521947E-005
  -3.0899999999999997E-002     7.0040279798485000E-005
  -2.9799999999999993E-002     7.3769554571929074E-005
  -2.8699999999999989E-002     7.3620957007929463E-005
  -2.7599999999999986E-002     7.2245879432910010E-005
  -2.6499999999999996E-002     7.0943368368114117E-005
  -2.5399999999999992E-002     6.8144907221505131E-005
  -2.4299999999999988E-002     6.3835368093415762E-005
  -2.3199999999999985E-002     6.1378826679268938E-005
  -2.2099999999999995E-002     6.2770801250517456E-005
  -2.0999999999999991E-002     6.4761799790623227E-005
  -1.9899999999999987E-002     6.2612738587716069E-005
  -1.8799999999999983E-002     5.6371480030705797E-005
  -1.7699999999999994E-002     5.0455015844253417E-005
  -1.6599999999999990E-002     4.7426455772696971E-005
  -1.5499999999999986E-002     4.5273513144580347E-005
  -1.4399999999999996E-002     4.1519480707031859E-005
  -1.3299999999999992E-002     3.7110363896388773E-005
  -1.2199999999999989E-002     3.4253035465401285E-005
  -1.1099999999999985E-002     3.2321655576133640E-005
  -9.9999999999999950E-003     2.8601691992642749E-005
  -8.8999999999999913E-003     2.2513592514590173E-005
  -7.7999999999999875E-003     1.6527260016669260E-005
  -6.6999999999999837E-003     1.2533478397740540E-005
  -5.5999999999999939E-003     9.5335233721337498E-006
  -4.4999999999999901E-003     5.9386330955279790E-006
  -3.3999999999999864E-003     2.2578671109235797E-006
  -2.2999999999999826E-003    -2.8984335532126605E-007
  -1.1999999999999927E-003    -2.6602009045129338E-006
  -9.9999999999988987E-005    -7.1332812006746308E-006
   1.0000000000000148E-003    -1.3577682831847535E-005
   2.1000000000000185E-003    -1.8712475621503655E-005
   3.2000000000000084E-003    -2.0067399586401303E-005
   4.3000000000000121E-003    -1.9241953788890086E-005
   5.4000000000000159E-003    -1.9894619164186172E-005
   6.5000000000000058E-003    -2.3351917945732989E-005
   7.6000000000000234E-003    -2.7710576586958833E-005
   8.7000000000000133E-003    -3.0887784564156159E-005
   9.8000000000000032E-003    -3.2799303449259666E-005
   1.0900000000000021E-002    -3.4162440919320087E-005
   1.2000000000000011E-002    -3.4847565227826620E-005
   1.3100000000000001E-002    -3.4697130074901462E-005
   1.4200000000000018E-002    -3.4987821986946983E-005
   1.5300000000000008E-002    -3.7325776521014833E-005
   1.6400000000000026E-002    -4.1069866970443511E-005
   1.7500000000000016E-002    -4.3369547934684032E-005
   1.8600000000000005E-002    -4.2449023598528039E-005
   1.9700000000000023E-002    -3.9851144920052692E-005
   2.0800000000000013E-002    -3.8503260781292564E-005
   2.1900000000000003E-002    -3.9232086358892740E-005
   2.3000000000000020E-002    -4.0356381018992688E-005
   2.4100000000000010E-002    -4.0457001305526172E-005
   2.5200000000000000E-002    -4.0139486328184744E-005
   2.6300000000000018E-002    -4.0598630350029071E-005
   2.7400000000000008E-002    -4.1606324597334466E-005
   2.8500000000000025E-002    -4.1932026622390901E-005
   2.9600000000000015E-002    -4.1135163935350461E-005
   3.0700000000000005E-002    -3.9782986757846067E-005
   3.1800000000000023E-002    -3.8121156748907240E-005
   3.2900000000000013E-002    -3.5843924539875812E-005
   3.4000000000000002E-002    -3.3479554439165080E-005
   3.5100000000000020E-002    -3.2664777162835372E-005
   3.6200000000000010E-002    -3.3999409466520827E-005
   3.7300000000000028E-002    -3.5438870301064012E-005
   3.8400000000000017E-002    -3.4256682264876003E-005
   3.9500000000000007E-002    -3.0526663083392866E-005
   4.0600000000000025E-002    -2.7285670910660368E-005
   4.1700000000000015E-002    -2.6771226969125655E-005
   4.2800000000000005E-002    -2.7643535364580758E-005
   4.3900000000000022E-002    -2.6842852547057078E-005
   4.5000000000000012E-002    -2.3427314460013948E-005
   4.6100000000000002E-002    -1.9406388653027638E-005
   4.7200000000000020E-002    -1.7127482241887157E-005
   4.8300000000000010E-002    -1.7092735390411894E-005
   4.9400000000000027E-002    -1.8316527917810262E-005
   5.0500000000000017E-002    -1.9355485693941263E-005
   5.1600000000000007E-002    -1.8429903116131286E-005
   5.2700000000000025E-002    -1.4080131836325840E-005
   5.3800000000000014E-002    -7.2725716029530202E-006
   5.4900000000000004E-002    -2.1117638824059997E-006
   5.6000000000000022E-002    -2.4157223469522962E-006
   5.7100000000000012E-002    -7.0879713187852047E-006
   5.8200000000000002E-002    -1.0376776444344512E-005
   5.9300000000000019E-002    -7.7716484762256703E-006
   6.0400000000000009E-002    -8.6590781155319733E-007
   6.1500000000000027E-002     4.5750695120825620E-006
   6.2600000000000017E-002     4.7658859382072893E-006
   6.3700000000000007E-002     1.1207408337881814E-006
   6.4800000000000024E-002    -2.0420586624524372E-006
   6.5900000000000014E-002    -1.4835327479262447E-006
   6.7000000000000004E-002     3.1472319049768694E-006
   6.8100000000000022E-002     9.5205976902688362E-006
   6.9200000000000012E-002     1.3635216160036608E-005
   7.0300000000000029E-002     1.2180670490685198E-005
   7.1400000000000019E-002     5.8791865899777512E-006
   7.2500000000000009E-002     1.5924608578229082E-007
   7.3600000000000027E-002     5.9999194280979480E-007
   7.4700000000000016E-002     7.0487885874500840E-006
   7.5800000000000006E-002     1.3414321724917273E-005
   7.6900000000000024E-002     1.4008944585722091E-005
   7.8000000000000014E-002     9.2224136822112630E-006
   7.9100000000000004E-002     4.2355914758970242E-006
   8.0200000000000021E-002     3.1734702458342001E-006
   8.1300000000000011E-002     5.7921728054345276E-006
   8.2400000000000029E-002     9.1752082116974894E-006
   8.3500000000000019E-002     1.0747889651963125E-005
   8.4600000000000009E-002     9.3664933921426172E-006
   8.5700000000000026E-002     5.3579183673483645E-006
   8.6800000000000016E-002     8.1771346971882039E-007
   8.7900000000000006E-002    -1.2050551953203427E-006
   8.9000000000000024E-002     5.0271371581027104E-007
   9.0100000000000013E-002     3.5014023681912348E-006
   9.1200000000000003E-002     3.9993194053080023E-006
   9.2300000000000021E-002     1.0909519846630969E-006
   9.3400000000000011E-002    -2.4867887695542322E-006
   9.4500000000000028E-002    -4.0827734733396229E-006
   9.5600000000000018E-002    -4.2183810298937864E-006
   9.6700000000000008E-002    -5.0654125384682908E-006
   9.7800000000000026E-002    -7.0489174308596659E-006
   9.8900000000000016E-002    -8.6045445998475920E-006
  0.10000000000000001         -8.9737789069203368E-006
  0.10110000000000002         -9.4787010610320279E-006
  0.10220000000000001         -1.1467230593673758E-005
  0.10330000000000003         -1.4274677389066381E-005
  0.10440000000000002         -1.6175689439284254E-005
  0.10550000000000001         -1.6596000276832636E-005
  0.10660000000000003         -1.6405897022566933E-005
  0.10770000000000002         -1.6572332165172609E-005
  0.10880000000000001         -1.7638278526358223E-005
  0.10990000000000003         -2.0163162090961594E-005
  0.11100000000000002         -2.4145164128350823E-005
  0.11210000000000001         -2.7688839825593559E-005
  0.11320000000000002         -2.7826206912313320E-005
  0.11430000000000001         -2.3952609995554479E-005
  0.11540000000000003         -1.9680913254824908E-005
  0.11650000000000002         -1.9702659965727286E-005
  0.11760000000000001         -2.4621590801818404E-005
  0.11870000000000003         -2.9977920736784017E-005
  0.11980000000000002         -3.0824164875759463E-005
  0.12090000000000001         -2.6564969579035249E-005
  0.12200000000000003         -2.0977927160607064E-005
  0.12310000000000001         -1.8332486336235877E-005
  0.12420000000000003         -2.0082327033424641E-005
  0.12530000000000002         -2.4386029143982265E-005
  0.12640000000000001         -2.7487163414956117E-005
  0.12750000000000003         -2.5855935300038477E-005
  0.12860000000000002         -1.8749962113247178E-005
  0.12970000000000001         -9.6271808209793999E-006
  0.13080000000000003         -4.0725393074983967E-006
  0.13190000000000002         -4.9508384189749344E-006
  0.13300000000000001         -9.4926114079808404E-006
  0.13410000000000000         -1.1851553155969467E-005
  0.13520000000000004         -8.6287325459253791E-006
  0.13630000000000003         -1.4599984337512040E-006
  0.13740000000000002          5.5241476410795344E-006
  0.13850000000000001          9.7316402272765813E-006
  0.13960000000000000          1.1396584767252088E-005
  0.14070000000000005          1.2146652327631814E-005
  0.14180000000000004          1.3550198318002947E-005
  0.14290000000000003          1.6682902263814295E-005
  0.14400000000000002          2.1689421693906650E-005
  0.14510000000000001          2.7213395753172311E-005
  0.14620000000000000          3.1065100433703727E-005
  0.14730000000000004          3.2219487837393085E-005
  0.14840000000000003          3.1901155390956699E-005
  0.14950000000000002          3.2217501964688152E-005
  0.15060000000000001          3.4028366557783930E-005
  0.15170000000000000          3.6716068381447889E-005
  0.15280000000000005          3.9666948768474154E-005
  0.15390000000000004          4.2897432528828081E-005
  0.15500000000000003          4.5956136567999726E-005
  0.15610000000000002          4.7271372424561908E-005
  0.15720000000000001          4.5625200099820378E-005
  0.15830000000000000          4.2031016966428308E-005
  0.15940000000000004          3.9216390260649953E-005
  0.16050000000000003          3.9001526194108835E-005
  0.16160000000000002          4.0694490610835832E-005
  0.16270000000000001          4.2173783326947629E-005
  0.16380000000000000          4.1895109008819459E-005
  0.16490000000000005          3.9525883499856823E-005
  0.16600000000000004          3.5428576942268862E-005
  0.16710000000000003          3.0523844581075370E-005
  0.16820000000000002          2.6447894336336012E-005
  0.16930000000000001          2.4655621531795093E-005
  0.17040000000000000          2.4754455304523603E-005
  0.17150000000000004          2.4306901973930699E-005
  0.17260000000000003          2.1002662198252423E-005
  0.17370000000000002          1.4931141307455764E-005
  0.17480000000000001          8.3341576667689959E-006
  0.17590000000000000          3.3813834251775811E-006
  0.17700000000000005          7.0468579907580018E-007
  0.17810000000000004         -2.4395994736226603E-007
  0.17920000000000003         -5.1639840462398839E-007
  0.18030000000000002         -1.7123321120626568E-006
  0.18140000000000001         -5.5921496801306930E-006
  0.18250000000000000         -1.2393971501511211E-005
  0.18360000000000004         -1.9669779621746952E-005
  0.18470000000000003         -2.3941859163337500E-005
  0.18580000000000002         -2.4073727815129641E-005
  0.18690000000000001         -2.2516951925733564E-005
  0.18800000000000000         -2.2816074245675342E-005
  0.18910000000000005         -2.6242208413856713E-005
  0.19020000000000004         -3.1162532207908119E-005
  0.19130000000000003         -3.5091342610746407E-005
  0.19240000000000002         -3.6621671684128836E-005
  0.19350000000000001         -3.5795387526579815E-005
  0.19460000000000005         -3.3830894976258081E-005
  0.19570000000000004         -3.2800768215015429E-005
  0.19680000000000003         -3.4434645739111667E-005
  0.19790000000000002         -3.8221100129701553E-005
  0.19900000000000001         -4.1143829401655885E-005
  0.20010000000000000         -4.0390536578831292E-005
  0.20120000000000005         -3.6443829840305321E-005
  0.20230000000000004         -3.2715582284365216E-005
  0.20340000000000003         -3.1905100165415567E-005
  0.20450000000000002         -3.3411917293549992E-005
  0.20560000000000000         -3.4636485741181244E-005
  0.20670000000000005         -3.3992915755480584E-005
  0.20780000000000004         -3.1887658359206169E-005
  0.20890000000000003         -2.9359460932081933E-005
  0.21000000000000002         -2.6965984662152254E-005
  0.21110000000000001         -2.5015686140808670E-005
  0.21220000000000000         -2.3710554744936756E-005
  0.21330000000000005         -2.2516011582262018E-005
  0.21440000000000003         -2.0286198898330669E-005
  0.21550000000000002         -1.6865935990167996E-005
  0.21660000000000001         -1.3992727722779065E-005
  0.21770000000000000         -1.3515330606618411E-005
  0.21880000000000005         -1.4829917972830660E-005
  0.21990000000000004         -1.5177262843630576E-005
  0.22100000000000003         -1.2782535148969925E-005
  0.22210000000000002         -8.7845808137087932E-006
  0.22320000000000001         -5.5369844611504804E-006
  0.22430000000000000         -3.8598293267598044E-006
  0.22540000000000004         -2.8706988405055833E-006
  0.22650000000000003         -1.9098852809591235E-006
  0.22760000000000002         -1.2963610571719761E-006
  0.22870000000000001         -1.1399069011065570E-006
  0.22980000000000000         -7.1338977104925166E-007
  0.23090000000000005          3.6432125870747228E-007
  0.23200000000000004          1.2766896228345856E-006
  0.23310000000000003          1.2620797481089233E-006
  0.23420000000000002          1.0976783586307559E-006
  0.23530000000000001          2.1831103712409850E-006
  0.23640000000000000          4.3338417840048407E-006
  0.23750000000000004          5.7153105563526697E-006
  0.23860000000000003          5.2572819052370087E-006
  0.23970000000000002          4.0344969389351131E-006
  0.24080000000000001          3.5986663091621166E-006
  0.24190000000000000          3.8645491581918231E-006
  0.24300000000000005          3.6924770269539328E-006
  0.24410000000000004          3.0004965208442509E-006
  0.24520000000000003          2.9515535150235084E-006
  0.24630000000000002          4.0269627340163870E-006
  0.24740000000000001          5.2292078728048664E-006
  0.24850000000000005          5.7088053659264890E-006
  0.24960000000000004          6.0441953843921355E-006
  0.25070000000000003          6.9574035620498679E-006
  0.25180000000000002          7.6009982094832877E-006
  0.25290000000000001          6.5313914633633753E-006
  0.25400000000000000          4.2217259222349479E-006
  0.25510000000000005          3.1790849186763705E-006
  0.25620000000000004          5.0739097111795727E-006
  0.25730000000000003          8.7700818893721947E-006
  0.25840000000000002          1.1859899024647827E-005
  0.25950000000000001          1.3297907687723627E-005
  0.26060000000000005          1.3654147514338474E-005
  0.26170000000000004          1.3565580931721059E-005
  0.26280000000000003          1.3360592894153509E-005
  0.26390000000000002          1.4001677745419909E-005
  0.26500000000000001          1.6704504000628783E-005
  0.26610000000000000          2.0921568234809749E-005
  0.26720000000000005          2.3985734357280967E-005
  0.26830000000000004          2.4014305042896654E-005
  0.26940000000000003          2.2570568607959303E-005
  0.27050000000000002          2.3124381922383941E-005
  0.27160000000000001          2.6967939801766683E-005
  0.27270000000000005          3.1855538565474971E-005
  0.27380000000000004          3.4856012313618732E-005
  0.27490000000000003          3.5336223814173841E-005
  0.27600000000000002          3.4606231862239349E-005
  0.27710000000000001          3.3873007114023135E-005
  0.27820000000000000          3.3732387864991449E-005
  0.27930000000000005          3.4867486427774664E-005
  0.28040000000000004          3.7551474619995574E-005
  0.28150000000000003          4.0392668782164484E-005
  0.28260000000000002          4.1130945471636523E-005
  0.28370000000000001          3.9392890217123126E-005
  0.28480000000000005          3.7525609987577692E-005
  0.28590000000000004          3.7696516051722282E-005
  0.28700000000000003          3.8980092432243482E-005
  0.28810000000000002          3.8609714566474631E-005
  0.28920000000000001          3.5724280087430813E-005
  0.29030000000000000          3.2371211484556381E-005
  0.29140000000000005          3.0587536917012536E-005
  0.29250000000000004          2.9916032395303538E-005
  0.29360000000000003          2.8577758731061060E-005
  0.29470000000000002          2.5969467279583200E-005
  0.29580000000000001          2.2811630489214218E-005
  0.29690000000000005          1.9531992630278131E-005
  0.29800000000000004          1.5981231230152723E-005
  0.29910000000000003          1.2581013259118711E-005
  0.30020000000000002          1.0151007938392112E-005
  0.30130000000000001          8.1279699254896274E-006
  0.30240000000000000          4.4154384091389930E-006
  0.30350000000000005         -1.8764541307347841E-006
  0.30460000000000004         -8.4931644596581872E-006
  0.30570000000000003         -1.2306852891281133E-005
  0.30680000000000002         -1.3226354833749079E-005
  0.30790000000000001         -1.4398956707384342E-005
  0.30900000000000005         -1.8362798845514340E-005
  0.31010000000000004         -2.4377267014863528E-005
  0.31120000000000003         -3.0126403055018007E-005
  0.31230000000000002         -3.4711121660900979E-005
  0.31340000000000001         -3.8753049213811262E-005
  0.31450000000000006         -4.2466904088529257E-005
  0.31560000000000005         -4.5356225451978081E-005
  0.31670000000000004         -4.7739089604464919E-005
  0.31780000000000003         -5.0917406047317447E-005
  0.31890000000000002         -5.5233352005600047E-005
  0.32000000000000001         -5.9231586397583542E-005
  0.32110000000000005         -6.1682256556320401E-005
  0.32220000000000004         -6.3458309998556083E-005
  0.32330000000000003         -6.6172892091918920E-005
  0.32440000000000002         -6.9600611113286993E-005
  0.32550000000000001         -7.2032257391789337E-005
  0.32660000000000006         -7.3134882892855892E-005
  0.32770000000000005         -7.4739021369048801E-005
  0.32880000000000004         -7.8041109649054912E-005
  0.32990000000000003         -8.1393314256068459E-005
  0.33100000000000002         -8.2206120016351815E-005
  0.33210000000000001         -8.0365446361903108E-005
  0.33320000000000005         -7.8358319260252130E-005
  0.33430000000000004         -7.8221211798791947E-005
  0.33540000000000003         -7.9731590794651522E-005
  0.33650000000000002         -8.1680330389167024E-005
  0.33760000000000001         -8.3354933435443959E-005
  0.33870000000000006         -8.4041818748017006E-005
  0.33980000000000005         -8.2526126390584443E-005
  0.34090000000000004         -7.8647871619087013E-005
  0.34200000000000003         -7.4711869818743843E-005
  0.34310000000000002         -7.3574124480430450E-005
  0.34420000000000001         -7.5100913625488397E-005
  0.34530000000000005         -7.5938449702976345E-005
  0.34640000000000004         -7.3390916184225491E-005
  0.34750000000000003         -6.8392252365713794E-005
  0.34860000000000002         -6.3828683747796215E-005
  0.34970000000000001         -6.0966669556503637E-005
  0.35080000000000006         -5.8822594564780006E-005
  0.35190000000000005         -5.6394901547252999E-005
  0.35300000000000004         -5.3776659799627675E-005
  0.35410000000000003         -5.0909209635330521E-005
  0.35520000000000002         -4.6906625849891539E-005
  0.35630000000000001         -4.1553276686684957E-005
  0.35740000000000005         -3.6365005915857412E-005
  0.35850000000000004         -3.2923773342480429E-005
  0.35960000000000003         -3.0713737357675266E-005
  0.36070000000000002         -2.7849668273921478E-005
  0.36180000000000001         -2.3677045189880575E-005
  0.36290000000000006         -1.9279390783294507E-005
  0.36400000000000005         -1.5298096822838621E-005
  0.36510000000000004         -1.0786317717625509E-005
  0.36620000000000003         -5.0752237341659745E-006
  0.36730000000000002          4.1329632984396123E-007
  0.36840000000000006          3.6433356261605023E-006
  0.36950000000000005          4.8236311038223196E-006
  0.37060000000000004          6.3890303029352126E-006
  0.37170000000000003          1.0025045893308132E-005
  0.37280000000000002          1.4900008121401875E-005
  0.37390000000000001          1.9193050873981356E-005
  0.37500000000000006          2.2209478926459272E-005
  0.37610000000000005          2.4247669552132135E-005
  0.37720000000000004          2.5420690962156344E-005
  0.37830000000000003          2.5909972847758581E-005
  0.37940000000000002          2.6914389643974590E-005
  0.38050000000000006          2.9809363795561721E-005
  0.38160000000000005          3.4070566628742818E-005
  0.38270000000000004          3.7248618675460065E-005
  0.38380000000000003          3.7696238764741661E-005
  0.38490000000000002          3.6494202523688825E-005
  0.38600000000000001          3.5899601904234370E-005
  0.38710000000000000          3.6581529381933764E-005
  0.38819999999999999          3.7442855058171835E-005
  0.38930000000000009          3.7769508623053285E-005
  0.39040000000000008          3.8173062855749579E-005
  0.39150000000000007          3.9133298844390023E-005
  0.39260000000000006          3.9830030816510832E-005
  0.39370000000000005          3.9264025341278049E-005
  0.39480000000000004          3.7854002475328272E-005
  0.39590000000000003          3.6981180774842202E-005
  0.39700000000000002          3.7239707176042646E-005
  0.39810000000000001          3.7996378262365231E-005
  0.39920000000000000          3.8552565243607962E-005
  0.40029999999999999          3.8804066550897581E-005
  0.40140000000000009          3.8617838209441946E-005
  0.40250000000000008          3.7570335179637525E-005
  0.40360000000000007          3.5927066961584454E-005
  0.40470000000000006          3.5139307111829000E-005
  0.40580000000000005          3.6383609408240363E-005
  0.40690000000000004          3.8787808219195677E-005
  0.40800000000000003          4.0006624396923877E-005
  0.40910000000000002          3.8754516551575224E-005
  0.41020000000000001          3.6165128568764579E-005
  0.41130000000000000          3.4433264429819960E-005
  0.41239999999999999          3.4673627199240079E-005
  0.41350000000000009          3.6394636975681704E-005
  0.41460000000000008          3.8417444755382217E-005
  0.41570000000000007          3.9640837855544025E-005
  0.41680000000000006          3.9301886848452309E-005
  0.41790000000000005          3.7442712046755974E-005
  0.41900000000000004          3.5302018539841857E-005
  0.42010000000000003          3.4511581256926267E-005
  0.42120000000000002          3.5410719246622752E-005
  0.42230000000000001          3.6508924793511637E-005
  0.42340000000000000          3.6083870663650104E-005
  0.42449999999999999          3.4138910259837114E-005
  0.42560000000000009          3.2345782874739973E-005
  0.42670000000000008          3.2098302152459462E-005
  0.42780000000000007          3.3017266747521071E-005
  0.42890000000000006          3.3432312750937034E-005
  0.43000000000000005          3.2003457186927597E-005
  0.43110000000000004          2.8772633596154209E-005
  0.43220000000000003          2.4993450275118450E-005
  0.43330000000000002          2.2214064830773773E-005
  0.43440000000000001          2.1277567625395837E-005
  0.43550000000000000          2.1760173579441556E-005
  0.43659999999999999          2.2269830905781028E-005
  0.43770000000000009          2.1527759709783742E-005
  0.43880000000000008          1.9366096736454747E-005
  0.43990000000000007          1.6719444387946214E-005
  0.44100000000000006          1.4676870505394622E-005
  0.44210000000000005          1.3564432384184861E-005
  0.44320000000000004          1.2821526756074995E-005
  0.44430000000000003          1.1570722022002305E-005
  0.44540000000000002          9.3182260727795910E-006
  0.44650000000000001          6.3520727061463398E-006
  0.44760000000000000          3.6416238767533738E-006
  0.44869999999999999          2.2465998738229565E-006
  0.44980000000000009          2.5669758424387855E-006
  0.45090000000000008          3.9792123291111927E-006
  0.45200000000000007          5.1457471700567473E-006
  0.45310000000000006          4.7859176851170539E-006
  0.45420000000000005          2.4729033805395528E-006
  0.45530000000000004         -9.4271797444727540E-007
  0.45640000000000003         -3.6619376536451347E-006
  0.45750000000000002         -4.1262310165747197E-006
  0.45860000000000001         -2.3453792610370175E-006
  0.45970000000000000         -6.3378419763639865E-008
  0.46079999999999999          6.8658971424291219E-007
  0.46190000000000009         -6.4969044188693185E-007
  0.46300000000000008         -2.8193169378767420E-006
  0.46410000000000007         -4.0528314552468100E-006
  0.46520000000000006         -3.4956173616139784E-006
  0.46630000000000005         -1.5923500756711538E-006
  0.46740000000000004          3.6177160258099830E-007
  0.46850000000000003          9.0213202653676323E-007
  0.46960000000000002         -6.9623814755852568E-007
  0.47070000000000001         -3.4910305471250077E-006
  0.47180000000000000         -5.0801452206166315E-006
  0.47289999999999999         -3.5807328548059267E-006
  0.47400000000000009          2.6972448031979814E-007
  0.47510000000000008          3.4580070460351893E-006
  0.47620000000000007          3.5414840717300054E-006
  0.47730000000000006          9.6531178659550193E-007
  0.47840000000000005         -1.6375941515487188E-006