 -0.12000000000000000          0.0000000000000000     
 -0.11889999999999999          1.6432490872011911E-016
 -0.11780000000000000          3.5990837429253797E-016
 -0.11670000000000000          4.3826116388671357E-016
 -0.11559999999999999          3.6158892724133825E-016
 -0.11449999999999999          2.2499177865737788E-016
 -0.11340000000000000          1.5984079869193264E-016
 -0.11230000000000000          2.1044427435203788E-016
 -0.11119999999999999          2.9833775036686967E-016
 -0.11009999999999999          3.0785545330446602E-016
 -0.10900000000000000          2.1066607498131410E-016
 -0.10790000000000000          1.0222834734080549E-016
 -0.10679999999999999          1.0577260364569037E-016
 -0.10569999999999999          2.3987582704511502E-016
 -0.10460000000000000          3.9243319798616331E-016
 -0.10349999999999999          4.3131408969007820E-016
 -0.10239999999999999          3.3161463782890001E-016
 -0.10130000000000000          1.8782859408571730E-016
 -0.10020000000000000          1.1455809205686683E-016
  -9.9099999999999994E-002     1.5071623727937503E-016
  -9.7999999999999990E-002     2.4874047153126272E-016
  -9.6899999999999986E-002     3.2749659141386014E-016
  -9.5799999999999996E-002     3.3046607965775185E-016
  -9.4699999999999993E-002     2.6225377614847812E-016
  -9.3599999999999989E-002     1.9045691258594137E-016
  -9.2499999999999999E-002     1.9353413899830270E-016
  -9.1399999999999995E-002     2.7821005366405876E-016
  -9.0299999999999991E-002     3.5562698534192424E-016
  -8.9200000000000002E-002     3.3025087017430989E-016
  -8.8099999999999984E-002     2.1553520079399523E-016
  -8.6999999999999994E-002     1.3015184341202341E-016
  -8.5899999999999990E-002     1.6469620077949514E-016
  -8.4799999999999986E-002     2.7859427971019033E-016
  -8.3699999999999997E-002     3.5291334060495124E-016
  -8.2599999999999993E-002     3.2523758308971196E-016
  -8.1499999999999989E-002     2.4044277839214519E-016
  -8.0399999999999999E-002     1.7954695072200503E-016
  -7.9299999999999995E-002     1.7855499846873460E-016
  -7.8199999999999992E-002     2.2153658482535396E-016
  -7.7100000000000002E-002     2.7206593224666210E-016
  -7.5999999999999984E-002     2.8940603759062239E-016
  -7.4899999999999994E-002     2.4704907311559048E-016
  -7.3799999999999991E-002     1.7033459862148342E-016
  -7.2699999999999987E-002     1.3518109253952998E-016
  -7.1599999999999997E-002     1.8725164727631547E-016
  -7.0499999999999993E-002     2.6895868668922471E-016
  -6.9399999999999989E-002     2.7250873790912693E-016
  -6.8300000000000000E-002     1.7441945354137201E-016
  -6.7199999999999996E-002     7.2823955196425129E-017
  -6.6099999999999992E-002     6.6179115510759810E-017
  -6.5000000000000002E-002     1.3298494760600194E-016
  -6.3899999999999985E-002     1.7204630900043275E-016
  -6.2799999999999995E-002     1.3603980924604222E-016
  -6.1699999999999991E-002     7.1623194109575999E-017
  -6.0599999999999994E-002     3.3203947166698262E-017
  -5.9499999999999990E-002     1.6309112145868137E-017
  -5.8399999999999994E-002    -4.4214130311111781E-018
  -5.7299999999999990E-002    -2.3373044393507433E-017
  -5.6199999999999986E-002    -3.0251915276758930E-017
  -5.5099999999999996E-002    -5.2405523838901681E-017
  -5.3999999999999992E-002    -1.1811704117736965E-016
  -5.2899999999999989E-002    -1.9347068638922985E-016
  -5.1799999999999985E-002    -2.1345707446848195E-016
  -5.0699999999999995E-002    -1.8058572303378394E-016
  -4.9599999999999991E-002    -1.7653578472525974E-016
  -4.8499999999999988E-002    -2.5146401151232092E-016
  -4.7399999999999998E-002    -3.4970951022429052E-016
  -4.6299999999999994E-002    -3.8682958786083493E-016
  -4.5199999999999990E-002    -3.6601346825851300E-016
  -4.4099999999999986E-002    -3.6339678443909873E-016
  -4.2999999999999997E-002    -4.1366308079763456E-016
  -4.1899999999999993E-002    -4.7282676174832011E-016
  -4.0799999999999989E-002    -5.0226106696743823E-016
  -3.9699999999999985E-002    -5.2831739069195127E-016
  -3.8599999999999995E-002    -5.8593259532735988E-016
  -3.7499999999999992E-002    -6.5061640179396295E-016
  -3.6399999999999988E-002    -6.7568315146099188E-016
  -3.5299999999999984E-002    -6.6782638632108752E-016
  -3.4199999999999994E-002    -6.6715418184018514E-016
  -3.3099999999999991E-002    -6.6199829669229086E-016
  -3.1999999999999987E-002    -5.8796280376868011E-016
  -3.0899999999999997E-002    -4.2746426087558834E-016
  -2.9799999999999993E-002    -2.5375054528526919E-016
  -2.8699999999999989E-002    -1.4149929439445357E-016
  -2.7599999999999986E-002    -7.8290782842379234E-017
  -2.6499999999999996E-002    -1.4119243716141951E-017
  -2.5399999999999992E-002     3.2023562980634633E-017
  -2.4299999999999988E-002    -1.8995867982360900E-017
  -2.3199999999999985E-002    -1.9298494025667575E-016
  -2.2099999999999995E-002    -4.2078050967421269E-016
  -2.0999999999999991E-002    -6.2936674705868636E-016
  -1.9899999999999987E-002    -8.1864090342279653E-016
  -1.8799999999999983E-002    -1.0091668934030075E-015
  -1.7699999999999994E-002    -1.1602402690070581E-015
  -1.6599999999999990E-002    -1.2037304335371950E-015
  -1.5499999999999986E-002    -1.1458751547549176E-015
  -1.4399999999999996E-002    -1.0734345059992783E-015
  -1.3299999999999992E-002    -1.0495356205116237E-015
  -1.2199999999999989E-002    -1.0553153389093856E-015
  -1.1099999999999985E-002    -1.0530687186081612E-015
  -9.9999999999999950E-003    -1.0527304928504068E-015
  -8.8999999999999913E-003    -1.0720072098752767E-015
  -7.7999999999999875E-003    -1.0694702010636176E-015
  -6.6999999999999837E-003    -9.8266203756533514E-016
  -5.5999999999999939E-003    -8.3090958967058431E-016
  -4.4999999999999901E-003    -7.2722463663655739E-016
  -3.3999999999999864E-003    -7.7465461690741679E-016
  -2.2999999999999826E-003    -9.8849530956659848E-016
  -1.1999999999999927E-003    -1.3241222288222767E-015
  -9.9999999999988987E-005    -1.7140516901952092E-015
   1.0000000000000148E-003    -2.0242636781529583E-015
   2.1000000000000185E-003    -2.0176783614257008E-015
   3.2000000000000084E-003    -1.4586138780957414E-015
   4.3000000000000121E-003    -3.0767673900614027E-016
   5.4000000000000159E-003     1.1845622435373155E-015
   6.5000000000000058E-003     2.5625574218542657E-015
   7.6000000000000234E-003     3.3182850305187548E-015
   8.7000000000000133E-003     3.0108543214363505E-015
   9.8000000000000032E-003     1.3960656949914312E-015
   1.0900000000000021E-002    -1.3911840392259909E-015
   1.2000000000000011E-002    -4.7192112099802085E-015
   1.3100000000000001E-002    -7.5709926225557838E-015
   1.4200000000000018E-002    -8.8671286285750258E-015
   1.5300000000000008E-002    -7.8116134426923824E-015
   1.6400000000000026E-002    -4.1312222221009524E-015
   1.7500000000000016E-002     1.7690559288943132E-015
   1.8600000000000005E-002     8.7244226801458874E-015
   1.9700000000000023E-002     1.4924549654447674E-014
   2.0800000000000013E-002     1.8331136569840333E-014
   2.1900000000000003E-002     1.7295746148273824E-014
   2.3000000000000020E-002     1.1124995621305345E-014
   2.4100000000000010E-002     4.1920954641236635E-016
   2.5200000000000000E-002    -1.2840985575735596E-014
   2.6300000000000018E-002    -2.5476778525544103E-014
   2.7400000000000008E-002    -3.3641031607715968E-014
   2.8500000000000025E-002    -3.3707430992040309E-014
   2.9600000000000015E-002    -2.3346547292179128E-014
   3.0700000000000005E-002    -2.5170945608913442E-015
   3.1800000000000023E-002     2.5860093715713713E-014
   3.2900000000000013E-002     5.5763768800568797E-014
   3.4000000000000002E-002     7.8756486986650169E-014
   3.5100000000000020E-002     8.5712746727615757E-014
   3.6200000000000010E-002     6.9424568101067957E-014
   3.7300000000000028E-002     2.7385864028220556E-014
   3.8400000000000017E-002    -3.6222062949568927E-014
   3.9500000000000007E-002    -1.1015524645612368E-013
   4.0600000000000025E-002    -1.7768370194914430E-013
   4.1700000000000015E-002    -2.1990907048935049E-013
   4.2800000000000005E-002    -2.2009624182717090E-013
   4.3900000000000022E-002    -1.6793807925751587E-013
   4.5000000000000012E-002    -6.2665490489925805E-014
   4.6100000000000002E-002     8.5693374407696011E-014
   4.7200000000000020E-002     2.5706122324567919E-013
   4.8300000000000010E-002     4.2384090093024543E-013
   4.9400000000000027E-002     5.5480725065450359E-013
   5.0500000000000017E-002     6.1973302620834402E-013
   5.1600000000000007E-002     5.9385420241035658E-013
   5.2700000000000025E-002     4.6124145776774879E-013
   5.3800000000000014E-002     2.1662762503741407E-013
   5.4900000000000004E-002    -1.3392235761684028E-013
   5.6000000000000022E-002    -5.7246175928497673E-013
   5.7100000000000012E-002    -1.0677630661507940E-012
   5.8200000000000002E-002    -1.5729802260020758E-012
   5.9300000000000019E-002    -2.0235620888436029E-012
   6.0400000000000009E-002    -2.3375430683347914E-012
   6.1500000000000027E-002    -2.4201815171433000E-012
   6.2600000000000017E-002    -2.1734714790962021E-012
   6.3700000000000007E-002    -1.5089457303327537E-012
   6.4800000000000024E-002    -3.6071195077314720E-013
   6.5900000000000014E-002     1.3041920565802148E-012
   6.7000000000000004E-002     3.4794009100235586E-012
   6.8100000000000022E-002     6.1160982377186382E-012
   6.9200000000000012E-002     9.1216406162922788E-012
   7.0300000000000029E-002     1.2359163510140480E-011
   7.1400000000000019E-002     1.5649202920332598E-011
   7.2500000000000009E-002     1.8775762433163611E-011
   7.3600000000000027E-002     2.1499123270436418E-011
   7.4700000000000016E-002     2.3575858514002973E-011
   7.5800000000000006E-002     2.4783765739111170E-011
   7.6900000000000024E-002     2.4947463572839161E-011
   7.8000000000000014E-002     2.3959995824044323E-011
   7.9100000000000004E-002     2.1797035453632924E-011
   8.0200000000000021E-002     1.8521957969881795E-011
   8.1300000000000011E-002     1.4281416954379346E-011
   8.2400000000000029E-002     9.2916876741792884E-012
   8.3500000000000019E-002     3.8168570748598206E-012
   8.4600000000000009E-002    -1.8586591588615508E-012
   8.5700000000000026E-002    -7.4590305294716038E-012
   8.6800000000000016E-002    -1.2742270956879616E-011
   8.7900000000000006E-002    -1.7517622806993055E-011
   8.9000000000000024E-002    -2.1653638917148929E-011
   9.0100000000000013E-002    -2.5079128716076859E-011
   9.1200000000000003E-002    -2.7780575008582757E-011
   9.2300000000000021E-002    -2.9798452176656176E-011
   9.3400000000000011E-002    -3.1221652061838478E-011
   9.4500000000000028E-002    -3.2176050640540200E-011
   9.5600000000000018E-002    -3.2804001108439457E-011
   9.6700000000000008E-002    -3.3235872722932773E-011
   9.7800000000000026E-002    -3.3560929093583697E-011
   9.8900000000000016E-002    -3.3808140010958278E-011
  0.10000000000000001         -3.3945244399781603E-011
  0.10110000000000002         -3.3896665679783426E-011
  0.10220000000000001         -3.3572288099363309E-011
  0.10330000000000003         -3.2894260949876758E-011
  0.10440000000000002         -3.1811752160175404E-011
  0.10550000000000001         -3.0300962249424954E-011
  0.10660000000000003         -2.8356077045084623E-011
  0.10770000000000002         -2.5979625613286731E-011
  0.10880000000000001         -2.3178114926259429E-011
  0.10990000000000003         -1.9962813471309771E-011
  0.11100000000000002         -1.6352200670444082E-011
  0.11210000000000001         -1.2373561945962778E-011
  0.11320000000000002         -8.0658731419875490E-012
  0.11430000000000001         -3.4878803560193336E-012
  0.11540000000000003          1.2680020715681151E-012
  0.11650000000000002          6.0632460714274621E-012
  0.11760000000000001          1.0715112477948433E-011
  0.11870000000000003          1.5022559288064202E-011
  0.11980000000000002          1.8812703775261510E-011
  0.12090000000000001          2.1989737237269408E-011
  0.12200000000000003          2.4561082671087710E-011
  0.12310000000000001          2.6624352342253468E-011
  0.12420000000000003          2.8319864920935807E-011
  0.12530000000000002          2.9773943701167710E-011
  0.12640000000000001          3.1063809431840304E-011
  0.12750000000000003          3.2220595734809542E-011
  0.12860000000000002          3.3260115082821606E-011
  0.12970000000000001          3.4211532290528485E-011
  0.13080000000000003          3.5114759423982547E-011
  0.13190000000000002          3.5981516969051792E-011
  0.13300000000000001          3.6745423584479207E-011
  0.13410000000000000          3.7242102061045830E-011
  0.13520000000000004          3.7246824392663803E-011
  0.13630000000000003          3.6561260432562680E-011
  0.13740000000000002          3.5105207053562246E-011
  0.13850000000000001          3.2959235275018179E-011
  0.13960000000000000          3.0329322002767019E-011
  0.14070000000000005          2.7450770134612541E-011
  0.14180000000000004          2.4486653241995912E-011
  0.14290000000000003          2.1479593496569941E-011
  0.14400000000000002          1.8381903020891751E-011
  0.14510000000000001          1.5138639334179787E-011
  0.14620000000000000          1.1764743662548688E-011
  0.14730000000000004          8.3632871960998903E-012
  0.14840000000000003          5.0718735348579216E-012
  0.14950000000000002          1.9724404524412740E-012
  0.15060000000000001         -9.7767704850295278E-013
  0.15170000000000000         -3.9518657938255178E-012
  0.15280000000000005         -7.1987706424210299E-012
  0.15390000000000004         -1.0965482215218054E-011
  0.15500000000000003         -1.5447304871109619E-011
  0.15610000000000002         -2.0785569474279935E-011
  0.15720000000000001         -2.7095221414069751E-011
  0.15830000000000000         -3.4480891297053532E-011
  0.15940000000000004         -4.3011058037589794E-011
  0.16050000000000003         -5.2654774916562283E-011
  0.16160000000000002         -6.3217891754637564E-011
  0.16270000000000001         -7.4320097075476928E-011
  0.16380000000000000         -8.5427191054319112E-011
  0.16490000000000005         -9.5915427132273101E-011
  0.16600000000000004         -1.0512645428935265E-010
  0.16710000000000003         -1.1238676537057653E-010
  0.16820000000000002         -1.1700299063932148E-010
  0.16930000000000001         -1.1827435838943409E-010
  0.17040000000000000         -1.1556040904781992E-010
  0.17150000000000004         -1.0840417065905318E-010
  0.17260000000000003         -9.6666577318257607E-011
  0.17370000000000002         -8.0608830968920650E-011
  0.17480000000000001         -6.0883603678773909E-011
  0.17590000000000000         -3.8446639326061193E-011
  0.17700000000000005         -1.4441677482161572E-011
  0.17810000000000004          9.8880586155820291E-012
  0.17920000000000003          3.3248051562937773E-011
  0.18030000000000002          5.4335235156474460E-011
  0.18140000000000001          7.1925753271893131E-011
  0.18250000000000000          8.5025532220238591E-011
  0.18360000000000004          9.3042350894716441E-011
  0.18470000000000003          9.5899097545252168E-011
  0.18580000000000002          9.4025438119220198E-011
  0.18690000000000001          8.8233276988069484E-011
  0.18800000000000000          7.9551335711175202E-011
  0.18910000000000005          6.9112292785346715E-011
  0.19020000000000004          5.8129741863152742E-011
  0.19130000000000003          4.7911041742080186E-011
  0.19240000000000002          3.9796265341928461E-011
  0.19350000000000001          3.4948909739557916E-011
  0.19460000000000005          3.4038544347910414E-011
  0.19570000000000004          3.6975023151974780E-011
  0.19680000000000003          4.2881266300916783E-011
  0.19790000000000002          5.0387561977383068E-011
  0.19900000000000001          5.8141173843144621E-011
  0.20010000000000000          6.5273601333173645E-011
  0.20120000000000005          7.1562648328248674E-011
  0.20230000000000004          7.7195268576880345E-011
  0.20340000000000003          8.2282793272445689E-011
  0.20450000000000002          8.6449241834634664E-011
  0.20560000000000000          8.8783851807747564E-011
  0.20670000000000005          8.8225567779188519E-011
  0.20780000000000004          8.4163978735306805E-011
  0.20890000000000003          7.6879481487779465E-011
  0.21000000000000002          6.7521288516643837E-011
  0.21110000000000001          5.7596334496528039E-011
  0.21220000000000000          4.8252323206855064E-011
  0.21330000000000005          3.9777647986868537E-011
  0.21440000000000003          3.1622752284398836E-011
  0.21550000000000002          2.2932895167015329E-011
  0.21660000000000001          1.3270343991999911E-011
  0.21770000000000000          3.0885494151204822E-012
  0.21880000000000005         -6.3247866417135819E-012
  0.21990000000000004         -1.3394617275015286E-011
  0.22100000000000003         -1.6964882970654908E-011
  0.22210000000000002         -1.6760957442779085E-011
  0.22320000000000001         -1.3384411760710812E-011
  0.22430000000000000         -7.9241681529586060E-012
  0.22540000000000004         -1.4957300440503130E-012
  0.22650000000000003          4.9769394720640550E-012
  0.22760000000000002          1.0637613825709717E-011
  0.22870000000000001          1.4409474080525721E-011
  0.22980000000000000          1.4860842250529584E-011
  0.23090000000000005          1.0447028690815717E-011
  0.23200000000000004          7.9544095550330353E-014
  0.23310000000000003         -1.6284733384199810E-011
  0.23420000000000002         -3.7404902347981850E-011
  0.23530000000000001         -6.1054384859292755E-011
  0.23640000000000000         -8.4726069884142234E-011
  0.23750000000000004         -1.0637298951930115E-010
  0.23860000000000003         -1.2480278814235091E-010
  0.23970000000000002         -1.3956808963967572E-010
  0.24080000000000001         -1.5050363949423689E-010
  0.24190000000000000         -1.5725446005728315E-010
  0.24300000000000005         -1.5910232031871103E-010
  0.24410000000000004         -1.5517910180707655E-010
  0.24520000000000003         -1.4490766234165069E-010
  0.24630000000000002         -1.2839669023388370E-010
  0.24740000000000001         -1.0658217215964182E-010
  0.24850000000000005         -8.1081000802803808E-011
  0.24960000000000004         -5.3867060128599366E-011
  0.25070000000000003         -2.6914686846761624E-011
  0.25180000000000002         -1.8941535755979518E-012
  0.25290000000000001          2.0065883416936455E-011
  0.25400000000000000          3.8542902756474802E-011
  0.25510000000000005          5.3860328789546988E-011
  0.25620000000000004          6.6927560370742385E-011
  0.25730000000000003          7.8865806256686995E-011
  0.25840000000000002          9.0537804062119484E-011
  0.25950000000000001          1.0220444549227066E-010
  0.26060000000000005          1.1350420000053784E-010
  0.26170000000000004          1.2377310453981415E-010
  0.26280000000000003          1.3249660517864928E-010
  0.26390000000000002          1.3957502968374573E-010
  0.26500000000000001          1.4519261711903878E-010
  0.26610000000000000          1.4936044246342440E-010
  0.26720000000000005          1.5147297006370934E-010
  0.26830000000000004          1.5027357644221219E-010
  0.26940000000000003          1.4439417166588211E-010
  0.27050000000000002          1.3324113443399095E-010
  0.27160000000000001          1.1769691753423710E-010
  0.27270000000000005          1.0012383407791125E-010
  0.27380000000000004          8.3521083178164388E-011
  0.27490000000000003          7.0206528076117646E-011
  0.27600000000000002          6.0740935493907545E-011
  0.27710000000000001          5.3742829609282742E-011
  0.27820000000000000          4.6753939702099219E-011
  0.27930000000000005          3.7684250678059106E-011
  0.28040000000000004          2.5979572201061430E-011
  0.28150000000000003          1.2785195474946791E-011
  0.28260000000000002         -1.9111006111237102E-014
  0.28370000000000001         -1.1313138130176489E-011
  0.28480000000000005         -2.1776146795492292E-011
  0.28590000000000004         -3.3723152629863810E-011
  0.28700000000000003         -4.9730114837920254E-011
  0.28810000000000002         -7.0842186760269863E-011
  0.28920000000000001         -9.5497984469944731E-011
  0.29030000000000000         -1.1992025467275627E-010
  0.29140000000000005         -1.3982771788488072E-010
  0.29250000000000004         -1.5247204767126119E-010
  0.29360000000000003         -1.5776067000488302E-010
  0.29470000000000002         -1.5778660085868553E-010
  0.29580000000000001         -1.5510755835010657E-010
  0.29690000000000005         -1.5094253368351488E-010
  0.29800000000000004         -1.4452197300547775E-010
  0.29910000000000003         -1.3406296660382599E-010
  0.30020000000000002         -1.1872787609331916E-010
  0.30130000000000001         -1.0019899347240865E-010
  0.30240000000000000         -8.2670038096866126E-011
  0.30350000000000005         -7.1042559475525330E-011
  0.30460000000000004         -6.8297528930791945E-011
  0.30570000000000003         -7.3620663940125173E-011
  0.30680000000000002         -8.2477730604580032E-011
  0.30790000000000001         -8.8690197039809783E-011
  0.30900000000000005         -8.7370137124547395E-011
  0.31010000000000004         -7.7081527232734984E-011
  0.31120000000000003         -6.0097426630496894E-011
  0.31230000000000002         -4.0774451712943011E-011
  0.31340000000000001         -2.3130681321778196E-011
  0.31450000000000006         -9.0472608448311786E-012
  0.31560000000000005          2.0264803799055234E-012
  0.31670000000000004          1.1979364958201422E-011
  0.31780000000000003          2.2458159231274293E-011
  0.31890000000000002          3.3816490523626494E-011
  0.32000000000000001          4.5081120226994427E-011
  0.32110000000000005          5.4692779592527440E-011
  0.32220000000000004          6.1359900848524305E-011
  0.32330000000000003          6.4474968652398806E-011
  0.32440000000000002          6.4004315026757304E-011
  0.32550000000000001          6.0172921780361295E-011
  0.32660000000000006          5.3326708115890380E-011
  0.32770000000000005          4.4089229951815703E-011
  0.32880000000000004          3.3603088901970966E-011
  0.32990000000000003          2.3544407440161902E-011
  0.33100000000000002          1.5778578111910625E-011
  0.33210000000000001          1.1811050724402258E-011
  0.33320000000000005          1.2321471369029433E-011
  0.33430000000000004          1.6969347395174137E-011
  0.33540000000000003          2.4442886512591619E-011
  0.33650000000000002          3.2610317938218546E-011
  0.33760000000000001          3.8721326850243441E-011
  0.33870000000000006          3.9780399191189068E-011
  0.33980000000000005          3.3255627968166503E-011
  0.34090000000000004          1.8076471223033577E-011
  0.34200000000000003         -4.4672866972385344E-012
  0.34310000000000002         -3.0501860171791208E-011
  0.34420000000000001         -5.4412183266474731E-011
  0.34530000000000005         -7.0614917264882765E-011
  0.34640000000000004         -7.5559001037636854E-011
  0.34750000000000003         -6.9013919528024227E-011
  0.34860000000000002         -5.3984027274375275E-011
  0.34970000000000001         -3.5254782702921892E-011
  0.35080000000000006         -1.7276355377314262E-011
  0.35190000000000005         -2.4389906478973754E-012
  0.35300000000000004          9.4016576761278503E-012
  0.35410000000000003          1.9944598797524911E-011
  0.35520000000000002          3.0597982146769824E-011
  0.35630000000000001          4.0880678373959265E-011
  0.35740000000000005          4.8123915125750067E-011
  0.35850000000000004          4.8839079828208696E-011
  0.35960000000000003          4.1106634894208850E-011
  0.36070000000000002          2.6567885412529685E-011
  0.36180000000000001          1.0606125512516747E-011
  0.36290000000000006          2.3552561464310602E-013
  0.36400000000000005          6.3504935285461063E-013
  0.36510000000000004          1.2296685991264364E-011
  0.36620000000000003          3.0629478023902415E-011
  0.36730000000000002          4.8478768096137655E-011
  0.36840000000000006          6.0162521110706884E-011
  0.36950000000000005          6.4525632996106450E-011
  0.37060000000000004          6.5015087771468822E-011
  0.37170000000000003          6.6687508730888402E-011
  0.37280000000000002          7.2152392878922817E-011
  0.37390000000000001          7.9273886714249219E-011
  0.37500000000000006          8.2343626230592735E-011
  0.37610000000000005          7.6070180093445045E-011
  0.37720000000000004          5.9711049951597855E-011
  0.37830000000000003          3.8431872679459789E-011
  0.37940000000000002          2.0750453292208869E-011
  0.38050000000000006          1.3545078777262108E-011
  0.38160000000000005          1.7796638544022643E-011
  0.38270000000000004          2.7830979476086256E-011
  0.38380000000000003          3.4592848752988066E-011
  0.38490000000000002          3.0906343382428928E-011
  0.38600000000000001          1.5459959409602106E-011
  0.38710000000000000         -6.8419311058321847E-012
  0.38819999999999999         -2.8159714331809401E-011
  0.38930000000000009         -4.2386122722687712E-011
  0.39040000000000008         -4.8266402344488112E-011
  0.39150000000000007         -4.9242121278222411E-011
  0.39260000000000006         -5.0490979591797866E-011
  0.39370000000000005         -5.5348067975948397E-011
  0.39480000000000004         -6.3449698186975355E-011
  0.39590000000000003         -7.1568957403698703E-011
  0.39700000000000002         -7.6243808525164629E-011
  0.39810000000000001         -7.6217435678066646E-011
  0.39920000000000000         -7.3071092327291687E-011
  0.40029999999999999         -6.9852872605112720E-011
  0.40140000000000009         -6.8908672330820372E-011
  0.40250000000000008         -7.0518201085300074E-011
  0.40360000000000007         -7.3148128064094457E-011
  0.40470000000000006         -7.4858902404636322E-011
  0.40580000000000005         -7.4645418107512309E-011
  0.40690000000000004         -7.2773709460943075E-011
  0.40800000000000003         -7.0148629011343918E-011
  0.40910000000000002         -6.7528277559093062E-011
  0.41020000000000001         -6.5336006353747652E-011
  0.41130000000000000         -6.4040317882118499E-011
  0.41239999999999999         -6.4366289703474437E-011
  0.41350000000000009         -6.6697067412410469E-011
  0.41460000000000008         -6.9907664043491415E-011
  0.41570000000000007         -7.0738560964804753E-011
  0.41680000000000006         -6.4767898620900626E-011
  0.41790000000000005         -4.8909362931997343E-011
  0.41900000000000004         -2.3976775939213861E-011
  0.42010000000000003          4.6028765581991535E-012
  0.42120000000000002          2.8832042087301748E-011
  0.42230000000000001          4.1988468336284794E-011
  0.42340000000000000          4.1992757346627797E-011
  0.42449999999999999          3.2245737830670261E-011
  0.42560000000000009          1.9529824295934034E-011
  0.42670000000000008          1.0425021339940443E-011
  0.42780000000000007          8.4549682204624830E-012
  0.42890000000000006          1.3428608461826048E-011
  0.43000000000000005          2.2888074185465032E-011
  0.43110000000000004          3.4370016060856986E-011
  0.43220000000000003          4.7026876923909638E-011
  0.43330000000000002          6.1843675206616998E-011
  0.43440000000000001          8.0552442164093657E-011
  0.43550000000000000          1.0388249108330565E-010
  0.43659999999999999          1.2997693720497094E-010
  0.43770000000000009          1.5383288533017949E-010
  0.43880000000000008          1.6844504928935905E-010
  0.43990000000000007          1.6768979121115611E-010
  0.44100000000000006          1.4985914289024747E-010
  0.44210000000000005          1.1978587953959800E-010
  0.44320000000000004          8.7669776689706548E-011
  0.44430000000000003          6.4452289906795135E-011
  0.44540000000000002          5.6020651732311603E-011
  0.44650000000000001          5.9858391521285134E-011
  0.44760000000000000          6.6633716612161895E-011
  0.44869999999999999          6.6039272062134866E-011
  0.44980000000000009          5.3144051124582889E-011
  0.45090000000000008          3.0985207810962489E-011
  0.45200000000000007          7.7333314933624921E-012
  0.45310000000000006         -9.3299894335099739E-012
  0.45420000000000005         -1.8558358989026287E-011
  0.45530000000000004         -2.4127713443518699E-011
  0.45640000000000003         -3.2003510213561713E-011
  0.45750000000000002         -4.5178302571480895E-011
  0.45860000000000001         -6.1888422779311528E-011
  0.45970000000000000         -7.7801485942498718E-011
  0.46079999999999999         -8.9901017972282186E-011
  0.46190000000000009         -9.8681152844188333E-011
  0.46300000000000008         -1.0703641044305180E-010
  0.46410000000000007         -1.1716564575135850E-010
  0.46520000000000006         -1.2833283507289273E-010
  0.46630000000000005         -1.3729406048925638E-010
  0.46740000000000004         -1.4075623682884869E-010
  0.46850000000000003         -1.3763835049223475E-010
  0.46960000000000002         -1.2942665075889748E-010
  0.47070000000000001         -1.1880411772655260E-010
  0.47180000000000000         -1.0809871720675102E-010
  0.47289999999999999         -9.8769097180179946E-011
  0.47400000000000009         -9.1721623027623678E-011
  0.47510000000000008         -8.7358496530792862E-011
  0.47620000000000007         -8.4825746717899836E-011
  0.47730000000000006         -8.1275811055923867E-011
  0.47840000000000005         -7.2495389468887436E-011