 -0.12000000000000000          0.0000000000000000     
 -0.11889999999999999          2.0328156475832304E-013
 -0.11780000000000000          5.1291945933968427E-013
 -0.11670000000000000          7.8316747546812590E-013
 -0.11559999999999999          9.1669683827348144E-013
 -0.11449999999999999          9.2415397959103812E-013
 -0.11340000000000000          9.0610076545408490E-013
 -0.11230000000000000          9.7329685064684121E-013
 -0.11119999999999999          1.1645059865632084E-012
 -0.11009999999999999          1.4207829740262059E-012
 -0.10900000000000000          1.6326449689134623E-012
 -0.10790000000000000          1.7233608148319293E-012
 -0.10679999999999999          1.7065216365174686E-012
 -0.10569999999999999          1.6765566728879712E-012
 -0.10460000000000000          1.7408169012337087E-012
 -0.10349999999999999          1.9440970017610716E-012
 -0.10239999999999999          2.2403656532445142E-012
 -0.10130000000000000          2.5302670020626425E-012
 -0.10020000000000000          2.7343385698016721E-012
  -9.9099999999999994E-002     2.8469709112994213E-012
  -9.7999999999999990E-002     2.9325758273093546E-012
  -9.6899999999999986E-002     3.0698412422995823E-012
  -9.5799999999999996E-002     3.2884951125852363E-012
  -9.4699999999999993E-002     3.5470558629662492E-012
  -9.3599999999999989E-002     3.7674468422028767E-012
  -9.2499999999999999E-002     3.8984540257975177E-012
  -9.1399999999999995E-002     3.9582803008481341E-012
  -9.0299999999999991E-002     4.0230037002271861E-012
  -8.9200000000000002E-002     4.1696034456652633E-012
  -8.8099999999999984E-002     4.4172438947801435E-012
  -8.6999999999999994E-002     4.7120029029312060E-012
  -8.5899999999999990E-002     4.9671260815690688E-012
  -8.4799999999999986E-002     5.1284141640296229E-012
  -8.3699999999999997E-002     5.2148771176242559E-012
  -8.2599999999999993E-002     5.3032690837961665E-012
  -8.1499999999999989E-002     5.4677416850566366E-012
  -8.0399999999999999E-002     5.7203213255918715E-012
  -7.9299999999999995E-002     5.9979755266997008E-012
  -7.8199999999999992E-002     6.2072451935422606E-012
  -7.7100000000000002E-002     6.2937771027139176E-012
  -7.5999999999999984E-002     6.2845058720453681E-012
  -7.4899999999999994E-002     6.2698275084205802E-012
  -7.3799999999999991E-002     6.3376647366939979E-012
  -7.2699999999999987E-002     6.5076685044185761E-012
  -7.1599999999999997E-002     6.7145793816067173E-012
  -7.0499999999999993E-002     6.8539913008765508E-012
  -6.9399999999999989E-002     6.8576333523218064E-012
  -6.8300000000000000E-002     6.7430366514595335E-012
  -6.7199999999999996E-002     6.6007745806557390E-012
  -6.6099999999999992E-002     6.5280887993208242E-012
  -6.5000000000000002E-002     6.5571120241595373E-012
  -6.3899999999999985E-002     6.6300480393134615E-012
  -6.2799999999999995E-002     6.6394420009209769E-012
  -6.1699999999999991E-002     6.5042649752716352E-012
  -6.0599999999999994E-002     6.2266341924178150E-012
  -5.9499999999999990E-002     5.8884858465177103E-012
  -5.8399999999999994E-002     5.5914504473643746E-012
  -5.7299999999999990E-002     5.3842576785159576E-012
  -5.6199999999999986E-002     5.2302350518749342E-012
  -5.5099999999999996E-002     5.0373476805351494E-012
  -5.3999999999999992E-002     4.7273760154120139E-012
  -5.2899999999999989E-002     4.2929730688989171E-012
  -5.1799999999999985E-002     3.8015003221433302E-012
  -5.0699999999999995E-002     3.3444566324586211E-012
  -4.9599999999999991E-002     2.9710968709532385E-012
  -4.8499999999999988E-002     2.6552980535537976E-012
  -4.7399999999999998E-002     2.3188638330948729E-012
  -4.6299999999999994E-002     1.8922641072584309E-012
  -4.5199999999999990E-002     1.3667670370084757E-012
  -4.4099999999999986E-002     7.9972236376988592E-013
  -4.2999999999999997E-002     2.7068277160465764E-013
  -4.1899999999999993E-002    -1.7724857732534643E-013
  -4.0799999999999989E-002    -5.6639052694741265E-013
  -3.9699999999999985E-002    -9.6280882842486473E-013
  -3.8599999999999995E-002    -1.4217403299982022E-012
  -3.7499999999999992E-002    -1.9424175791698025E-012
  -3.6399999999999988E-002    -2.4667238699195435E-012
  -3.5299999999999984E-002    -2.9222488084430674E-012
  -3.4199999999999994E-002    -3.2764181909451447E-012
  -3.3099999999999991E-002    -3.5601313457682442E-012
  -3.1999999999999987E-002    -3.8427824163070944E-012
  -3.0899999999999997E-002    -4.1777089454049319E-012
  -2.9799999999999993E-002    -4.5597037268444966E-012
  -2.8699999999999989E-002    -4.9271597909478561E-012
  -2.7599999999999986E-002    -5.2075513847901930E-012
  -2.6499999999999996E-002    -5.3719823520299299E-012
  -2.5399999999999992E-002    -5.4573931955239398E-012
  -2.4299999999999988E-002    -5.5392183658163805E-012
  -2.3199999999999985E-002    -5.6746495276299048E-012
  -2.2099999999999995E-002    -5.8590319841605994E-012
  -2.0999999999999991E-002    -6.0284164553370827E-012
  -1.9899999999999987E-002    -6.1068693239469218E-012
  -1.8799999999999983E-002    -6.0635688905790647E-012
  -1.7699999999999994E-002    -5.9371058137972110E-012
  -1.6599999999999990E-002    -5.8085849215175740E-012
  -1.5499999999999986E-002    -5.7431099522497662E-012
  -1.4399999999999996E-002    -5.7427903297110547E-012
  -1.3299999999999992E-002    -5.7459869918146639E-012
  -1.2199999999999989E-002    -5.6733849115951818E-012
  -1.1099999999999985E-002    -5.4869611187868975E-012
  -9.9999999999999950E-003    -5.2185534271186828E-012
  -8.8999999999999913E-003    -4.9473155342622598E-012
  -7.7999999999999875E-003    -4.7430288605760760E-012
  -6.6999999999999837E-003    -4.6171100549088928E-012
  -5.5999999999999939E-003    -4.5170308228699399E-012
  -4.4999999999999901E-003    -4.3675340893775946E-012
  -3.3999999999999864E-003    -4.1276591299455244E-012
  -2.2999999999999826E-003    -3.8214726307981199E-012
  -1.1999999999999927E-003    -3.5204085532967496E-012
  -9.9999999999988987E-005    -3.2910627149918059E-012
   1.0000000000000148E-003    -3.1474154692183114E-012
   2.1000000000000185E-003    -3.0424729400275999E-012
   3.2000000000000084E-003    -2.9046298621180686E-012
   4.3000000000000121E-003    -2.6910552622608815E-012
   5.4000000000000159E-003    -2.4184939925581788E-012
   6.5000000000000058E-003    -2.1494173486746200E-012
   7.6000000000000234E-003    -1.9449242431328946E-012
   8.7000000000000133E-003    -1.8200813998417767E-012
   9.8000000000000032E-003    -1.7347192365912131E-012
   1.0900000000000021E-002    -1.6256120698337758E-012
   1.2000000000000011E-002    -1.4550627320428629E-012
   1.3100000000000001E-002    -1.2392436165602713E-012
   1.4200000000000018E-002    -1.0354964417179357E-012
   1.5300000000000008E-002    -8.9883433060984116E-013
   1.6400000000000026E-002    -8.4069794720220604E-013
   1.7500000000000016E-002    -8.2075182638188090E-013
   1.8600000000000005E-002    -7.7729819654861707E-013
   1.9700000000000023E-002    -6.7296596400841302E-013
   2.0800000000000013E-002    -5.2134576569406178E-013
   2.1900000000000003E-002    -3.7507705379907992E-013
   2.3000000000000020E-002    -2.8503278988657358E-013
   2.4100000000000010E-002    -2.6167525387201057E-013
   2.5200000000000000E-002    -2.6749709489817850E-013
   2.6300000000000018E-002    -2.4571975635387549E-013
   2.7400000000000008E-002    -1.6319795803266177E-013
   2.8500000000000025E-002    -3.5178492944062222E-014
   2.9600000000000015E-002     8.6387976987259723E-014
   3.0700000000000005E-002     1.5177579634209064E-013
   3.1800000000000023E-002     1.5025516171663617E-013
   3.2900000000000013E-002     1.1738934782665612E-013
   3.4000000000000002E-002     1.0797371576099757E-013
   3.5100000000000020E-002     1.5541009504532361E-013
   3.6200000000000010E-002     2.4800672042283167E-013
   3.7300000000000028E-002     3.3945575841518420E-013
   3.8400000000000017E-002     3.8488209454072183E-013
   3.9500000000000007E-002     3.7493613847144437E-013
   4.0600000000000025E-002     3.4243449457075401E-013
   4.1700000000000015E-002     3.3711423290492318E-013
   4.2800000000000005E-002     3.8803500751909330E-013
   4.3900000000000022E-002     4.8203189347200118E-013
   4.5000000000000012E-002     5.7404271073570534E-013
   4.6100000000000002E-002     6.2094264017972075E-013
   4.7200000000000020E-002     6.1308607719420232E-013
   4.8300000000000010E-002     5.8002484946439344E-013
   4.9400000000000027E-002     5.6676093670018202E-013
   5.0500000000000017E-002     5.9911298738914040E-013
   5.1600000000000007E-002     6.6456968786274726E-013
   5.2700000000000025E-002     7.2277372630458155E-013
   5.3800000000000014E-002     7.3710221689138658E-013
   5.4900000000000004E-002     7.0298009750261486E-013
   5.6000000000000022E-002     6.5141815245516173E-013
   5.7100000000000012E-002     6.2535555838971726E-013
   5.8200000000000002E-002     6.4703683711890171E-013
   5.9300000000000019E-002     7.0123268856000830E-013
   6.0400000000000009E-002     7.4683471986554581E-013
   6.1500000000000027E-002     7.4775856845898522E-013
   6.2600000000000017E-002     6.9961663079777068E-013
   6.3700000000000007E-002     6.3211772703145010E-013
   6.4800000000000024E-002     5.8574694218372872E-013
   6.5900000000000014E-002     5.8072383366307948E-013
   6.7000000000000004E-002     6.0183493072967229E-013
   6.8100000000000022E-002     6.1042793791883892E-013
   6.9200000000000012E-002     5.7416598324416753E-013
   7.0300000000000029E-002     4.9181388938866763E-013
   7.1400000000000019E-002     3.9433695838587983E-013
   7.2500000000000009E-002     3.2170208081742793E-013
   7.3600000000000027E-002     2.9312405682406878E-013
   7.4700000000000016E-002     2.9323242318980347E-013
   7.5800000000000006E-002     2.8434695301923908E-013
   7.6900000000000024E-002     2.3523725686432549E-013
   7.8000000000000014E-002     1.4446527608767815E-013
   7.9100000000000004E-002     4.0833607223106609E-014
   8.0200000000000021E-002    -3.8985143070641223E-014
   8.1300000000000011E-002    -7.8331764532045285E-014
   8.2400000000000029E-002    -9.2762454370402646E-014
   8.3500000000000019E-002    -1.1757961131733599E-013
   8.4600000000000009E-002    -1.8053047625992601E-013
   8.5700000000000026E-002    -2.8061152520091474E-013
   8.6800000000000016E-002    -3.8897517399939415E-013
   8.7900000000000006E-002    -4.7092483884318000E-013
   8.9000000000000024E-002    -5.1197582263246643E-013
   9.0100000000000013E-002    -5.2810457629237545E-013
   9.1200000000000003E-002    -5.5261703174134945E-013
   9.2300000000000021E-002    -6.0998704732670475E-013
   9.3400000000000011E-002    -6.9683814641066019E-013
   9.4500000000000028E-002    -7.8456213668550332E-013
   9.5600000000000018E-002    -8.4136538564748726E-013
   9.6700000000000008E-002    -8.5666299008690055E-013
   9.7800000000000026E-002    -8.4904370473983134E-013
   9.8900000000000016E-002    -8.5172363536905048E-013
  0.10000000000000001         -8.8670173202178500E-013
  0.10110000000000002         -9.4748741837441008E-013
  0.10220000000000001         -1.0036991810527162E-012
  0.10330000000000003         -1.0240975774987116E-012
  0.10440000000000002         -1.0005185653232666E-012
  0.10550000000000001         -9.5445471793406381E-013
  0.10660000000000003         -9.2122272858203935E-013
  0.10770000000000002         -9.2366977287461264E-013
  0.10880000000000001         -9.5528662620767979E-013
  0.10990000000000003         -9.8541356893413309E-013
  0.11100000000000002         -9.8247798317754986E-013
  0.11210000000000001         -9.3762649081577661E-013
  0.11320000000000002         -8.7098009530095269E-013
  0.11430000000000001         -8.1604649855564061E-013
  0.11540000000000003         -7.9438218770405748E-013
  0.11650000000000002         -7.9981268555683514E-013
  0.11760000000000001         -8.0401846864348087E-013
  0.11870000000000003         -7.7890861752386365E-013
  0.11980000000000002         -7.1848673521922337E-013
  0.12090000000000001         -6.4351312498742885E-013
  0.12200000000000003         -5.8560198385826868E-013
  0.12310000000000001         -5.6316696790089666E-013
  0.12420000000000003         -5.6775536590012282E-013
  0.12530000000000002         -5.7116436875852198E-013
  0.12640000000000001         -5.4765398683397095E-013
  0.12750000000000003         -4.9395453742042267E-013
  0.12860000000000002         -4.3154273747964069E-013
  0.12970000000000001         -3.8944032112530955E-013
  0.13080000000000003         -3.8093508049567280E-013
  0.13190000000000002         -3.9243261109006415E-013
  0.13300000000000001         -3.9335198765639052E-013
  0.13410000000000000         -3.5967799647492836E-013
  0.13520000000000004         -2.9303553134186327E-013
  0.13630000000000003         -2.2032703636288267E-013
  0.13740000000000002         -1.7378576090090719E-013
  0.13850000000000001         -1.6645719144629137E-013
  0.13960000000000000         -1.8194245837685585E-013
  0.14070000000000005         -1.8660633048385539E-013
  0.14180000000000004         -1.5532003709470115E-013
  0.14290000000000003         -9.1227459584262070E-014
  0.14400000000000002         -2.4210617685951856E-014
  0.14510000000000001          1.1276738957849861E-014
  0.14620000000000000          2.5616980582719577E-015
  0.14730000000000004         -3.0686234310223435E-014
  0.14840000000000003         -5.0071078258501934E-014
  0.14950000000000002         -2.6511793823096797E-014
  0.15060000000000001          3.8085996460412394E-014
  0.15170000000000000          1.1183653850183086E-013
  0.15280000000000005          1.5606214788956660E-013
  0.15390000000000004          1.5357482523464235E-013
  0.15500000000000003          1.2105465509173698E-013
  0.15610000000000002          9.6314204777087689E-014
  0.15720000000000001          1.0995220079006419E-013
  0.15830000000000000          1.6254044458814289E-013
  0.15940000000000004          2.2432571119573920E-013
  0.16050000000000003          2.5757857127718478E-013
  0.16160000000000002          2.4481181951605501E-013
  0.16270000000000001          2.0178681463710418E-013
  0.16380000000000000          1.6571344305890716E-013
  0.16490000000000005          1.6765724129077065E-013
  0.16600000000000004          2.0990549644841950E-013
  0.16710000000000003          2.6513917328863707E-013
  0.16820000000000002          2.9772717348447135E-013
  0.16930000000000001          2.9081443580292728E-013
  0.17040000000000000          2.5865800201332685E-013
  0.17150000000000004          2.3499339202146468E-013
  0.17260000000000003          2.4645771857207528E-013
  0.17370000000000002          2.9142860865507807E-013
  0.17480000000000001          3.4048428469315629E-013
  0.17590000000000000          3.5822847301363335E-013
  0.17700000000000005          3.2994630037644585E-013
  0.17810000000000004          2.7282093468666198E-013
  0.17920000000000003          2.2310567077665363E-013
  0.18030000000000002          2.0888813479444534E-013
  0.18140000000000001          2.2907082952616845E-013
  0.18250000000000000          2.5455784788759917E-013
  0.18360000000000004          2.5083011706712807E-013
  0.18470000000000003          2.0481390710023675E-013
  0.18580000000000002          1.3555602101360474E-013
  0.18690000000000001          8.0368775226769416E-014
  0.18800000000000000          6.6687492436233102E-014
  0.18910000000000005          9.0857862438647593E-014
  0.19020000000000004          1.2006723146562762E-013
  0.19130000000000003          1.1630927851752588E-013
  0.19240000000000002          6.4619282749241013E-014
  0.19350000000000001         -1.5588506522838647E-014
  0.19460000000000005         -8.4737108317228451E-014
  0.19570000000000004         -1.1239049763320665E-013
  0.19680000000000003         -9.9784017830372023E-014
  0.19790000000000002         -7.8665995303593879E-014
  0.19900000000000001         -8.7199899401007782E-014
  0.20010000000000000         -1.4087564529284347E-013
  0.20120000000000005         -2.2021943047928776E-013
  0.20230000000000004         -2.8463906433382847E-013
  0.20340000000000003         -3.0225504556805628E-013
  0.20450000000000002         -2.7359033910207860E-013
  0.20560000000000000         -2.3148594381659757E-013
  0.20670000000000005         -2.1724584260949121E-013
  0.20780000000000004         -2.5065455675791864E-013
  0.20890000000000003         -3.1601736529147369E-013
  0.21000000000000002         -3.7441528613197276E-013
  0.21110000000000001         -3.9288835631367975E-013
  0.21220000000000000         -3.6877483240371674E-013
  0.21330000000000005         -3.3119763167752832E-013
  0.21440000000000003         -3.1880820932862559E-013
  0.21550000000000002         -3.5055790438844419E-013
  0.21660000000000001         -4.1131873548487992E-013
  0.21770000000000000         -4.6295015060681104E-013
  0.21880000000000005         -4.7238916048115393E-013
  0.21990000000000004         -4.3575521579867286E-013
  0.22100000000000003         -3.8063264252190127E-013
  0.22210000000000002         -3.4511813668567051E-013
  0.22320000000000001         -3.4952699074823245E-013
  0.22430000000000000         -3.8192089190957046E-013
  0.22540000000000004         -4.0803037779737594E-013
  0.22650000000000003         -3.9777084381376870E-013
  0.22760000000000002         -3.4821261305208781E-013
  0.22870000000000001         -2.8574787696998521E-013
  0.22980000000000000         -2.4600525377500530E-013
  0.23090000000000005         -2.4683025048603138E-013
  0.23200000000000004         -2.7477361016613895E-013
  0.23310000000000003         -2.9524036585974579E-013
  0.23420000000000002         -2.7857707308064082E-013
  0.23530000000000001         -2.2239547838937736E-013
  0.23640000000000000         -1.5333085137068063E-013
  0.23750000000000004         -1.0697021074364641E-013
  0.23860000000000003         -1.0112514831838301E-013
  0.23970000000000002         -1.2259985973536367E-013
  0.24080000000000001         -1.3740759512257452E-013
  0.24190000000000000         -1.1672012336933798E-013
  0.24300000000000005         -5.8991812635357508E-014
  0.24410000000000004          8.4284913640106370E-015
  0.24520000000000003          4.9475960317841673E-014
  0.24630000000000002          4.6250116472681463E-014
  0.24740000000000001          1.2460896246364305E-014
  0.24850000000000005         -1.6653931954991922E-014
  0.24960000000000004         -1.0441492530203602E-014
  0.25070000000000003          3.4493024311122896E-014
  0.25180000000000002          9.1935519167770043E-014
  0.25290000000000001          1.2573970964277747E-013
  0.25400000000000000          1.1683031885138380E-013
  0.25510000000000005          7.7432634349157495E-014
  0.25620000000000004          4.2010800551998745E-014
  0.25730000000000003          4.1752950125999399E-014
  0.25840000000000002          8.1610471764498030E-014
  0.25950000000000001          1.3686726925321224E-013
  0.26060000000000005          1.7159654168487700E-013
  0.26170000000000004          1.6512385463111057E-013
  0.26280000000000003          1.2683717922067848E-013
  0.26390000000000002          8.8557341092593826E-014
  0.26500000000000001          8.0460925840974542E-014
  0.26610000000000000          1.0867165641926209E-013
  0.26720000000000005          1.5114290499447459E-013
  0.26830000000000004          1.7461390347101985E-013
  0.26940000000000003          1.5969091767723512E-013
  0.27050000000000002          1.1522629575259758E-013
  0.27160000000000001          7.1408854451903539E-014
  0.27270000000000005          5.7019546890789370E-014
  0.27380000000000004          7.8074638032212864E-014
  0.27490000000000003          1.1382557464919532E-013
  0.27600000000000002          1.3289045680618555E-013
  0.27710000000000001          1.1715776170747090E-013
  0.27820000000000000          7.5388364715023006E-014
  0.27930000000000005          3.6346745865080750E-014
  0.28040000000000004          2.6776215491792329E-014
  0.28150000000000003          5.0922170498818213E-014
  0.28260000000000002          8.7078808791431323E-014
  0.28370000000000001          1.0378042838633339E-013
  0.28480000000000005          8.3478376820755969E-014
  0.28590000000000004          3.5928843984814735E-014
  0.28700000000000003         -8.7614240896712670E-015
  0.28810000000000002         -2.2254294648167796E-014
  0.28920000000000001          1.2351776533707637E-015
  0.29030000000000000          4.0958935949719305E-014
  0.29140000000000005          6.5367925131104736E-014
  0.29250000000000004          5.5782785066463532E-014
  0.29360000000000003          2.0376845017067896E-014
  0.29470000000000002         -1.1873577974025436E-014
  0.29580000000000001         -1.2690767462311660E-014
  0.29690000000000005          2.4565238138745344E-014
  0.29800000000000004          8.0014520439254272E-014
  0.29910000000000003          1.2193345592564924E-013
  0.30020000000000002          1.3000898661053983E-013
  0.30130000000000001          1.0996805813442955E-013
  0.30240000000000000          8.8935301515884593E-014
  0.30350000000000005          9.5214153351947171E-014
  0.30460000000000004          1.3761376985414585E-013
  0.30570000000000003          1.9954494292495964E-013
  0.30680000000000002          2.5196018188036920E-013
  0.30790000000000001          2.7522160377012351E-013
  0.30900000000000005          2.7353824408076436E-013
  0.31010000000000004          2.7138041039772364E-013
  0.31120000000000003          2.9480253809856990E-013
  0.31230000000000002          3.5175513594443059E-013
  0.31340000000000001          4.2601441942104492E-013
  0.31450000000000006          4.8905708928225996E-013
  0.31560000000000005          5.2085055878725573E-013
  0.31670000000000004          5.2405795375763850E-013
  0.31780000000000003          5.2126629549714676E-013
  0.31890000000000002          5.3757231649418237E-013
  0.32000000000000001          5.8166296983092742E-013
  0.32110000000000005          6.3943294782416089E-013
  0.32220000000000004          6.8467263865883950E-013
  0.32330000000000003          6.9864144510527946E-013
  0.32440000000000002          6.8388160443292383E-013
  0.32550000000000001          6.6210843938964180E-013
  0.32660000000000006          6.5794618715232833E-013
  0.32770000000000005          6.8071486645334506E-013
  0.32880000000000004          7.1772573396472687E-013
  0.32990000000000003          7.4383587018695018E-013
  0.33100000000000002          7.3995621531759511E-013
  0.33210000000000001          7.0675442107109729E-013
  0.33320000000000005          6.6359986774287705E-013
  0.33430000000000004          6.3385781694532711E-013
  0.33540000000000003          6.2764956702642633E-013
  0.33650000000000002          6.3480232001080340E-013
  0.33760000000000001          6.3291889840038129E-013
  0.33870000000000006          6.0425243046752204E-013
  0.33980000000000005          5.4874935663245713E-013
  0.34090000000000004          4.8376401323252936E-013
  0.34200000000000003          4.3100529910910721E-013
  0.34310000000000002          4.0066352207806723E-013
  0.34420000000000001          3.8447025818103105E-013
  0.34530000000000005          3.6253196958540526E-013
  0.34640000000000004          3.1848099815368460E-013
  0.34750000000000003          2.5150430068540193E-013
  0.34860000000000002          1.7645017506014888E-013
  0.34970000000000001          1.1229413124093673E-013
  0.35080000000000006          6.7865694894794194E-014
  0.35190000000000005          3.5521382974729781E-014
  0.35300000000000004         -2.7492375429357610E-015
  0.35410000000000003         -6.1665984233843800E-014
  0.35520000000000002         -1.4182523159384651E-013
  0.35630000000000001         -2.2969812338587275E-013
  0.35740000000000005         -3.0819034883728488E-013
  0.35850000000000004         -3.6961704227993077E-013
  0.35960000000000003         -4.2133123577838606E-013
  0.36070000000000002         -4.7995049608719496E-013
  0.36180000000000001         -5.5873735342164561E-013
  0.36290000000000006         -6.5771769309560767E-013
  0.36400000000000005         -7.6388894945253729E-013
  0.36510000000000004         -8.6118503517562132E-013
  0.36620000000000003         -9.4257110445167938E-013
  0.36730000000000002         -1.0151671129791433E-012
  0.36840000000000006         -1.0946429263934988E-012
  0.36950000000000005         -1.1931915907875338E-012
  0.37060000000000004         -1.3101212767516672E-012
  0.37170000000000003         -1.4320516283922528E-012
  0.37280000000000002         -1.5424848833032936E-012
  0.37390000000000001         -1.6335936438831751E-012
  0.37500000000000006         -1.7115202407265403E-012
  0.37610000000000005         -1.7913838731804258E-012
  0.37720000000000004         -1.8857914273059443E-012
  0.37830000000000003         -1.9953173134156163E-012
  0.37940000000000002         -2.1077987346642831E-012
  0.38050000000000006         -2.2067271950533451E-012
  0.38160000000000005         -2.2824242386180815E-012
  0.38270000000000004         -2.3378837812671564E-012
  0.38380000000000003         -2.3853028806538542E-012
  0.38490000000000002         -2.4362033533078225E-012
  0.38600000000000001         -2.4925573629866356E-012
  0.38710000000000000         -2.5452873185504267E-012
  0.38819999999999999         -2.5808879640168695E-012
  0.38930000000000009         -2.5910055216271457E-012
  0.39040000000000008         -2.5779113949483376E-012
  0.39150000000000007         -2.5521368734014511E-012
  0.39260000000000006         -2.5244125227608491E-012
  0.39370000000000005         -2.4980724815505914E-012
  0.39480000000000004         -2.4673811034102154E-012
  0.39590000000000003         -2.4225935791762153E-012
  0.39700000000000002         -2.3575739750540708E-012
  0.39810000000000001         -2.2741706389188548E-012
  0.39920000000000000         -2.1803166780994743E-012
  0.40029999999999999         -2.0836888945283878E-012
  0.40140000000000009         -1.9859951234741832E-012
  0.40250000000000008         -1.8822185446250248E-012
  0.40360000000000007         -1.7651793543253743E-012
  0.40470000000000006         -1.6317007317723313E-012
  0.40580000000000005         -1.4855923465635958E-012
  0.40690000000000004         -1.3352724864841189E-012
  0.40800000000000003         -1.1880304595898550E-012
  0.40910000000000002         -1.0454387927003920E-012
  0.41020000000000001         -9.0340440574361349E-013
  0.41130000000000000         -7.5666485239258903E-013
  0.41239999999999999         -6.0408893029650187E-013
  0.41350000000000009         -4.5056565942786038E-013
  0.41460000000000008         -3.0396079104820497E-013
  0.41570000000000007         -1.6947559536360206E-013
  0.41680000000000006         -4.5791530063372821E-014
  0.41790000000000005          7.3934133435698860E-014
  0.41900000000000004          1.9683026500335081E-013
  0.42010000000000003          3.2467740583509239E-013
  0.42120000000000002          4.5207641883792180E-013
  0.42230000000000001          5.6982809250109300E-013
  0.42340000000000000          6.7108113644000445E-013
  0.42449999999999999          7.5576605330126446E-013
  0.42560000000000009          8.3009824890727398E-013
  0.42670000000000008          9.0155091202777413E-013
  0.42780000000000007          9.7299360057495428E-013
  0.42890000000000006          1.0402640081968390E-012
  0.43000000000000005          1.0949186394038196E-012
  0.43110000000000004          1.1301681117477810E-012
  0.43220000000000003          1.1457633839784465E-012
  0.43330000000000002          1.1484266179909003E-012
  0.43440000000000001          1.1476310302804264E-012
  0.43550000000000000          1.1497759073361972E-012
  0.43659999999999999          1.1547729950924918E-012
  0.43770000000000009          1.1571875132983836E-012
  0.43880000000000008          1.1508111034535682E-012
  0.43990000000000007          1.1332604723356543E-012
  0.44100000000000006          1.1074403059951362E-012
  0.44210000000000005          1.0791416535154145E-012
  0.44320000000000004          1.0528178753354096E-012
  0.44430000000000003          1.0286938349872361E-012
  0.44540000000000002          1.0031674875807978E-012
  0.44650000000000001          9.7195515031492020E-013
  0.44760000000000000          9.3351899081607808E-013
  0.44869999999999999          8.9029727134893786E-013
  0.44980000000000009          8.4703315958459222E-013
  0.45090000000000008          8.0763618014304392E-013
  0.45200000000000007          7.7296225642727581E-013
  0.45310000000000006          7.4104524199567446E-013
  0.45420000000000005          7.0940692171592499E-013
  0.45530000000000004          6.7756021774883329E-013
  0.45640000000000003          6.4778574935986215E-013
  0.45750000000000002          6.2363688075359326E-013
  0.45860000000000001          6.0734175582339384E-013
  0.45970000000000000          5.9805610634483653E-013
  0.46079999999999999          5.9225898576560063E-013
  0.46190000000000009          5.8601268021451313E-013
  0.46300000000000008          5.7749329058522160E-013
  0.46410000000000007          5.6805325066777360E-013
  0.46520000000000006          5.6114926804069936E-013
  0.46630000000000005          5.5995485667511341E-013
  0.46740000000000004          5.6532631944653068E-013
  0.46850000000000003          5.7546165813034420E-013
  0.46960000000000002          5.8737850359447186E-013
  0.47070000000000001          5.9910593891407802E-013
  0.47180000000000000          6.1106528505107772E-013
  0.47289999999999999          6.2573410660194864E-013
  0.47400000000000009          6.4587180652108622E-013
  0.47510000000000008          6.7251905626954720E-013
  0.47620000000000007          7.0408392180151836E-013
  0.47730000000000006          7.3706665271610973E-013
  0.47840000000000005          7.6790304279282362E-013