 -0.12000000000000000          0.0000000000000000     
 -0.11889999999999999          1.2590089139426709E-015
 -0.11780000000000000          2.5552619699354428E-015
 -0.11670000000000000          2.8056417466619998E-015
 -0.11559999999999999          2.0475350430370705E-015
 -0.11449999999999999          1.0363469488378088E-015
 -0.11340000000000000          3.6192036231318561E-016
 -0.11230000000000000          2.4766583812379955E-016
 -0.11119999999999999          7.8682945606168954E-016
 -0.11009999999999999          1.8054149996373758E-015
 -0.10900000000000000          2.6053913235899191E-015
 -0.10790000000000000          2.4360743584018192E-015
 -0.10679999999999999          1.4038731196063701E-015
 -0.10569999999999999          5.1362925792680152E-016
 -0.10460000000000000          5.5783071087154576E-016
 -0.10349999999999999          1.2625495623763781E-015
 -0.10239999999999999          1.8059611292867598E-015
 -0.10130000000000000          1.8833668505291603E-015
 -0.10020000000000000          1.8245769068678928E-015
  -9.9099999999999994E-002     1.8228212134854940E-015
  -9.7999999999999990E-002     1.6271981530992606E-015
  -9.6899999999999986E-002     1.1333843228168573E-015
  -9.5799999999999996E-002     7.8289848406708564E-016
  -9.4699999999999993E-002     1.0191531597501798E-015
  -9.3599999999999989E-002     1.6264953335487065E-015
  -9.2499999999999999E-002     1.9987080483017892E-015
  -9.1399999999999995E-002     1.9180472712992912E-015
  -9.0299999999999991E-002     1.6729158357958001E-015
  -8.9200000000000002E-002     1.4703326147892656E-015
  -8.8099999999999984E-002     1.1992328143673784E-015
  -8.6999999999999994E-002     8.8770058552892463E-016
  -8.5899999999999990E-002     9.3316419424705869E-016
  -8.4799999999999986E-002     1.5372891769206763E-015
  -8.3699999999999997E-002     2.1962812698574505E-015
  -8.2599999999999993E-002     2.1903241181661995E-015
  -8.1499999999999989E-002     1.5025514965128235E-015
  -8.0399999999999999E-002     8.5389390596352521E-016
  -7.9299999999999995E-002     7.9667381111403222E-016
  -7.8199999999999992E-002     1.1500676654827006E-015
  -7.7100000000000002E-002     1.4532355824304338E-015
  -7.5999999999999984E-002     1.5912840090750036E-015
  -7.4899999999999994E-002     1.6810553756423598E-015
  -7.3799999999999991E-002     1.6272154906113535E-015
  -7.2699999999999987E-002     1.2374358125241816E-015
  -7.1599999999999997E-002     7.0830996793413882E-016
  -7.0499999999999993E-002     5.5117841792005848E-016
  -6.9399999999999989E-002     9.1441934660036182E-016
  -6.8300000000000000E-002     1.3222521967062889E-015
  -6.7199999999999996E-002     1.2907221885906955E-015
  -6.6099999999999992E-002     9.3461800401612928E-016
  -6.5000000000000002E-002     6.9081845659701413E-016
  -6.3899999999999985E-002     6.4439721688080975E-016
  -6.2799999999999995E-002     5.0325605416301793E-016
  -6.1699999999999991E-002     1.8189998072362611E-016
  -6.0599999999999994E-002    -2.9451064397624601E-018
  -5.9499999999999990E-002     1.5214747610301932E-016
  -5.8399999999999994E-002     3.5676290890490346E-016
  -5.7299999999999990E-002     2.0826570656847213E-016
  -5.6199999999999986E-002    -2.5267002688621555E-016
  -5.5099999999999996E-002    -6.5248127470235082E-016
  -5.3999999999999992E-002    -8.3343981303426081E-016
  -5.2899999999999989E-002    -9.7283967141631565E-016
  -5.1799999999999985E-002    -1.1703590469282404E-015
  -5.0699999999999995E-002    -1.2612744369848412E-015
  -4.9599999999999991E-002    -1.1742500078136181E-015
  -4.8499999999999988E-002    -1.1912380676274302E-015
  -4.7399999999999998E-002    -1.5966018751138764E-015
  -4.6299999999999994E-002    -2.2184204564959483E-015
  -4.5199999999999990E-002    -2.5992160843425085E-015
  -4.4099999999999986E-002    -2.5810850504111673E-015
  -4.2999999999999997E-002    -2.4582438932676074E-015
  -4.1899999999999993E-002    -2.5239435182115718E-015
  -4.0799999999999989E-002    -2.7312062978464037E-015
  -3.9699999999999985E-002    -2.9188459686887172E-015
  -3.8599999999999995E-002    -3.1314658472626254E-015
  -3.7499999999999992E-002    -3.4811426527904242E-015
  -3.6399999999999988E-002    -3.8251989450125903E-015
  -3.5299999999999984E-002    -3.8705613397403686E-015
  -3.4199999999999994E-002    -3.6081705250769190E-015
  -3.3099999999999991E-002    -3.3967687732871940E-015
  -3.1999999999999987E-002    -3.5199771999534396E-015
  -3.0899999999999997E-002    -3.8442443365950542E-015
  -2.9799999999999993E-002    -4.0475512207363684E-015
  -2.8699999999999989E-002    -4.0379333539707179E-015
  -2.7599999999999986E-002    -3.9618404866300032E-015
  -2.6499999999999996E-002    -3.8912010227044704E-015
  -2.5399999999999992E-002    -3.7395218522892516E-015
  -2.4299999999999988E-002    -3.5043117324402237E-015
  -2.3199999999999985E-002    -3.3681574297213912E-015
  -2.2099999999999995E-002    -3.4399260147976862E-015
  -2.0999999999999991E-002    -3.5436031394168847E-015
  -1.9899999999999987E-002    -3.4242772907157518E-015
  -1.8799999999999983E-002    -3.0901358976100825E-015
  -1.7699999999999994E-002    -2.7853839895439212E-015
  -1.6599999999999990E-002    -2.6450312963096441E-015
  -1.5499999999999986E-002    -2.5448092529875975E-015
  -1.4399999999999996E-002    -2.3309761823658275E-015
  -1.3299999999999992E-002    -2.0425150141072674E-015
  -1.2199999999999989E-002    -1.8030692103419318E-015
  -1.1099999999999985E-002    -1.6033568975325818E-015
  -9.9999999999999950E-003    -1.3398865722646615E-015
  -8.8999999999999913E-003    -1.0322395712452324E-015
  -7.7999999999999875E-003    -8.4846693996675180E-016
  -6.6999999999999837E-003    -8.7963115357991572E-016
  -5.5999999999999939E-003    -9.9880374911096924E-016
  -4.4999999999999901E-003    -9.9820496720366659E-016
  -3.3999999999999864E-003    -7.7706461170800535E-016
  -2.2999999999999826E-003    -3.2464034019758611E-016
  -1.1999999999999927E-003     3.8453007083195751E-016
  -9.9999999999988987E-005     1.3243922186770505E-015
   1.0000000000000148E-003     2.2439592561771394E-015
   2.1000000000000185E-003     2.7044060747792042E-015
   3.2000000000000084E-003     2.3929819174750228E-015
   4.3000000000000121E-003     1.3815467602847570E-015
   5.4000000000000159E-003     5.1195576045940352E-017
   6.5000000000000058E-003    -1.1684894453725927E-015
   7.6000000000000234E-003    -1.9187929718153181E-015
   8.7000000000000133E-003    -1.8563012794324504E-015
   9.8000000000000032E-003    -6.7795598489097430E-016
   1.0900000000000021E-002     1.6559962918468843E-015
   1.2000000000000011E-002     4.7099990634172947E-015
   1.3100000000000001E-002     7.6100479184689120E-015
   1.4200000000000018E-002     9.3033939222963331E-015
   1.5300000000000008E-002     8.8753826565485921E-015
   1.6400000000000026E-002     5.8809899725253451E-015
   1.7500000000000016E-002     7.0887468470686951E-016
   1.8600000000000005E-002    -5.2114833274854714E-015
   1.9700000000000023E-002    -9.7057741213672797E-015
   2.0800000000000013E-002    -1.0726167938326833E-014
   2.1900000000000003E-002    -7.3508363278982166E-015
   2.3000000000000020E-002    -2.8303511770081840E-016
   2.4100000000000010E-002     8.4096738089165147E-015
   2.5200000000000000E-002     1.6074393199195115E-014
   2.6300000000000018E-002     2.0363386391351658E-014
   2.7400000000000008E-002     1.9957611380563798E-014
   2.8500000000000025E-002     1.4941137109405706E-014
   2.9600000000000015E-002     6.6639250398334497E-015
   3.0700000000000005E-002    -2.8914154335976917E-015
   3.1800000000000023E-002    -1.1882016272537823E-014
   3.2900000000000013E-002    -1.9023689893537436E-014
   3.4000000000000002E-002    -2.3468847868846238E-014
   3.5100000000000020E-002    -2.4413228643927839E-014
   3.6200000000000010E-002    -2.0861050672283860E-014
   3.7300000000000028E-002    -1.1804229339288930E-014
   3.8400000000000017E-002     3.1319401249056224E-015
   3.9500000000000007E-002     2.2669928142801753E-014
   4.0600000000000025E-002     4.2896604229325808E-014
   4.1700000000000015E-002     5.7174382712604111E-014
   4.2800000000000005E-002     5.7820641772220968E-014
   4.3900000000000022E-002     3.9539587649478277E-014
   4.5000000000000012E-002     3.2184774236946686E-015
   4.6100000000000002E-002    -4.2075837351806412E-014
   4.7200000000000020E-002    -8.0548141148784791E-014
   4.8300000000000010E-002    -9.4705950978561927E-014
   4.9400000000000027E-002    -7.2406986368077315E-014
   5.0500000000000017E-002    -1.3199218893540512E-014
   5.1600000000000007E-002     6.8931965733323718E-014
   5.2700000000000025E-002     1.4816881937961297E-013
   5.3800000000000014E-002     1.9439982958619987E-013
   5.4900000000000004E-002     1.8310686452665654E-013
   5.6000000000000022E-002     1.0412411749663338E-013
   5.7100000000000012E-002    -3.3475126475342243E-014
   5.8200000000000002E-002    -2.0164887412651889E-013
   5.9300000000000019E-002    -3.5887387120407734E-013
   6.0400000000000009E-002    -4.6000756777957395E-013
   6.1500000000000027E-002    -4.6853035665432716E-013
   6.2600000000000017E-002    -3.6775835901322238E-013
   6.3700000000000007E-002    -1.6689683486624147E-013
   6.4800000000000024E-002     1.0124984577019993E-013
   6.5900000000000014E-002     3.9121728856020570E-013
   6.7000000000000004E-002     6.6101204728022550E-013
   6.8100000000000022E-002     8.8682103053537052E-013
   6.9200000000000012E-002     1.0690933575693975E-012
   7.0300000000000029E-002     1.2261956155511543E-012
   7.1400000000000019E-002     1.3783524787502425E-012
   7.2500000000000009E-002     1.5308441584166394E-012
   7.3600000000000027E-002     1.6669479205268083E-012
   7.4700000000000016E-002     1.7559688170228584E-012
   7.5800000000000006E-002     1.7725949537301171E-012
   7.6900000000000024E-002     1.7158751280583365E-012
   7.8000000000000014E-002     1.6149117238146266E-012
   7.9100000000000004E-002     1.5151335603112800E-012
   8.0200000000000021E-002     1.4503169173546669E-012
   8.1300000000000011E-002     1.4158059843535773E-012
   8.2400000000000029E-002     1.3594875207784220E-012
   8.3500000000000019E-002     1.1994495607416546E-012
   8.4600000000000009E-002     8.6226461339996831E-013
   8.5700000000000026E-002     3.2316735318495698E-013
   8.6800000000000016E-002    -3.7268197033707536E-013
   8.7900000000000006E-002    -1.1197871140085767E-012
   8.9000000000000024E-002    -1.7889060606407169E-012
   9.0100000000000013E-002    -2.2746186065344743E-012
   9.1200000000000003E-002    -2.5329918907218204E-012
   9.2300000000000021E-002    -2.5942770280377986E-012
   9.3400000000000011E-002    -2.5478059152188012E-012
   9.4500000000000028E-002    -2.5075773057655363E-012
   9.5600000000000018E-002    -2.5730440963646059E-012
   9.6700000000000008E-002    -2.7984799318470263E-012
   9.7800000000000026E-002    -3.1788994229719432E-012
   9.8900000000000016E-002    -3.6551580198110726E-012
  0.10000000000000001         -4.1363076524803827E-012
  0.10110000000000002         -4.5335177832162963E-012
  0.10220000000000001         -4.7952421820286471E-012
  0.10330000000000003         -4.9298804241444568E-012
  0.10440000000000002         -5.0044412969691557E-012
  0.10550000000000001         -5.1157514346252124E-012
  0.10660000000000003         -5.3427221553965010E-012
  0.10770000000000002         -5.7002316585550379E-012
  0.10880000000000001         -6.1168496439070227E-012
  0.10990000000000003         -6.4515963099935648E-012
  0.11100000000000002         -6.5458493535505072E-012
  0.11210000000000001         -6.2904889148035275E-012
  0.11320000000000002         -5.6788298449194388E-012
  0.11430000000000001         -4.8214362546079158E-012
  0.11540000000000003         -3.9152799477968644E-012
  0.11650000000000002         -3.1782845706300160E-012
  0.11760000000000001         -2.7725116707209531E-012
  0.11870000000000003         -2.7423873183594676E-012
  0.11980000000000002         -2.9902114017585279E-012
  0.12090000000000001         -3.2999997137999066E-012
  0.12200000000000003         -3.4066374173811151E-012
  0.12310000000000001         -3.0916113911612831E-012
  0.12420000000000003         -2.2726133920944074E-012
  0.12530000000000002         -1.0499342364333063E-012
  0.12640000000000001          3.1765441750549575E-013
  0.12750000000000003          1.5084093359781941E-012
  0.12860000000000002          2.2698115591434462E-012
  0.12970000000000001          2.5262263674154648E-012
  0.13080000000000003          2.4050846208301986E-012
  0.13190000000000002          2.1610222887339884E-012
  0.13300000000000001          2.0343428688360638E-012
  0.13410000000000000          2.1212846002289027E-012
  0.13520000000000004          2.3332692444591551E-012
  0.13630000000000003          2.4730112603340745E-012
  0.13740000000000002          2.3835391184946599E-012
  0.13850000000000001          2.0765429316023695E-012
  0.13960000000000000          1.7532236308598211E-012
  0.14070000000000005          1.6968846844792283E-012
  0.14180000000000004          2.1012446928465573E-012
  0.14290000000000003          2.9454088118336840E-012
  0.14400000000000002          4.0007693502552423E-012
  0.14510000000000001          4.9676332796608540E-012
  0.14620000000000000          5.6485426971668192E-012
  0.14730000000000004          6.0369171327603266E-012
  0.14840000000000003          6.2560318156933253E-012
  0.14950000000000002          6.3957645017655197E-012
  0.15060000000000001          6.3793076468897759E-012
  0.15170000000000000          5.9854065606784458E-012
  0.15280000000000005          5.0444976622809628E-012
  0.15390000000000004          3.6849546454416494E-012
  0.15500000000000003          2.4343467841321299E-012
  0.15610000000000002          2.0416425842309374E-012
  0.15720000000000001          3.0642432486609228E-012
  0.15830000000000000          5.4451194443221319E-012
  0.15940000000000004          8.3653189483154531E-012
  0.16050000000000003          1.0531432628732165E-011
  0.16160000000000002          1.0804053878922477E-011
  0.16270000000000001          8.8410032434997767E-012
  0.16380000000000000          5.3736740109734470E-012
  0.16490000000000005          1.9128261153757376E-012
  0.16600000000000004          2.7831067784743944E-015
  0.16710000000000003          4.1984066019993215E-013
  0.16820000000000002          2.7672225042229540E-012
  0.16930000000000001          5.7076263526460800E-012
  0.17040000000000000          7.7102399300853227E-012
  0.17150000000000004          7.8886443427002465E-012
  0.17260000000000003          6.4520997245423144E-012
  0.17370000000000002          4.5211449745264491E-012
  0.17480000000000001          3.4326802464979524E-012
  0.17590000000000000          3.9552325344039047E-012
  0.17700000000000005          5.8733819724043263E-012
  0.17810000000000004          8.1676599005758396E-012
  0.17920000000000003          9.6521310583907402E-012
  0.18030000000000002          9.6690467593611590E-012
  0.18140000000000001          8.4225719658204125E-012
  0.18250000000000000          6.7737645905807407E-012
  0.18360000000000004          5.6535602374154548E-012
  0.18470000000000003          5.4750089232445647E-012
  0.18580000000000002          5.9104071645738121E-012
  0.18690000000000001          6.1602662855895539E-012
  0.18800000000000000          5.5312977043480381E-012
  0.18910000000000005          3.9514067083379783E-012
  0.19020000000000004          2.0848715169568070E-012
  0.19130000000000003          9.5548329284082386E-013
  0.19240000000000002          1.2809140880327455E-012
  0.19350000000000001          2.9090919030998872E-012
  0.19460000000000005          4.7130370420930736E-012
  0.19570000000000004          5.0626016741040762E-012
  0.19680000000000003          2.6798013810390921E-012
  0.19790000000000002         -2.5479886821090842E-012
  0.19900000000000001         -9.2481755430580246E-012
  0.20010000000000000         -1.4977817355579971E-011
  0.20120000000000005         -1.7267792050245678E-011
  0.20230000000000004         -1.4847523399931103E-011
  0.20340000000000003         -8.4523745599508887E-012
  0.20450000000000002         -7.4639790803024569E-013
  0.20560000000000000          4.7222046913869630E-012
  0.20670000000000005          5.1257271614687136E-012
  0.20780000000000004         -2.2566595943180685E-013
  0.20890000000000003         -9.4030249103601650E-012
  0.21000000000000002         -1.8648915774354153E-011
  0.21110000000000001         -2.4143073627999596E-011
  0.21220000000000000         -2.3881858911787643E-011
  0.21330000000000005         -1.8678649412350384E-011
  0.21440000000000003         -1.1698400327252893E-011
  0.21550000000000002         -6.7193312673820088E-012
  0.21660000000000001         -6.0501744243296485E-012
  0.21770000000000000         -9.2821569420211180E-012
  0.21880000000000005         -1.3617522455130701E-011
  0.21990000000000004         -1.5613640684397987E-011
  0.22100000000000003         -1.3318461323526056E-011
  0.22210000000000002         -7.5010181650768219E-012
  0.22320000000000001         -1.1935231374194595E-012
  0.22430000000000000          2.2041651045950455E-012
  0.22540000000000004          1.0871558971416540E-012
  0.22650000000000003         -3.3103442284180721E-012
  0.22760000000000002         -7.7043123742232989E-012
  0.22870000000000001         -8.9285854732622036E-012
  0.22980000000000000         -6.0920847303974463E-012
  0.23090000000000005         -1.2700549919769025E-012
  0.23200000000000004          1.8303183590941978E-012
  0.23310000000000003          4.6037582916033449E-013
  0.23420000000000002         -5.0019111291261315E-012
  0.23530000000000001         -1.0838923542432459E-011
  0.23640000000000000         -1.2090086100428139E-011
  0.23750000000000004         -5.8000875991002157E-012
  0.23860000000000003          6.6197067610586608E-012
  0.23970000000000002          1.9576125275196583E-011
  0.24080000000000001          2.6192129549124131E-011
  0.24190000000000000          2.2359229957137513E-011
  0.24300000000000005          9.5159471307535279E-012
  0.24410000000000004         -5.6859372116249402E-012
  0.24520000000000003         -1.4873229252386911E-011
  0.24630000000000002         -1.2713097291926409E-011
  0.24740000000000001         -1.6613290197389677E-013
  0.24850000000000005          1.5795033955478596E-011
  0.24960000000000004          2.5998642559374419E-011
  0.25070000000000003          2.4311335109042431E-011
  0.25180000000000002          1.1268542788645772E-011
  0.25290000000000001         -6.0699050383641601E-012
  0.25400000000000000         -1.8036044375189675E-011
  0.25510000000000005         -1.7831097317479401E-011
  0.25620000000000004         -5.4209617903977597E-012
  0.25730000000000003          1.2390444048559812E-011
  0.25840000000000002          2.5741687735179314E-011
  0.25950000000000001          2.7171852953460181E-011
  0.26060000000000005          1.5658631706795660E-011
  0.26170000000000004         -2.9829013547515663E-012
  0.26280000000000003         -1.9440240584387718E-011
  0.26390000000000002         -2.5984209519932430E-011
  0.26500000000000001         -2.0418601123805912E-011
  0.26610000000000000         -6.8170510320115982E-012
  0.26720000000000005          7.1294171798482180E-012
  0.26830000000000004          1.4452719518880768E-011
  0.26940000000000003          1.2444318792121864E-011
  0.27050000000000002          3.5508581091113987E-012
  0.27160000000000001         -6.5979387655501709E-012
  0.27270000000000005         -1.2660802831626523E-011
  0.27380000000000004         -1.2497155066702967E-011
  0.27490000000000003         -7.9569607700854470E-012
  0.27600000000000002         -3.3036589657122811E-012
  0.27710000000000001         -2.3477749494450590E-012
  0.27820000000000000         -6.0114484080806980E-012
  0.27930000000000005         -1.1699617420691136E-011
  0.28040000000000004         -1.4800452977993648E-011
  0.28150000000000003         -1.1456009858771411E-011
  0.28260000000000002         -1.0544297556145775E-012
  0.28370000000000001          1.2976886998151467E-011
  0.28480000000000005          2.4615954799451649E-011
  0.28590000000000004          2.8279620757730314E-011
  0.28700000000000003          2.1889630625577693E-011
  0.28810000000000002          8.2714737802352999E-012
  0.28920000000000001         -6.0477634146280841E-012
  0.29030000000000000         -1.4219582466328300E-011
  0.29140000000000005         -1.2925629566429713E-011
  0.29250000000000004         -4.5180036436766021E-012
  0.29360000000000003          4.0097461642717265E-012
  0.29470000000000002          4.9870890282080675E-012
  0.29580000000000001         -5.0653889916852539E-012
  0.29690000000000005         -2.2527283980535285E-011
  0.29800000000000004         -3.7793538008108690E-011
  0.29910000000000003         -4.0295698611067700E-011
  0.30020000000000002         -2.4890367221684284E-011
  0.30130000000000001          4.1075906592603801E-012
  0.30240000000000000          3.4012110518702897E-011
  0.30350000000000005          4.9956881689767615E-011
  0.30460000000000004          4.3078513999701779E-011
  0.30570000000000003          1.6049326062937146E-011
  0.30680000000000002         -1.7536011735692294E-011
  0.30790000000000001         -4.0052686923296201E-011
  0.30900000000000005         -3.9439644731873738E-011
  0.31010000000000004         -1.6089447619357432E-011
  0.31120000000000003          1.7079843932442086E-011
  0.31230000000000002          4.1675880489339893E-011
  0.31340000000000001          4.4147916163619902E-011
  0.31450000000000006          2.3466654845937377E-011
  0.31560000000000005         -8.3509471061183153E-012
  0.31670000000000004         -3.3287310013504557E-011
  0.31780000000000003         -3.7892827005463859E-011
  0.31890000000000002         -2.1155917185984953E-011
  0.32000000000000001          5.0609254642662509E-012
  0.32110000000000005          2.3394701829329992E-011
  0.32220000000000004          2.1823716769590652E-011
  0.32330000000000003          1.4036814754981206E-012
  0.32440000000000002         -2.3985942024951602E-011
  0.32550000000000001         -3.6019994958757627E-011
  0.32660000000000006         -2.3523786256328991E-011
  0.32770000000000005          9.8465778778455334E-012
  0.32880000000000004          4.6867459943206215E-011
  0.32990000000000003          6.6614550376777195E-011
  0.33100000000000002          5.7171524218492439E-011
  0.33210000000000001          2.3354466291285354E-011
  0.33320000000000005         -1.5589868970487478E-011
  0.33430000000000004         -3.7262570614165274E-011
  0.33540000000000003         -2.9643391292229663E-011
  0.33650000000000002          1.4641015921950629E-012
  0.33760000000000001          3.5799649985164425E-011
  0.33870000000000006          5.0893162136093462E-011
  0.33980000000000005          3.5732887674546100E-011
  0.34090000000000004         -2.4698009137127841E-012
  0.34200000000000003         -4.2428613202989447E-011
  0.34310000000000002         -6.1144689267763942E-011
  0.34420000000000001         -4.6956544044990645E-011
  0.34530000000000005         -5.7090502322598491E-012
  0.34640000000000004          4.3039782684980851E-011
  0.34750000000000003          7.6901250173266936E-011
  0.34860000000000002          8.2056674038404088E-011
  0.34970000000000001          5.9086900980247794E-011
  0.35080000000000006          2.0958177303943314E-011
  0.35190000000000005         -1.4661245949147042E-011
  0.35300000000000004         -3.4088060100677988E-011
  0.35410000000000003         -3.3046183775596885E-011
  0.35520000000000002         -1.6939161573630266E-011
  0.35630000000000001          3.2387005972325504E-012
  0.35740000000000005          1.6877167369797630E-011
  0.35850000000000004          1.8785965762784561E-011
  0.35960000000000003          1.1163281816630147E-011
  0.36070000000000002          1.7196541302034392E-012
  0.36180000000000001         -1.1436272106863678E-012
  0.36290000000000006          6.3152862768692062E-012
  0.36400000000000005          2.0309487683922107E-011
  0.36510000000000004          3.1148522219361840E-011
  0.36620000000000003          2.8918924016198227E-011
  0.36730000000000002          1.0118282442771833E-011
  0.36840000000000006         -1.8953239210424446E-011
  0.36950000000000005         -4.4701256444945530E-011
  0.37060000000000004         -5.3764949415935374E-011
  0.37170000000000003         -4.1300150729119228E-011
  0.37280000000000002         -1.4831458947888550E-011
  0.37390000000000001          9.1445479631859216E-012
  0.37500000000000006          1.4302486108660816E-011
  0.37610000000000005         -5.7314337235669440E-012
  0.37720000000000004         -4.2696389569366790E-011
  0.37830000000000003         -7.7109352836021047E-011
  0.37940000000000002         -8.8281345410392502E-011
  0.38050000000000006         -6.5759542727166613E-011
  0.38160000000000005         -1.6092109135374300E-011
  0.38270000000000004          3.8950470493900734E-011
  0.38380000000000003          7.2325461280910828E-011
  0.38490000000000002          6.5249855041426686E-011
  0.38600000000000001          1.7559066591561529E-011
  0.38710000000000000         -5.0802147078101670E-011
  0.38819999999999999         -1.0871361673537468E-010
  0.38930000000000009         -1.2932343842943832E-010
  0.39040000000000008         -1.0406186125267143E-010
  0.39150000000000007         -4.7294535134268978E-011
  0.39260000000000006          1.1638123149794221E-011
  0.39370000000000005          4.5014654209629119E-011
  0.39480000000000004          4.2428159348079004E-011
  0.39590000000000003          1.5966457792140532E-011
  0.39700000000000002         -8.6615248961438751E-012
  0.39810000000000001         -9.7452039785249849E-012
  0.39920000000000000          1.5324892844389858E-011
  0.40029999999999999          4.7572914670922976E-011
  0.40140000000000009          5.8722506816313906E-011
  0.40250000000000008          3.0653734450894849E-011
  0.40360000000000007         -3.0631464564821457E-011
  0.40470000000000006         -9.6021969449993479E-011
  0.40580000000000005         -1.2927453895927079E-010
  0.40690000000000004         -1.0830584042402151E-010
  0.40800000000000003         -3.8680079700530798E-011
  0.40910000000000002          4.8936373849928423E-011
  0.41020000000000001          1.1562567818364021E-010
  0.41130000000000000          1.3507048627238521E-010
  0.41239999999999999          1.0619582524615367E-010
  0.41350000000000009          5.0953307945108539E-011
  0.41460000000000008         -2.4798615650121455E-013
  0.41570000000000007         -2.5999831687435195E-011
  0.41680000000000006         -2.3977684615621091E-011
  0.41790000000000005         -8.6553104334001892E-012
  0.41900000000000004          6.4722603172328806E-013
  0.42010000000000003         -6.7231843277172036E-012
  0.42120000000000002         -2.5997674634438485E-011
  0.42230000000000001         -4.0658118095677039E-011
  0.42340000000000000         -3.3767427073001866E-011
  0.42449999999999999          2.3109274564998757E-013
  0.42560000000000009          5.0449349121572412E-011
  0.42670000000000008          9.4293399742496546E-011
  0.42780000000000007          1.0933779781976292E-010
  0.42890000000000006          8.5637233620203919E-011
  0.43000000000000005          3.1654398241832929E-011
  0.43110000000000004         -2.9375751241871375E-011
  0.43220000000000003         -7.0584930142938069E-011
  0.43330000000000002         -7.4224224211873770E-011
  0.43440000000000001         -3.9642918421976595E-011
  0.43550000000000000          1.7048233053499421E-011
  0.43659999999999999          7.0848563244717504E-011
  0.43770000000000009          9.9063111497501276E-011
  0.43880000000000008          9.0620650308992846E-011
  0.43990000000000007          4.9796056751972857E-011
  0.44100000000000006         -6.5691198229684780E-012
  0.44210000000000005         -5.6567812676048299E-011
  0.44320000000000004         -8.2101125295424146E-011
  0.44430000000000003         -7.5614955532223059E-011
  0.44540000000000002         -4.2237068439445428E-011
  0.44650000000000001          3.3102569192818667E-012
  0.44760000000000000          4.3574235933479351E-011
  0.44869999999999999          6.5954545815142494E-011
  0.44980000000000009          6.7532711192067506E-011
  0.45090000000000008          5.4866111421728753E-011
  0.45200000000000007          3.8940653493528736E-011
  0.45310000000000006          2.8099068833169029E-011
  0.45420000000000005          2.3062149919922283E-011
  0.45530000000000004          1.7177875339993857E-011
  0.45640000000000003          2.0375192003157402E-012
  0.45750000000000002         -2.4848398948120250E-011
  0.45860000000000001         -5.5413128161676705E-011
  0.45970000000000000         -7.3269299498433044E-011
  0.46079999999999999         -6.2643992152551525E-011
  0.46190000000000009         -1.9276712464609642E-011
  0.46300000000000008          4.3644742824534024E-011
  0.46410000000000007          9.9353911513566419E-011
  0.46520000000000006          1.2036033583009408E-010
  0.46630000000000005          9.3498224520858515E-011
  0.46740000000000004          2.8119054809131466E-011
  0.46850000000000003         -4.8115577945907769E-011
  0.46960000000000002         -1.0386255575497105E-010
  0.47070000000000001         -1.2041114381088200E-010
  0.47180000000000000         -9.9701793167843551E-011
  0.47289999999999999         -5.9534216510558936E-011
  0.47400000000000009         -2.0059096666576338E-011
  0.47510000000000008          8.6489830862349019E-012
  0.47620000000000007          2.9508720430396672E-011
  0.47730000000000006          5.0850304397062364E-011
  0.47840000000000005          7.5290091890284141E-011