 -0.12000000000000000          0.0000000000000000     
 -0.11889999999999999         -2.5138838577731216E-015
 -0.11780000000000000         -5.9068309271580643E-015
 -0.11670000000000000         -8.1779917282376089E-015
 -0.11559999999999999         -8.5324636961650560E-015
 -0.11449999999999999         -7.9092793042791554E-015
 -0.11340000000000000         -8.0596637132768902E-015
 -0.11230000000000000         -9.9838776257895335E-015
 -0.11119999999999999         -1.3046889124267137E-014
 -0.11009999999999999         -1.5490507991738202E-014
 -0.10900000000000000         -1.5877387274171673E-014
 -0.10790000000000000         -1.4245252083658304E-014
 -0.10679999999999999         -1.2032279993208813E-014
 -0.10569999999999999         -1.0880290557952772E-014
 -0.10460000000000000         -1.1333312548996806E-014
 -0.10349999999999999         -1.2482713179533944E-014
 -0.10239999999999999         -1.2787435915452421E-014
 -0.10130000000000000         -1.1341116629461086E-014
 -0.10020000000000000         -8.5508014300822417E-015
  -9.9099999999999994E-002    -5.7349246136377505E-015
  -9.7999999999999990E-002    -4.0396263507151217E-015
  -9.6899999999999986E-002    -3.5737854848850181E-015
  -9.5799999999999996E-002    -3.4141110581769097E-015
  -9.4699999999999993E-002    -2.4003037302254155E-015
  -9.3599999999999989E-002    -4.4200190864259539E-017
  -9.2499999999999999E-002     3.1413343725195347E-015
  -9.1399999999999995E-002     6.0821543340299831E-015
  -9.0299999999999991E-002     7.9529294567059406E-015
  -8.9200000000000002E-002     8.7343523652057531E-015
  -8.8099999999999984E-002     9.1446985200923748E-015
  -8.6999999999999994E-002     1.0054981388411071E-014
  -8.5899999999999990E-002     1.1843796983068186E-014
  -8.4799999999999986E-002     1.4144180668418186E-014
  -8.3699999999999997E-002     1.6130029782677824E-014
  -8.2599999999999993E-002     1.7116359671329771E-014
  -8.1499999999999989E-002     1.7048250265440853E-014
  -8.0399999999999999E-002     1.6539997381039730E-014
  -7.9299999999999995E-002     1.6434515631666881E-014
  -7.8199999999999992E-002     1.7186538483421973E-014
  -7.7100000000000002E-002     1.8511207718974902E-014
  -7.5999999999999984E-002     1.9571365515707450E-014
  -7.4899999999999994E-002     1.9593301821256593E-014
  -7.3799999999999991E-002     1.8465033650596131E-014
  -7.2699999999999987E-002     1.6849265069994226E-014
  -7.1599999999999997E-002     1.5690034187437921E-014
  -7.0499999999999993E-002     1.5469657079197812E-014
  -6.9399999999999989E-002     1.5802374331285666E-014
  -6.8300000000000000E-002     1.5716323214444145E-014
  -6.7199999999999996E-002     1.4429593153844653E-014
  -6.6099999999999992E-002     1.2003873353977717E-014
  -6.5000000000000002E-002     9.3285478466017522E-015
  -6.3899999999999985E-002     7.4234435545507681E-015
  -6.2799999999999995E-002     6.6201002861628965E-015
  -6.1699999999999991E-002     6.3021518067070837E-015
  -6.0599999999999994E-002     5.4320521222577672E-015
  -5.9499999999999990E-002     3.4320838067448397E-015
  -5.8399999999999994E-002     6.8204615475534111E-016
  -5.7299999999999990E-002    -1.7859477330077245E-015
  -5.6199999999999986E-002    -3.1370181279567376E-015
  -5.5099999999999996E-002    -3.4092420508820177E-015
  -5.3999999999999992E-002    -3.4505881962789114E-015
  -5.2899999999999989E-002    -4.1841159569045230E-015
  -5.1799999999999985E-002    -5.8332468379666910E-015
  -5.0699999999999995E-002    -7.7549391031617710E-015
  -4.9599999999999991E-002    -8.9953762640133966E-015
  -4.8499999999999988E-002    -9.0719801419686382E-015
  -4.7399999999999998E-002    -8.3203716339636889E-015
  -4.6299999999999994E-002    -7.5461886484986383E-015
  -4.5199999999999990E-002    -7.3192601627688826E-015
  -4.4099999999999986E-002    -7.5224245639203749E-015
  -4.2999999999999997E-002    -7.5071014185145850E-015
  -4.1899999999999993E-002    -6.6721843120684449E-015
  -4.0799999999999989E-002    -4.9481094994418414E-015
  -3.9699999999999985E-002    -2.7999943009714518E-015
  -3.8599999999999995E-002    -8.0534096259889152E-016
  -3.7499999999999992E-002     7.9402301750230129E-016
  -3.6399999999999988E-002     2.1999027641275849E-015
  -3.5299999999999984E-002     3.7950692230048695E-015
  -3.4199999999999994E-002     5.7895483306692592E-015
  -3.3099999999999991E-002     8.0792683667273612E-015
  -3.1999999999999987E-002     1.0383934982245451E-014
  -3.0899999999999997E-002     1.2484500110109825E-014
  -2.9799999999999993E-002     1.4341728598424597E-014
  -2.8699999999999989E-002     1.6038309408841044E-014
  -2.7599999999999986E-002     1.7657539706568159E-014
  -2.6499999999999996E-002     1.9229034132779383E-014
  -2.5399999999999992E-002     2.0754675722710284E-014
  -2.4299999999999988E-002     2.2229890637575122E-014
  -2.3199999999999985E-002     2.3605547760987370E-014
  -2.2099999999999995E-002     2.4743929022328875E-014
  -2.0999999999999991E-002     2.5464536952044126E-014
  -1.9899999999999987E-002     2.5684441705894961E-014
  -1.8799999999999983E-002     2.5526754271614087E-014
  -1.7699999999999994E-002     2.5258085785535937E-014
  -1.6599999999999990E-002     2.5066498180031226E-014
  -1.5499999999999986E-002     2.4868957053029206E-014
  -1.4399999999999996E-002     2.4349983798377677E-014
  -1.3299999999999992E-002     2.3236276959645491E-014
  -1.2199999999999989E-002     2.1576502248348546E-014
  -1.1099999999999985E-002     1.9756273202760547E-014
  -9.9999999999999950E-003     1.8200827504357264E-014
  -8.8999999999999913E-003     1.7012475085646396E-014
  -7.7999999999999875E-003     1.5876045713320487E-014
  -6.6999999999999837E-003     1.4341095153857977E-014
  -5.5999999999999939E-003     1.2244700717416351E-014
  -4.4999999999999901E-003     9.8931017796476516E-015
  -3.3999999999999864E-003     7.8237493168737430E-015
  -2.2999999999999826E-003     6.3491306826348133E-015
  -1.1999999999999927E-003     5.2923947691215031E-015
  -9.9999999999988987E-005     4.1613559079379746E-015
   1.0000000000000148E-003     2.6118311900268547E-015
   2.1000000000000185E-003     7.8359730175162545E-016
   3.2000000000000084E-003    -7.9751412439971093E-016
   4.3000000000000121E-003    -1.6656223891173398E-015
   5.4000000000000159E-003    -1.8065439763070167E-015
   6.5000000000000058E-003    -1.6428779573238302E-015
   7.6000000000000234E-003    -1.6308797248194874E-015
   8.7000000000000133E-003    -1.8387548543578247E-015
   9.8000000000000032E-003    -1.8866388585695061E-015
   1.0900000000000021E-002    -1.2932264936624328E-015
   1.2000000000000011E-002     9.5314824865405756E-017
   1.3100000000000001E-002     1.9838849264811227E-015
   1.4200000000000018E-002     3.9131017497047673E-015
   1.5300000000000008E-002     5.6767817118125527E-015
   1.6400000000000026E-002     7.4888284006325822E-015
   1.7500000000000016E-002     9.7600676559663361E-015
   1.8600000000000005E-002     1.2707502842761941E-014
   1.9700000000000023E-002     1.6161549247630181E-014
   2.0800000000000013E-002     1.9737875510590212E-014
   2.1900000000000003E-002     2.3196735239622002E-014
   2.3000000000000020E-002     2.6647775925003298E-014
   2.4100000000000010E-002     3.0417439459428235E-014
   2.5200000000000000E-002     3.4717746796000820E-014
   2.6300000000000018E-002     3.9433503272404244E-014
   2.7400000000000008E-002     4.4219966312568558E-014
   2.8500000000000025E-002     4.8804758263687820E-014
   2.9600000000000015E-002     5.3202438961523189E-014
   3.0700000000000005E-002     5.7646126151448157E-014
   3.1800000000000023E-002     6.2315309131515544E-014
   3.2900000000000013E-002     6.7126636170858285E-014
   3.4000000000000002E-002     7.1782901037873717E-014
   3.5100000000000020E-002     7.6023362871061437E-014
   3.6200000000000010E-002     7.9831574841673205E-014
   3.7300000000000028E-002     8.3407576277191815E-014
   3.8400000000000017E-002     8.6941295273439454E-014
   3.9500000000000007E-002     9.0407514234004931E-014
   4.0600000000000025E-002     9.3570797911758783E-014
   4.1700000000000015E-002     9.6182216620740351E-014
   4.2800000000000005E-002     9.8173139131434156E-014
   4.3900000000000022E-002     9.9668505302239615E-014
   4.5000000000000012E-002     1.0082378666092649E-013
   4.6100000000000002E-002     1.0165365812799345E-013
   4.7200000000000020E-002     1.0201242019359062E-013
   4.8300000000000010E-002     1.0172738682223444E-013
   4.9400000000000027E-002     1.0074132250568166E-013
   5.0500000000000017E-002     9.9127085006257223E-014
   5.1600000000000007E-002     9.6978003921265838E-014
   5.2700000000000025E-002     9.4301121584986512E-014
   5.3800000000000014E-002     9.1024745440150884E-014
   5.4900000000000004E-002     8.7101396423221645E-014
   5.6000000000000022E-002     8.2584427237041574E-014
   5.7100000000000012E-002     7.7588652127536787E-014
   5.8200000000000002E-002     7.2176162116049957E-014
   5.9300000000000019E-002     6.6296297930188526E-014
   6.0400000000000009E-002     5.9856293854764896E-014
   6.1500000000000027E-002     5.2857062960788590E-014
   6.2600000000000017E-002     4.5447185727878556E-014
   6.3700000000000007E-002     3.7820824523547028E-014
   6.4800000000000024E-002     3.0047691530317620E-014
   6.5900000000000014E-002     2.2009576198257188E-014
   6.7000000000000004E-002     1.3529257560672284E-014
   6.8100000000000022E-002     4.5883689368429923E-015
   6.9200000000000012E-002    -4.5737656941421029E-015
   7.0300000000000029E-002    -1.3593410911223662E-014
   7.1400000000000019E-002    -2.2243637035638360E-014
   7.2500000000000009E-002    -3.0585124320818320E-014
   7.3600000000000027E-002    -3.8855538857711599E-014
   7.4700000000000016E-002    -4.7186225001299541E-014
   7.5800000000000006E-002    -5.5405338863917645E-014
   7.6900000000000024E-002    -6.3119711214642371E-014
   7.8000000000000014E-002    -7.0014669392452793E-014
   7.9100000000000004E-002    -7.6102140764044924E-014
   8.0200000000000021E-002    -8.1681919226298951E-014
   8.1300000000000011E-002    -8.7036314829243422E-014
   8.2400000000000029E-002    -9.2124842911364909E-014
   8.3500000000000019E-002    -9.6555340042944414E-014
   8.4600000000000009E-002    -9.9865653059050102E-014
   8.5700000000000026E-002    -1.0187296243323693E-013
   8.6800000000000016E-002    -1.0278632733636844E-013
   8.7900000000000006E-002    -1.0298823396627483E-013
   8.9000000000000024E-002    -1.0268356929152049E-013
   9.0100000000000013E-002    -1.0172718318763123E-013
   9.1200000000000003E-002    -9.9776751286369992E-014
   9.2300000000000021E-002    -9.6627641120717027E-014
   9.3400000000000011E-002    -9.2430787298847743E-014
   9.4500000000000028E-002    -8.7604985320264722E-014
   9.5600000000000018E-002    -8.2524576085932393E-014
   9.6700000000000008E-002    -7.7250986629706764E-014
   9.7800000000000026E-002    -7.1524848665987810E-014
   9.8900000000000016E-002    -6.5005285427453460E-014
  0.10000000000000001         -5.7543426461218296E-014
  0.10110000000000002         -4.9273751738824778E-014
  0.10220000000000001         -4.0481681422893351E-014
  0.10330000000000003         -3.1391467539438688E-014
  0.10440000000000002         -2.2058901750609553E-014
  0.10550000000000001         -1.2436455075885277E-014
  0.10660000000000003         -2.5263580000864117E-015
  0.10770000000000002          7.5185330937897822E-015
  0.10880000000000001          1.7418732324206605E-014
  0.10990000000000003          2.6880565602333609E-014
  0.11100000000000002          3.5707731318862638E-014
  0.11210000000000001          4.3850312817388253E-014
  0.11320000000000002          5.1387582216897460E-014
  0.11430000000000001          5.8471691809841028E-014
  0.11540000000000003          6.5255077855951027E-014
  0.11650000000000002          7.1818592577434651E-014
  0.11760000000000001          7.8128175661624720E-014
  0.11870000000000003          8.4054184090579278E-014
  0.11980000000000002          8.9455229036392753E-014
  0.12090000000000001          9.4270129040167870E-014
  0.12200000000000003          9.8534748613974432E-014
  0.12310000000000001          1.0229307444039190E-013
  0.12420000000000003          1.0547294544857770E-013
  0.12530000000000002          1.0785272122659006E-013
  0.12640000000000001          1.0918464046373387E-013
  0.12750000000000003          1.0939482156834400E-013
  0.12860000000000002          1.0868368121637301E-013
  0.12970000000000001          1.0740575997672333E-013
  0.13080000000000003          1.0578989466735483E-013
  0.13190000000000002          1.0371624352283878E-013
  0.13300000000000001          1.0074236698815317E-013
  0.13410000000000000          9.6368128701899750E-014
  0.13520000000000004          9.0324114926341455E-014
  0.13630000000000003          8.2639924179477231E-014
  0.13740000000000002          7.3444901290471569E-014
  0.13850000000000001          6.2700180463871158E-014
  0.13960000000000000          5.0142324559550481E-014
  0.14070000000000005          3.5539086185891645E-014
  0.14180000000000004          1.9079631320472742E-014
  0.14290000000000003          1.5831152964524105E-015
  0.14400000000000002         -1.5663216820423424E-014
  0.14510000000000001         -3.1321203834353375E-014
  0.14620000000000000         -4.4359298294392508E-014
  0.14730000000000004         -5.4116203380245222E-014
  0.14840000000000003         -6.0088880539694719E-014
  0.14950000000000002         -6.1712463033209556E-014
  0.15060000000000001         -5.8371603471364614E-014
  0.15170000000000000         -4.9661987917941447E-014
  0.15280000000000005         -3.5645760354394195E-014
  0.15390000000000004         -1.6878326126842442E-014
  0.15500000000000003          5.8832436565822466E-015
  0.15610000000000002          3.2082343773794301E-014
  0.15720000000000001          6.1590297695899652E-014
  0.15830000000000000          9.4677345811922123E-014
  0.15940000000000004          1.3184058169188555E-013
  0.16050000000000003          1.7369515416104264E-013
  0.16160000000000002          2.2102800169996491E-013
  0.16270000000000001          2.7491880569625905E-013
  0.16380000000000000          3.3669879474707705E-013
  0.16490000000000005          4.0771486214205947E-013
  0.16600000000000004          4.8900632575548747E-013
  0.16710000000000003          5.8108968371653780E-013
  0.16820000000000002          6.8401763730202857E-013
  0.16930000000000001          7.9764783606206838E-013
  0.17040000000000000          9.2191389334957358E-013
  0.17150000000000004          1.0568783909829848E-012
  0.17260000000000003          1.2026849131432879E-012
  0.17370000000000002          1.3594854456575069E-012
  0.17480000000000001          1.5273976821675188E-012
  0.17590000000000000          1.7066172580766138E-012
  0.17700000000000005          1.8975597190502604E-012
  0.17810000000000004          2.1008303213307215E-012
  0.17920000000000003          2.3170466572375099E-012
  0.18030000000000002          2.5466445714853229E-012
  0.18140000000000001          2.7897607520436148E-012
  0.18250000000000000          3.0462304666805836E-012
  0.18360000000000004          3.3156361076861760E-012
  0.18470000000000003          3.5973926484453680E-012
  0.18580000000000002          3.8908158127993604E-012
  0.18690000000000001          4.1952045046680354E-012
  0.18800000000000000          4.5100371397462986E-012
  0.18910000000000005          4.8351737852604077E-012
  0.19020000000000004          5.1709009238737442E-012
  0.19130000000000003          5.5178305542784750E-012
  0.19240000000000002          5.8765794504036048E-012
  0.19350000000000001          6.2475855423184728E-012
  0.19460000000000005          6.6311553546472618E-012
  0.19570000000000004          7.0274626226723294E-012
  0.19680000000000003          7.4366352116161250E-012
  0.19790000000000002          7.8587737396424586E-012
  0.19900000000000001          8.2940320046131741E-012
  0.20010000000000000          8.7423703916121110E-012
  0.20120000000000005          9.2035896092219011E-012
  0.20230000000000004          9.6772868310643366E-012
  0.20340000000000003          1.0163031491637460E-011
  0.20450000000000002          1.0660556527725377E-011
  0.20560000000000000          1.1169688971398741E-011
  0.20670000000000005          1.1690103530329390E-011
  0.20780000000000004          1.2221011315731697E-011
  0.20890000000000003          1.2761147170635721E-011
  0.21000000000000002          1.3308903681589881E-011
  0.21110000000000001          1.3862629708163540E-011
  0.21220000000000000          1.4421097380250874E-011
  0.21330000000000005          1.4983920906576572E-011
  0.21440000000000003          1.5551821513447774E-011
  0.21550000000000002          1.6126438007489415E-011
  0.21660000000000001          1.6710132132503844E-011
  0.21770000000000000          1.7305305645866345E-011
  0.21880000000000005          1.7913577892395725E-011
  0.21990000000000004          1.8535339389735538E-011
  0.22100000000000003          1.9169423862160391E-011
  0.22210000000000002          1.9813243706280432E-011
  0.22320000000000001          2.0463232118196217E-011
  0.22430000000000000          2.1115396035805171E-011
  0.22540000000000004          2.1765981731440708E-011
  0.22650000000000003          2.2411871806094093E-011
  0.22760000000000002          2.3050830987423535E-011
  0.22870000000000001          2.3681767530617986E-011
  0.22980000000000000          2.4304870180893391E-011
  0.23090000000000005          2.4921803291568632E-011
  0.23200000000000004          2.5535495641296253E-011
  0.23310000000000003          2.6149548761505150E-011
  0.23420000000000002          2.6767466705554056E-011
  0.23530000000000001          2.7391893213931866E-011
  0.23640000000000000          2.8023933363490651E-011
  0.23750000000000004          2.8662950975519698E-011
  0.23860000000000003          2.9306926510569591E-011
  0.23970000000000002          2.9953085793207841E-011
  0.24080000000000001          3.0598484543316467E-011
  0.24190000000000000          3.1240688330698986E-011
  0.24300000000000005          3.1878143670069912E-011
  0.24410000000000004          3.2510488580408444E-011
  0.24520000000000003          3.3138429488987883E-011
  0.24630000000000002          3.3763653338565597E-011
  0.24740000000000001          3.4388531136457913E-011
  0.24850000000000005          3.5015887642224142E-011
  0.24960000000000004          3.5648468830182098E-011
  0.25070000000000003          3.6288418697222263E-011
  0.25180000000000002          3.6936719772636527E-011
  0.25290000000000001          3.7592622238956625E-011
  0.25400000000000000          3.8253692399519688E-011
  0.25510000000000005          3.8916191143448012E-011
  0.25620000000000004          3.9576219944256618E-011
  0.25730000000000003          4.0230862730465298E-011
  0.25840000000000002          4.0878936106238721E-011
  0.25950000000000001          4.1520859777932134E-011
  0.26060000000000005          4.2158050870700741E-011
  0.26170000000000004          4.2792356114377409E-011
  0.26280000000000003          4.3425605051261664E-011
  0.26390000000000002          4.4059570781830692E-011
  0.26500000000000001          4.4695747511993268E-011
  0.26610000000000000          4.5335220304775610E-011
  0.26720000000000005          4.5978990496572307E-011
  0.26830000000000004          4.6628002866515043E-011
  0.26940000000000003          4.7283268917807008E-011
  0.27050000000000002          4.7945515352976206E-011
  0.27160000000000001          4.8614554972786068E-011
  0.27270000000000005          4.9288678932665390E-011
  0.27380000000000004          4.9964457249395344E-011
  0.27490000000000003          5.0636943915172530E-011
  0.27600000000000002          5.1300533089746948E-011
  0.27710000000000001          5.1950094640096193E-011
  0.27820000000000000          5.2581901694917605E-011
  0.27930000000000005          5.3194140142295142E-011
  0.28040000000000004          5.3787288978623974E-011
  0.28150000000000003          5.4364244852705908E-011
  0.28260000000000002          5.4930654650913142E-011
  0.28370000000000001          5.5494650561394385E-011
  0.28480000000000005          5.6066245826858772E-011
  0.28590000000000004          5.6655617039386267E-011
  0.28700000000000003          5.7271293041167457E-011
  0.28810000000000002          5.7918429122436130E-011
  0.28920000000000001          5.8598186215465592E-011
  0.29030000000000000          5.9307946465226167E-011
  0.29140000000000005          6.0042377359579628E-011
  0.29250000000000004          6.0795227911404766E-011
  0.29360000000000003          6.1561093366729228E-011
  0.29470000000000002          6.2336642065898534E-011
  0.29580000000000001          6.3120754795332252E-011
  0.29690000000000005          6.3914249890527893E-011
  0.29800000000000004          6.4719529506963892E-011
  0.29910000000000003          6.5539754865946950E-011
  0.30020000000000002          6.6378378281211825E-011
  0.30130000000000001          6.7237907158554450E-011
  0.30240000000000000          6.8118198023563713E-011
  0.30350000000000005          6.9014709811377288E-011
  0.30460000000000004          6.9917528738846845E-011
  0.30570000000000003          7.0811921490059124E-011
  0.30680000000000002          7.1679872900067253E-011
  0.30790000000000001          7.2502671003898727E-011
  0.30900000000000005          7.3262954947821932E-011
  0.31010000000000004          7.3945886419688156E-011
  0.31120000000000003          7.4539341497041220E-011
  0.31230000000000002          7.5033155300354855E-011
  0.31340000000000001          7.5417879027053026E-011
  0.31450000000000006          7.5683639801670806E-011
  0.31560000000000005          7.5819107007873077E-011
  0.31670000000000004          7.5810997403935656E-011
  0.31780000000000003          7.5643866314677295E-011
  0.31890000000000002          7.5300578380960059E-011
  0.32000000000000001          7.4763974564033911E-011
  0.32110000000000005          7.4018776426733752E-011
  0.32220000000000004          7.3053364487560841E-011
  0.32330000000000003          7.1860557742110027E-011
  0.32440000000000002          7.0437496387932773E-011
  0.32550000000000001          6.8784577510984031E-011
  0.32660000000000006          6.6903872141893899E-011
  0.32770000000000005          6.4797392715021001E-011
  0.32880000000000004          6.2465204116350878E-011
  0.32990000000000003          5.9903722953098231E-011
  0.33100000000000002          5.7104906043887085E-011
  0.33210000000000001          5.4056626936882549E-011
  0.33320000000000005          5.0744694708765365E-011
  0.33430000000000004          4.7156544264684778E-011
  0.33540000000000003          4.3285017771913651E-011
  0.33650000000000002          3.9130617239214823E-011
  0.33760000000000001          3.4702087268650669E-011
  0.33870000000000006          3.0014714053056549E-011
  0.33980000000000005          2.5087193346626035E-011
  0.34090000000000004          1.9938408791821830E-011
  0.34200000000000003          1.4584965361472570E-011
  0.34310000000000002          9.0396164312957259E-012
  0.34420000000000001          3.3102810864548954E-012
  0.34530000000000005         -2.6007486277419795E-012
  0.34640000000000004         -8.6974414832841753E-012
  0.34750000000000003         -1.4989647654752741E-011
  0.34860000000000002         -2.1490944389584052E-011
  0.34970000000000001         -2.8213931479538993E-011
  0.35080000000000006         -3.5164484009600660E-011
  0.35190000000000005         -4.2336917211684356E-011
  0.35300000000000004         -4.9711960567344315E-011
  0.35410000000000003         -5.7258037250408033E-011
  0.35520000000000002         -6.4935308040214461E-011
  0.35630000000000001         -7.2701198047629782E-011
  0.35740000000000005         -8.0515411462291564E-011
  0.35850000000000004         -8.8343245485199378E-011
  0.35960000000000003         -9.6157274365144687E-011
  0.36070000000000002         -1.0393807092635418E-010
  0.36180000000000001         -1.1167446240801133E-010
  0.36290000000000006         -1.1936296515939415E-010
  0.36400000000000005         -1.2700672505495899E-010
  0.36510000000000004         -1.3461247620246832E-010
  0.36620000000000003         -1.4218752490781947E-010
  0.36730000000000002         -1.4973658465850896E-010
  0.36840000000000006         -1.5725996178602918E-010
  0.36950000000000005         -1.6475286338092531E-010
  0.37060000000000004         -1.7220577514995517E-010
  0.37170000000000003         -1.7960607510056498E-010
  0.37280000000000002         -1.8693987506732564E-010
  0.37390000000000001         -1.9419446635078536E-010
  0.37500000000000006         -2.0136008387708400E-010
  0.37610000000000005         -2.0843228114242614E-010
  0.37720000000000004         -2.1541208357154513E-010
  0.37830000000000003         -2.2230445292091787E-010
  0.37940000000000002         -2.2911508079180733E-010
  0.38050000000000006         -2.3584788729927745E-010
  0.38160000000000005         -2.4250338571728633E-010
  0.38270000000000004         -2.4907998524913415E-010
  0.38380000000000003         -2.5557486058080452E-010
  0.38490000000000002         -2.6198324749915514E-010
  0.38600000000000001         -2.6829632879759892E-010
  0.38710000000000000         -2.7449763432358468E-010
  0.38819999999999999         -2.8056236829163068E-010
  0.38930000000000009         -2.8646079416664938E-010
  0.39040000000000008         -2.9216445315718309E-010
  0.39150000000000007         -2.9765271201891283E-010
  0.39260000000000006         -3.0291479732757525E-010
  0.39370000000000005         -3.0794705773025072E-010
  0.39480000000000004         -3.1274821697725096E-010
  0.39590000000000003         -3.1731667330210842E-010
  0.39700000000000002         -3.2165142799100058E-010
  0.39810000000000001         -3.2575559983696804E-010
  0.39920000000000000         -3.2963973313435097E-010
  0.40029999999999999         -3.3332150746187896E-010
  0.40140000000000009         -3.3682193458628088E-010
  0.40250000000000008         -3.4016104317145769E-010
  0.40360000000000007         -3.4335471499564316E-010
  0.40470000000000006         -3.4641436483932115E-010
  0.40580000000000005         -3.4934846771323097E-010
  0.40690000000000004         -3.5216403819918945E-010
  0.40800000000000003         -3.5486693019207523E-010
  0.40910000000000002         -3.5746312978626528E-010
  0.41020000000000001         -3.5996146215592592E-010
  0.41130000000000000         -3.6237714421119627E-010
  0.41239999999999999         -3.6473446321492421E-010
  0.41350000000000009         -3.6706558170073324E-010
  0.41460000000000008         -3.6940590158835454E-010
  0.41570000000000007         -3.7178904062012669E-010
  0.41680000000000006         -3.7424452383626636E-010
  0.41790000000000005         -3.7679988512364488E-010
  0.41900000000000004         -3.7948507902247626E-010
  0.42010000000000003         -3.8233371230311060E-010
  0.42120000000000002         -3.8537868207620362E-010
  0.42230000000000001         -3.8864471466733316E-010
  0.42340000000000000         -3.9214272838663262E-010
  0.42449999999999999         -3.9587079334752596E-010
  0.42560000000000009         -3.9982128783623705E-010
  0.42670000000000008         -4.0398911060624701E-010
  0.42780000000000007         -4.0837449971392537E-010
  0.42890000000000006         -4.1297924595946086E-010
  0.43000000000000005         -4.1779989358425649E-010
  0.43110000000000004         -4.2282435114880796E-010
  0.43220000000000003         -4.2803516723217343E-010
  0.43330000000000002         -4.3341820666322664E-010
  0.43440000000000001         -4.3897004377850986E-010
  0.43550000000000000         -4.4469860863463540E-010
  0.43659999999999999         -4.5061684557244522E-010
  0.43770000000000009         -4.5673440913114741E-010
  0.43880000000000008         -4.6305265234662670E-010
  0.43990000000000007         -4.6956615338713222E-010
  0.44100000000000006         -4.7626738359471215E-010
  0.44210000000000005         -4.8314985737623669E-010
  0.44320000000000004         -4.9020785033670691E-010
  0.44430000000000003         -4.9743291224868630E-010
  0.44540000000000002         -5.0481233990912130E-010
  0.44650000000000001         -5.1233086631967098E-010
  0.44760000000000000         -5.1997445840249207E-010
  0.44869999999999999         -5.2773303014652528E-010
  0.44980000000000009         -5.3559903968416678E-010
  0.45090000000000008         -5.4356362175641208E-010
  0.45200000000000007         -5.5161542820507671E-010
  0.45310000000000006         -5.5974431887520465E-010
  0.45420000000000005         -5.6794914588871582E-010
  0.45530000000000004         -5.7624296687211253E-010
  0.45640000000000003         -5.8465028804159933E-010
  0.45750000000000002         -5.9319640301929751E-010
  0.45860000000000001         -6.0189524283651632E-010
  0.45970000000000000         -6.1074339152226721E-010
  0.46079999999999999         -6.1972380611550248E-010
  0.46190000000000009         -6.2881502549830836E-010
  0.46300000000000008         -6.3799725113717939E-010
  0.46410000000000007         -6.4725074657649998E-010
  0.46520000000000006         -6.5654774654231905E-010
  0.46630000000000005         -6.6584720017329937E-010
  0.46740000000000004         -6.7509888545765109E-010
  0.46850000000000003         -6.8425784495310009E-010
  0.46960000000000002         -6.9330088389247908E-010
  0.47070000000000001         -7.0223559124868367E-010
  0.47180000000000000         -7.1109681336836436E-010
  0.47289999999999999         -7.1993438226410913E-010
  0.47400000000000009         -7.2880130594513639E-010
  0.47510000000000008         -7.3774797985125789E-010
  0.47620000000000007         -7.4682239506932955E-010
  0.47730000000000006         -7.5606967898751354E-010
  0.47840000000000005         -7.6552570995568882E-010