 -0.12000000000000000          0.0000000000000000     
 -0.11889999999999999         -3.0708528435481375E-014
 -0.11780000000000000         -7.7903937337823201E-014
 -0.11670000000000000         -1.2062802624388290E-013
 -0.11559999999999999         -1.4378283144331953E-013
 -0.11449999999999999         -1.4673032018503185E-013
 -0.11340000000000000         -1.4270269828140650E-013
 -0.11230000000000000         -1.4971021579778861E-013
 -0.11119999999999999         -1.7890000136899176E-013
 -0.11009999999999999         -2.2765356889753131E-013
 -0.10900000000000000         -2.8143298837758612E-013
 -0.10790000000000000         -3.2278321670454502E-013
 -0.10679999999999999         -3.4161203749100902E-013
 -0.10569999999999999         -3.4048912221866910E-013
 -0.10460000000000000         -3.3218448956813512E-013
 -0.10349999999999999         -3.3154828491659237E-013
 -0.10239999999999999         -3.4699776095126370E-013
 -0.10130000000000000         -3.7656811036829281E-013
 -0.10020000000000000         -4.1026623937290677E-013
  -9.9099999999999994E-002    -4.3661970267493291E-013
  -9.7999999999999990E-002    -4.4920432326236295E-013
  -9.6899999999999986E-002    -4.4955478850098969E-013
  -9.5799999999999996E-002    -4.4541677509655965E-013
  -9.4699999999999993E-002    -4.4599659739037444E-013
  -9.3599999999999989E-002    -4.5715390555014054E-013
  -9.2499999999999999E-002    -4.7895513453437750E-013
  -9.1399999999999995E-002    -5.0635643199395620E-013
  -9.0299999999999991E-002    -5.3214846979516273E-013
  -8.9200000000000002E-002    -5.5046924285525507E-013
  -8.8099999999999984E-002    -5.5929631777822802E-013
  -8.6999999999999994E-002    -5.6101650833024996E-013
  -8.5899999999999990E-002    -5.6100677311199540E-013
  -8.4799999999999986E-002    -5.6489423519841342E-013
  -8.3699999999999997E-002    -5.7566738892522191E-013
  -8.2599999999999993E-002    -5.9195845948143352E-013
  -8.1499999999999989E-002    -6.0843206988247049E-013
  -8.0399999999999999E-002    -6.1828476485929651E-013
  -7.9299999999999995E-002    -6.1672239349038291E-013
  -7.8199999999999992E-002    -6.0357375077984842E-013
  -7.7100000000000002E-002    -5.8346820167016016E-013
  -7.5999999999999984E-002    -5.6328526194110107E-013
  -7.4899999999999994E-002    -5.4820322419948472E-013
  -7.3799999999999991E-002    -5.3862489718550058E-013
  -7.2699999999999987E-002    -5.2985376758358866E-013
  -7.1599999999999997E-002    -5.1478316479075489E-013
  -7.0499999999999993E-002    -4.8802054654706407E-013
  -6.9399999999999989E-002    -4.4897386178300406E-013
  -6.8300000000000000E-002    -4.0206928830040187E-013
  -6.7199999999999996E-002    -3.5404958024803588E-013
  -6.6099999999999992E-002    -3.1007048021142818E-013
  -6.5000000000000002E-002    -2.7095801543735673E-013
  -6.3899999999999985E-002    -2.3315801802436470E-013
  -6.2799999999999995E-002    -1.9120363680326900E-013
  -6.1699999999999991E-002    -1.4107022877895009E-013
  -6.0599999999999994E-002    -8.2438858999242602E-014
  -5.9499999999999990E-002    -1.8737581100017867E-014
  -5.8399999999999994E-002     4.4790785650117231E-014
  -5.7299999999999990E-002     1.0372133464284731E-013
  -5.6199999999999986E-002     1.5635687371505788E-013
  -5.5099999999999996E-002     2.0411338960018725E-013
  -5.3999999999999992E-002     2.5044968946441691E-013
  -5.2899999999999989E-002     2.9901821524384872E-013
  -5.1799999999999985E-002     3.5187232373477825E-013
  -5.0699999999999995E-002     4.0839832529330434E-013
  -4.9599999999999991E-002     4.6535090108244908E-013
  -4.8499999999999988E-002     5.1803832035684885E-013
  -4.7399999999999998E-002     5.6230065691029451E-013
  -4.6299999999999994E-002     5.9649497019116073E-013
  -4.5199999999999990E-002     6.2247550340376413E-013
  -4.4099999999999986E-002     6.4482803698358390E-013
  -4.2999999999999997E-002     6.6845849766083198E-013
  -4.1899999999999993E-002     6.9566912511579085E-013
  -4.0799999999999989E-002     7.2441828228914562E-013
  -3.9699999999999985E-002     7.4901651223340023E-013
  -3.8599999999999995E-002     7.6314900353181934E-013
  -3.7499999999999992E-002     7.6359709744648349E-013
  -3.6399999999999988E-002     7.5238595991894131E-013
  -3.5299999999999984E-002     7.3586933056779035E-013
  -3.4199999999999994E-002     7.2111216229158520E-013
  -3.3099999999999991E-002     7.1170125097069463E-013
  -3.1999999999999987E-002     7.0560426651524776E-013
  -3.0899999999999997E-002     6.9649895325389297E-013
  -2.9799999999999993E-002     6.7781582694286656E-013
  -2.8699999999999989E-002     6.4698416533806306E-013
  -2.7599999999999986E-002     6.0720948054231498E-013
  -2.6499999999999996E-002     5.6567137719630088E-013
  -2.5399999999999992E-002     5.2930527766636944E-013
  -2.4299999999999988E-002     5.0083323460076926E-013
  -2.3199999999999985E-002     4.7748580006338889E-013
  -2.2099999999999995E-002     4.5309381782945948E-013
  -2.0999999999999991E-002     4.2210942506265174E-013
  -1.9899999999999987E-002     3.8300964446614635E-013
  -1.8799999999999983E-002     3.3907680924777426E-013
  -1.7699999999999994E-002     2.9629074854259679E-013
  -1.6599999999999990E-002     2.5982645452710985E-013
  -1.5499999999999986E-002     2.3133660051417394E-013
  -1.4399999999999996E-002     2.0850266670471058E-013
  -1.3299999999999992E-002     1.8684368844937983E-013
  -1.2199999999999989E-002     1.6248081833583543E-013
  -1.1099999999999985E-002     1.3420414554242584E-013
  -9.9999999999999950E-003     1.0383143736852114E-013
  -8.8999999999999913E-003     7.4938340602242343E-014
  -7.7999999999999875E-003     5.0876780931660802E-014
  -6.6999999999999837E-003     3.3182876795233093E-014
  -5.5999999999999939E-003     2.1070723453857902E-014
  -4.4999999999999901E-003     1.2072812387730349E-014
  -3.3999999999999864E-003     3.3807148393546546E-015
  -2.2999999999999826E-003    -6.7741225964273042E-015
  -1.1999999999999927E-003    -1.8299542327396084E-014
  -9.9999999999988987E-005    -2.9331182267896206E-014
   1.0000000000000148E-003    -3.7208700966631405E-014
   2.1000000000000185E-003    -3.9911766135111010E-014
   3.2000000000000084E-003    -3.7242378736640461E-014
   4.3000000000000121E-003    -3.1072905068299275E-014
   5.4000000000000159E-003    -2.4417955478015990E-014
   6.5000000000000058E-003    -1.9768285427724393E-014
   7.6000000000000234E-003    -1.7647823803501438E-014
   8.7000000000000133E-003    -1.6326577824082897E-014
   9.8000000000000032E-003    -1.2961692117961874E-014
   1.0900000000000021E-002    -5.5122446880564137E-015
   1.2000000000000011E-002     5.8009664004160491E-015
   1.3100000000000001E-002     1.8494773320590498E-014
   1.4200000000000018E-002     2.9345705413476224E-014
   1.5300000000000008E-002     3.6452601247998624E-014
   1.6400000000000026E-002     4.0444318939179986E-014
   1.7500000000000016E-002     4.3987663708527320E-014
   1.8600000000000005E-002     4.9917041991081940E-014
   1.9700000000000023E-002     5.9277957718301686E-014
   2.0800000000000013E-002     7.0649017510272557E-014
   2.1900000000000003E-002     8.1207754631562990E-014
   2.3000000000000020E-002     8.8766413677636256E-014
   2.4100000000000010E-002     9.3315662981115457E-014
   2.5200000000000000E-002     9.6980827647824998E-014
   2.6300000000000018E-002     1.0245253003834487E-013
   2.7400000000000008E-002     1.1105798626889978E-013
   2.8500000000000025E-002     1.2188163875323062E-013
   2.9600000000000015E-002     1.3255125279042520E-013
   3.0700000000000005E-002     1.4106925339903064E-013
   3.1800000000000023E-002     1.4730700420109654E-013
   3.2900000000000013E-002     1.5305361575673271E-013
   3.4000000000000002E-002     1.6060736348574196E-013
   3.5100000000000020E-002     1.7099086755842478E-013
   3.6200000000000010E-002     1.8314149388017716E-013
   3.7300000000000028E-002     1.9468102119637509E-013
   3.8400000000000017E-002     2.0367091508910228E-013
   3.9500000000000007E-002     2.1001843104107457E-013
   4.0600000000000025E-002     2.1547022867953781E-013
   4.1700000000000015E-002     2.2220501084410828E-013
   4.2800000000000005E-002     2.3109909263981626E-013
   4.3900000000000022E-002     2.4098647710682816E-013
   4.5000000000000012E-002     2.4948141951232234E-013
   4.6100000000000002E-002     2.5474698486749036E-013
   4.7200000000000020E-002     2.5687510029337746E-013
   4.8300000000000010E-002     2.5783086851514969E-013
   4.9400000000000027E-002     2.5999265682951338E-013
   5.0500000000000017E-002     2.6437706994389895E-013
   5.1600000000000007E-002     2.6987875048508715E-013
   5.2700000000000025E-002     2.7410021558542360E-013
   5.3800000000000014E-002     2.7516110222882290E-013
   5.4900000000000004E-002     2.7314395234732183E-013
   5.6000000000000022E-002     2.7010094917098415E-013
   5.7100000000000012E-002     2.6860769571418003E-013
   5.8200000000000002E-002     2.6992026334375338E-013
   5.9300000000000019E-002     2.7307758137898767E-013
   6.0400000000000009E-002     2.7559522093403013E-013
   6.1500000000000027E-002     2.7523626859088881E-013
   6.2600000000000017E-002     2.7157739155696229E-013
   6.3700000000000007E-002     2.6625989633152846E-013
   6.4800000000000024E-002     2.6178363144866441E-013
   6.5900000000000014E-002     2.5974291566672701E-013
   6.7000000000000004E-002     2.5976806744357784E-013
   6.8100000000000022E-002     2.5988454040247761E-013
   6.9200000000000012E-002     2.5796666972393778E-013
   7.0300000000000029E-002     2.5320700285444982E-013
   7.1400000000000019E-002     2.4657155850750071E-013
   7.2500000000000009E-002     2.3999066247137114E-013
   7.3600000000000027E-002     2.3494295525336297E-013
   7.4700000000000016E-002     2.3147280537247782E-013
   7.5800000000000006E-002     2.2829488450083306E-013
   7.6900000000000024E-002     2.2381618315662540E-013
   7.8000000000000014E-002     2.1726669626213364E-013
   7.9100000000000004E-002     2.0912287597377784E-013
   8.0200000000000021E-002     2.0059054567298651E-013
   8.1300000000000011E-002     1.9261770097475763E-013
   8.2400000000000029E-002     1.8520919657433385E-013
   8.3500000000000019E-002     1.7752493026453588E-013
   8.4600000000000009E-002     1.6862020606857541E-013
   8.5700000000000026E-002     1.5821689029820288E-013
   8.6800000000000016E-002     1.4691511844598591E-013
   8.7900000000000006E-002     1.3571611319631349E-013
   8.9000000000000024E-002     1.2525428450309005E-013
   9.0100000000000013E-002     1.1533293103755781E-013
   9.1200000000000003E-002     1.0509801285218909E-013
   9.2300000000000021E-002     9.3692059838149507E-014
   9.3400000000000011E-002     8.0884689164992379E-014
   9.4500000000000028E-002     6.7223380850634381E-014
   9.5600000000000018E-002     5.3625430487284982E-014
   9.6700000000000008E-002     4.0739364821615710E-014
   9.7800000000000026E-002     2.8543552221921481E-014
   9.8900000000000016E-002     1.6442476372972719E-014
  0.10000000000000001          3.7485347895962232E-015
  0.10110000000000002         -9.8179226051373158E-015
  0.10220000000000001         -2.3946321877104030E-014
  0.10330000000000003         -3.7947032673425074E-014
  0.10440000000000002         -5.1157209202251274E-014
  0.10550000000000001         -6.3250598984574924E-014
  0.10660000000000003         -7.4285680497563224E-014
  0.10770000000000002         -8.4538665474023608E-014
  0.10880000000000001         -9.4294716951263010E-014
  0.10990000000000003         -1.0373537115247578E-013
  0.11100000000000002         -1.1292911000623965E-013
  0.11210000000000001         -1.2183841621750210E-013
  0.11320000000000002         -1.3028022536571935E-013
  0.11430000000000001         -1.3787975129231448E-013
  0.11540000000000003         -1.4412406353339892E-013
  0.11650000000000002         -1.4857175246298303E-013
  0.11760000000000001         -1.5113466996407193E-013
  0.11870000000000003         -1.5223694029764021E-013
  0.11980000000000002         -1.5268624028374680E-013
  0.12090000000000001         -1.5326872047102805E-013
  0.12200000000000003         -1.5428395083630912E-013
  0.12310000000000001         -1.5531732495976654E-013
  0.12420000000000003         -1.5542869443434335E-013
  0.12530000000000002         -1.5368316963364454E-013
  0.12640000000000001         -1.4972677368520024E-013
  0.12750000000000003         -1.4406444033994685E-013
  0.12860000000000002         -1.3786384294037888E-013
  0.12970000000000001         -1.3238248447630545E-013
  0.13080000000000003         -1.2833153598106516E-013
  0.13190000000000002         -1.2552454258889931E-013
  0.13300000000000001         -1.2300202332952560E-013
  0.13410000000000000         -1.1956915579440055E-013
  0.13520000000000004         -1.1447031829504284E-013
  0.13630000000000003         -1.0785377026935389E-013
  0.13740000000000002         -1.0077877216153297E-013
  0.13850000000000001         -9.4737956085018529E-014
  0.13960000000000000         -9.0910327922543091E-014
  0.14070000000000005         -8.9516121835926762E-014
  0.14180000000000004         -8.9629603322148637E-014
  0.14290000000000003         -8.9602356618445439E-014
  0.14400000000000002         -8.7932770284489992E-014
  0.14510000000000001         -8.4142154140569736E-014
  0.14620000000000000         -7.9152765897098311E-014
  0.14730000000000004         -7.4887550591054332E-014
  0.14840000000000003         -7.3239462388319842E-014
  0.14950000000000002         -7.4957535862103496E-014
  0.15060000000000001         -7.9109331235347151E-014
  0.15170000000000000         -8.3493337573027809E-014
  0.15280000000000005         -8.5824080468434824E-014
  0.15390000000000004         -8.5021536821605475E-014
  0.15500000000000003         -8.1828503586471598E-014
  0.15610000000000002         -7.8355490608251805E-014
  0.15720000000000001         -7.6803344162906103E-014
  0.15830000000000000         -7.8134159359594980E-014
  0.15940000000000004         -8.1509240596915392E-014
  0.16050000000000003         -8.4841979361913276E-014
  0.16160000000000002         -8.6116244852324473E-014
  0.16270000000000001         -8.4643645104036150E-014
  0.16380000000000000         -8.1483122326887541E-014
  0.16490000000000005         -7.8786803369174433E-014
  0.16600000000000004         -7.8510318531315002E-014
  0.16710000000000003         -8.1299390972955255E-014
  0.16820000000000002         -8.6211830566538740E-014
  0.16930000000000001         -9.1380558288708209E-014
  0.17040000000000000         -9.5144653805021308E-014
  0.17150000000000004         -9.6938976952692254E-014
  0.17260000000000003         -9.7454984430047412E-014
  0.17370000000000002         -9.8078407906063055E-014
  0.17480000000000001         -1.0003265744132787E-013
  0.17590000000000000         -1.0375683728251171E-013
  0.17700000000000005         -1.0881339177921095E-013
  0.17810000000000004         -1.1425813753513260E-013
  0.17920000000000003         -1.1916479253498501E-013
  0.18030000000000002         -1.2299842882543571E-013
  0.18140000000000001         -1.2571081871788906E-013
  0.18250000000000000         -1.2761838836631477E-013
  0.18360000000000004         -1.2919589469288305E-013
  0.18470000000000003         -1.3087600488969389E-013
  0.18580000000000002         -1.3287966238455074E-013
  0.18690000000000001         -1.3509500665819641E-013
  0.18800000000000000         -1.3706537092542089E-013
  0.18910000000000005         -1.3815696631666734E-013
  0.19020000000000004         -1.3789417789993980E-013
  0.19130000000000003         -1.3630760749436957E-013
  0.19240000000000002         -1.3405934959752053E-013
  0.19350000000000001         -1.3219416405041212E-013
  0.19460000000000005         -1.3159842101609465E-013
  0.19570000000000004         -1.3247889444799044E-013
  0.19680000000000003         -1.3421795166748180E-013
  0.19790000000000002         -1.3574990705797678E-013
  0.19900000000000001         -1.3625787290609270E-013
  0.20010000000000000         -1.3574844747758796E-013
  0.20120000000000005         -1.3511128826387381E-013
  0.20230000000000004         -1.3559994370128292E-013
  0.20340000000000003         -1.3806121602268174E-013
  0.20450000000000002         -1.4241829467344309E-013
  0.20560000000000000         -1.4774529276396513E-013
  0.20670000000000005         -1.5286971277952169E-013
  0.20780000000000004         -1.5708449591648217E-013
  0.20890000000000003         -1.6049269453043296E-013
  0.21000000000000002         -1.6377932797549960E-013
  0.21110000000000001         -1.6760868832758441E-013
  0.21220000000000000         -1.7209012851703060E-013
  0.21330000000000005         -1.7667611448560949E-013
  0.21440000000000003         -1.8052647048290758E-013
  0.21550000000000002         -1.8304278631946187E-013
  0.21660000000000001         -1.8418633556550215E-013
  0.21770000000000000         -1.8438873715175786E-013
  0.21880000000000005         -1.8418121028538547E-013
  0.21990000000000004         -1.8385863995050992E-013
  0.22100000000000003         -1.8342320567287527E-013
  0.22210000000000002         -1.8279504498900294E-013
  0.22320000000000001         -1.8205158450609005E-013
  0.22430000000000000         -1.8144857728335906E-013
  0.22540000000000004         -1.8118564668324250E-013
  0.22650000000000003         -1.8112872013897019E-013
  0.22760000000000002         -1.8077613990397874E-013
  0.22870000000000001         -1.7957686543423252E-013
  0.22980000000000000         -1.7741058198388667E-013
  0.23090000000000005         -1.7485984552331045E-013
  0.23200000000000004         -1.7300785715131911E-013
  0.23310000000000003         -1.7282695623285447E-013
  0.23420000000000002         -1.7454571741687697E-013
  0.23530000000000001         -1.7744640016297130E-013
  0.23640000000000000         -1.8027757876192135E-013
  0.23750000000000004         -1.8204311339619969E-013
  0.23860000000000003         -1.8264663381094970E-013
  0.23970000000000002         -1.8294072354147592E-013
  0.24080000000000001         -1.8411986531154878E-013
  0.24190000000000000         -1.8684270175670146E-013
  0.24300000000000005         -1.9066590695985260E-013
  0.24410000000000004         -1.9418060208057513E-013
  0.24520000000000003         -1.9578756087316166E-013
  0.24630000000000002         -1.9463292338645964E-013
  0.24740000000000001         -1.9112370088829768E-013
  0.24850000000000005         -1.8671005837145728E-013
  0.24960000000000004         -1.8307739421794951E-013
  0.25070000000000003         -1.8123926947421149E-013
  0.25180000000000002         -1.8105434116194266E-013
  0.25290000000000001         -1.8140988433037858E-013
  0.25400000000000000         -1.8091456575643578E-013
  0.25510000000000005         -1.7867263521422665E-013
  0.25620000000000004         -1.7471017999437186E-013
  0.25730000000000003         -1.6986048550556927E-013
  0.25840000000000002         -1.6522651425175760E-013
  0.25950000000000001         -1.6154653398487261E-013
  0.26060000000000005         -1.5880242956952632E-013
  0.26170000000000004         -1.5625293160920938E-013
  0.26280000000000003         -1.5284771012690202E-013
  0.26390000000000002         -1.4779608570054542E-013
  0.26500000000000001         -1.4100015396483333E-013
  0.26610000000000000         -1.3313258391869532E-013
  0.26720000000000005         -1.2531138623951204E-013
  0.26830000000000004         -1.1852424339569307E-013
  0.26940000000000003         -1.1309287767126025E-013
  0.27050000000000002         -1.0846642204872178E-013
  0.27160000000000001         -1.0347430275999435E-013
  0.27270000000000005         -9.6920230720185605E-014
  0.27380000000000004         -8.8194315504235271E-014
  0.27490000000000003         -7.7550829351746114E-014
  0.27600000000000002         -6.5884309483634358E-014
  0.27710000000000001         -5.4139536339162149E-014
  0.27820000000000000         -4.2725276932308095E-014
  0.27930000000000005         -3.1307286453025675E-014
  0.28040000000000004         -1.9114022608444130E-014
  0.28150000000000003         -5.5481163883912166E-015
  0.28260000000000002          9.3148614146023303E-015
  0.28370000000000001          2.4690303323796102E-014
  0.28480000000000005          3.9549652269275252E-014
  0.28590000000000004          5.3279107543748712E-014
  0.28700000000000003          6.6083973123919981E-014
  0.28810000000000002          7.8858451766380363E-014
  0.28920000000000001          9.2604504533649371E-014
  0.29030000000000000          1.0779130202027248E-013
  0.29140000000000005          1.2408310460874690E-013
  0.29250000000000004          1.4060360402256201E-013
  0.29360000000000003          1.5653292758385484E-013
  0.29470000000000002          1.7161185649781582E-013
  0.29580000000000001          1.8620986898642620E-013
  0.29690000000000005          2.0093363135579489E-013
  0.29800000000000004          2.1607891970823013E-013
  0.29910000000000003          2.3132905436099125E-013
  0.30020000000000002          2.4591310144812863E-013
  0.30130000000000001          2.5910192084247900E-013
  0.30240000000000000          2.7068237408837004E-013
  0.30350000000000005          2.8107654629131263E-013
  0.30460000000000004          2.9103151834427159E-013
  0.30570000000000003          3.0110465384853460E-013
  0.30680000000000002          3.1129642068078611E-013
  0.30790000000000001          3.2105875246429295E-013
  0.30900000000000005          3.2963974765594357E-013
  0.31010000000000004          3.3651046134103611E-013
  0.31120000000000003          3.4160198256769464E-013
  0.31230000000000002          3.4524977524110860E-013
  0.31340000000000001          3.4795329528833191E-013
  0.31450000000000006          3.5015663373263985E-013
  0.31560000000000005          3.5218589383500491E-013
  0.31670000000000004          3.5432252345193652E-013
  0.31780000000000003          3.5688452441596235E-013
  0.31890000000000002          3.6020912250376893E-013
  0.32000000000000001          3.6454746670415717E-013
  0.32110000000000005          3.6997873465397664E-013
  0.32220000000000004          3.7644085348628729E-013
  0.32330000000000003          3.8386850924894544E-013
  0.32440000000000002          3.9232270761967840E-013
  0.32550000000000001          4.0199237746243958E-013
  0.32660000000000006          4.1305777707707338E-013
  0.32770000000000005          4.2553619472720009E-013
  0.32880000000000004          4.3926648148056927E-013
  0.32990000000000003          4.5408278176380392E-013
  0.33100000000000002          4.7005896517959851E-013
  0.33210000000000001          4.8761091631900959E-013
  0.33320000000000005          5.0732038095747707E-013
  0.33430000000000004          5.2954835895899042E-013
  0.33540000000000003          5.5408913171711856E-013
  0.33650000000000002          5.8012491311307348E-013
  0.33760000000000001          6.0655314389460300E-013
  0.33870000000000006          6.3249362338200558E-013
  0.33980000000000005          6.5764334698983566E-013
  0.34090000000000004          6.8223965674563945E-013
  0.34200000000000003          7.0666434336647175E-013
  0.34310000000000002          7.3097594100042788E-013
  0.34420000000000001          7.5470542357735477E-013
  0.34530000000000005          7.7705430613385803E-013
  0.34640000000000004          7.9733090911423587E-013
  0.34750000000000003          8.1528168867789409E-013
  0.34860000000000002          8.3105193063337359E-013
  0.34970000000000001          8.4479281975610334E-013
  0.35080000000000006          8.5620981148625637E-013
  0.35190000000000005          8.6441082708222032E-013
  0.35300000000000004          8.6820519885864237E-013
  0.35410000000000003          8.6667139689591557E-013
  0.35520000000000002          8.5959695801215254E-013
  0.35630000000000001          8.4745416784857101E-013
  0.35740000000000005          8.3088157600123306E-013
  0.35850000000000004          8.0998026634473862E-013
  0.35960000000000003          7.8387606300995285E-013
  0.36070000000000002          7.5085032175475221E-013
  0.36180000000000001          7.0900359479529877E-013
  0.36290000000000006          6.5711347398969723E-013
  0.36400000000000005          5.9526168573155873E-013
  0.36510000000000004          5.2496218425083472E-013
  0.36620000000000003          4.4879176222709316E-013
  0.36730000000000002          3.6973034136190148E-013
  0.36840000000000006          2.9045890094950846E-013
  0.36950000000000005          2.1277253922156648E-013
  0.37060000000000004          1.3715545519646785E-013
  0.37170000000000003          6.2526965375828756E-014
  0.37280000000000002         -1.3794563899274115E-014
  0.37390000000000001         -9.5820177067069057E-014
  0.37500000000000006         -1.8824479217557379E-013
  0.37610000000000005         -2.9545676440877100E-013
  0.37720000000000004         -4.2034240585394046E-013
  0.37830000000000003         -5.6308705567676656E-013
  0.37940000000000002         -7.2017907963655629E-013
  0.38050000000000006         -8.8381630301456377E-013
  0.38160000000000005         -1.0419409398984536E-012
  0.38270000000000004         -1.1791616913600975E-012
  0.38380000000000003         -1.2787621466202223E-012
  0.38490000000000002         -1.3257542709355510E-012
  0.38600000000000001         -1.3105279315620140E-012
  0.38710000000000000         -1.2322538827204964E-012
  0.38819999999999999         -1.1010390320105818E-012
  0.38930000000000009         -9.3807780269594834E-013
  0.39040000000000008         -7.7361891624628935E-013
  0.39150000000000007         -6.4319798084352532E-013
  0.39260000000000006         -5.8295867737210935E-013
  0.39370000000000005         -6.2482994979675030E-013
  0.39480000000000004         -7.9195096454847020E-013
  0.39590000000000003         -1.0943677086771882E-012
  0.39700000000000002         -1.5249619871637326E-012
  0.39810000000000001         -2.0559163536000167E-012
  0.39920000000000000         -2.6365519605688689E-012
  0.40029999999999999         -3.1937168625525773E-012
  0.40140000000000009         -3.6357600997146864E-012
  0.40250000000000008         -3.8604584106683347E-012
  0.40360000000000007         -3.7663488131978728E-012
  0.40470000000000006         -3.2661573604511398E-012
  0.40580000000000005         -2.3006901705373796E-012
  0.40690000000000004         -8.5171678885379749E-013
  0.40800000000000003          1.0471894024349473E-012
  0.40910000000000002          3.3024704401152309E-012
  0.41020000000000001          5.7554907814076110E-012
  0.41130000000000000          8.1810258478498801E-012
  0.41239999999999999          1.0290000076210055E-011
  0.41350000000000009          1.1737286858063840E-011
  0.41460000000000008          1.2135358084181541E-011
  0.41570000000000007          1.1074299417832268E-011
  0.41680000000000006          8.1482753722750355E-012
  0.41790000000000005          2.9878249209253605E-012
  0.41900000000000004         -4.7034463887677957E-012
  0.42010000000000003         -1.5110112182272754E-011
  0.42120000000000002         -2.8267257435354239E-011
  0.42230000000000001         -4.4027522453518153E-011
  0.42340000000000000         -6.2036643408797706E-011
  0.42449999999999999         -8.1720903718053428E-011
  0.42560000000000009         -1.0228916612593979E-010
  0.42670000000000008         -1.2275126370790135E-010
  0.42780000000000007         -1.4195303089358788E-010
  0.42890000000000006         -1.5862695984075522E-010
  0.43000000000000005         -1.7145510388797879E-010
  0.43110000000000004         -1.7913919056766637E-010
  0.43220000000000003         -1.8047095093507600E-010
  0.43330000000000002         -1.7439472664745544E-010
  0.43440000000000001         -1.6005481581973617E-010
  0.43550000000000000         -1.3682187681304417E-010
  0.43659999999999999         -1.0429539078985261E-010
  0.43770000000000009         -6.2282892335917044E-011
  0.43880000000000008         -1.0759934521439560E-011
  0.43990000000000007          5.0182285241393568E-011
  0.44100000000000006          1.2039316367924242E-010
  0.44210000000000005          1.9971348763660332E-010
  0.44320000000000004          2.8801236571590338E-010
  0.44430000000000003          3.8520423861225397E-010
  0.44540000000000002          4.9124341992486428E-010
  0.44650000000000001          6.0609768010766439E-010
  0.44760000000000000          7.2970683173140431E-010
  0.44869999999999999          8.6193643903179862E-010
  0.44980000000000009          1.0025358386498057E-009
  0.45090000000000008          1.1511111718670943E-009
  0.45200000000000007          1.3071194378463136E-009
  0.45310000000000006          1.4698861554982019E-009
  0.45420000000000005          1.6386427546779544E-009
  0.45530000000000004          1.8125776172906633E-009
  0.45640000000000003          1.9908900336921288E-009
  0.45750000000000002          2.1728394783628382E-009
  0.45860000000000001          2.3577756781294347E-009
  0.45970000000000000          2.5451490740527837E-009
  0.46079999999999999          2.7344961281454507E-009
  0.46190000000000009          2.9254057043733229E-009
  0.46300000000000008          3.1174726842689050E-009
  0.46410000000000007          3.3102491451685149E-009
  0.46520000000000006          3.5032031753412276E-009
  0.46630000000000005          3.6956928734226424E-009
  0.46740000000000004          3.8869634705072329E-009
  0.46850000000000003          4.0761627122495102E-009
  0.46960000000000002          4.2623805206702766E-009
  0.47070000000000001          4.4447037994194211E-009
  0.47180000000000000          4.6222779955666652E-009
  0.47289999999999999          4.7943725634560442E-009
  0.47400000000000009          4.9604342107743936E-009
  0.47510000000000008          5.1201218384447754E-009
  0.47620000000000007          5.2733138076868673E-009
  0.47730000000000006          5.4200822361615261E-009
  0.47840000000000005          5.5606341433270299E-009