 -0.12000000000000000          0.0000000000000000     
 -0.11889999999999999         -2.5620533551341615E-014
 -0.11780000000000000         -6.9455944123342315E-014
 -0.11670000000000000         -1.1924169501385407E-013
 -0.11559999999999999         -1.6365480963445626E-013
 -0.11449999999999999         -1.9668509335609892E-013
 -0.11340000000000000         -2.1839204703109443E-013
 -0.11230000000000000         -2.3233209764604515E-013
 -0.11119999999999999         -2.4196397091624777E-013
 -0.11009999999999999         -2.4859680294519353E-013
 -0.10900000000000000         -2.5192509610997124E-013
 -0.10790000000000000         -2.5213216664669689E-013
 -0.10679999999999999         -2.5146365049423573E-013
 -0.10569999999999999         -2.5377986879164452E-013
 -0.10460000000000000         -2.6231297118070978E-013
 -0.10349999999999999         -2.7732332589856818E-013
 -0.10239999999999999         -2.9547052267333385E-013
 -0.10130000000000000         -3.1145020902592475E-013
 -0.10020000000000000         -3.2079534160367098E-013
  -9.9099999999999994E-002    -3.2194045238604604E-013
  -9.7999999999999990E-002    -3.1625524398228027E-013
  -9.6899999999999986E-002    -3.0625563932599838E-013
  -9.5799999999999996E-002    -2.9345580148693989E-013
  -9.4699999999999993E-002    -2.7743534566132305E-013
  -9.3599999999999989E-002    -2.5666061904105357E-013
  -9.2499999999999999E-002    -2.3025850941720496E-013
  -9.1399999999999995E-002    -1.9929943829032775E-013
  -9.0299999999999991E-002    -1.6661773334785007E-013
  -8.9200000000000002E-002    -1.3534309976872838E-013
  -8.8099999999999984E-002    -1.0723243833998855E-013
  -8.6999999999999994E-002    -8.1925651290047183E-014
  -8.5899999999999990E-002    -5.7469820741136500E-014
  -8.4799999999999986E-002    -3.1534863030104883E-014
  -8.3699999999999997E-002    -2.3885840481081592E-015
  -8.2599999999999993E-002     3.0895852588505389E-014
  -8.1499999999999989E-002     6.8788184244194747E-014
  -8.0399999999999999E-002     1.1157013124266198E-013
  -7.9299999999999995E-002     1.5910999841270464E-013
  -7.8199999999999992E-002     2.1034189950359384E-013
  -7.7100000000000002E-002     2.6307411356703402E-013
  -7.5999999999999984E-002     3.1457718666603842E-013
  -7.4899999999999994E-002     3.6275018340212821E-013
  -7.3799999999999991E-002     4.0708796921406546E-013
  -7.2699999999999987E-002     4.4869258172404932E-013
  -7.1599999999999997E-002     4.8923464750610941E-013
  -7.0499999999999993E-002     5.2957298502002744E-013
  -6.9399999999999989E-002     5.6904221149280707E-013
  -6.8300000000000000E-002     6.0594468901405629E-013
  -6.7199999999999996E-002     6.3887402585707350E-013
  -6.6099999999999992E-002     6.6785362880243023E-013
  -6.5000000000000002E-002     6.9439877222220709E-013
  -6.3899999999999985E-002     7.2042343047277136E-013
  -6.2799999999999995E-002     7.4678973370321336E-013
  -6.1699999999999991E-002     7.7256488717068325E-013
  -6.0599999999999994E-002     7.9550532098045560E-013
  -5.9499999999999990E-002     8.1336541171600340E-013
  -5.8399999999999994E-002     8.2504445267763830E-013
  -5.7299999999999990E-002     8.3078268101350263E-013
  -5.6199999999999986E-002     8.3141414856122288E-013
  -5.5099999999999996E-002     8.2742613556958868E-013
  -5.3999999999999992E-002     8.1866922605159237E-013
  -5.2899999999999989E-002     8.0494289534241341E-013
  -5.1799999999999985E-002     7.8687735922373446E-013
  -5.0699999999999995E-002     7.6621682774499818E-013
  -4.9599999999999991E-002     7.4507300054687926E-013
  -4.8499999999999988E-002     7.2459650717249921E-013
  -4.7399999999999998E-002     7.0408998091867395E-013
  -4.6299999999999994E-002     6.8135155902551873E-013
  -4.5199999999999990E-002     6.5412912252490482E-013
  -4.4099999999999986E-002     6.2167980626617922E-013
  -4.2999999999999997E-002     5.8527782524198331E-013
  -4.1899999999999993E-002     5.4726556408577007E-013
  -4.0799999999999989E-002     5.0934844100692384E-013
  -3.9699999999999985E-002     4.7144178272336082E-013
  -3.8599999999999995E-002     4.3198989472500012E-013
  -3.7499999999999992E-002     3.8955578407672798E-013
  -3.6399999999999988E-002     3.4447009529402909E-013
  -3.5299999999999984E-002     2.9921866982917454E-013
  -3.4199999999999994E-002     2.5715869221125316E-013
  -3.3099999999999991E-002     2.2041927313793836E-013
  -3.1999999999999987E-002     1.8850535588510919E-013
  -3.0899999999999997E-002     1.5866193547216126E-013
  -2.9799999999999993E-002     1.2778745461194416E-013
  -2.8699999999999989E-002     9.4548824541426108E-014
  -2.7599999999999986E-002     6.0196594872256219E-014
  -2.6499999999999996E-002     2.7531616591263627E-014
  -2.5399999999999992E-002    -1.1718646882409128E-015
  -2.4299999999999988E-002    -2.5734116967588127E-014
  -2.3199999999999985E-002    -4.7987157381011430E-014
  -2.2099999999999995E-002    -7.0152951071150560E-014
  -2.0999999999999991E-002    -9.2946777543903404E-014
  -1.9899999999999987E-002    -1.1486139004455435E-013
  -1.8799999999999983E-002    -1.3318516183826522E-013
  -1.7699999999999994E-002    -1.4599886484540041E-013
  -1.6599999999999990E-002    -1.5366350348815763E-013
  -1.5499999999999986E-002    -1.5869583052780151E-013
  -1.4399999999999996E-002    -1.6412719594173241E-013
  -1.3299999999999992E-002    -1.7155149479892206E-013
  -1.2199999999999989E-002    -1.8026937449502496E-013
  -1.1099999999999985E-002    -1.8810009393119032E-013
  -9.9999999999999950E-003    -1.9320225340536656E-013
  -8.8999999999999913E-003    -1.9553794627219899E-013
  -7.7999999999999875E-003    -1.9693249556362581E-013
  -6.6999999999999837E-003    -1.9975154457874346E-013
  -5.5999999999999939E-003    -2.0522270373980310E-013
  -4.4999999999999901E-003    -2.1263364392526554E-013
  -3.3999999999999864E-003    -2.1993344099564517E-013
  -2.2999999999999826E-003    -2.2521589424289582E-013
  -1.1999999999999927E-003    -2.2796508209856117E-013
  -9.9999999999988987E-005    -2.2920840129597328E-013
   1.0000000000000148E-003    -2.3059581902156117E-013
   2.1000000000000185E-003    -2.3321142994558579E-013
   3.2000000000000084E-003    -2.3703687761948519E-013
   4.3000000000000121E-003    -2.4138727358356668E-013
   5.4000000000000159E-003    -2.4583816877833522E-013
   6.5000000000000058E-003    -2.5079641498995915E-013
   7.6000000000000234E-003    -2.5720381519726759E-013
   8.7000000000000133E-003    -2.6560613335412059E-013
   9.8000000000000032E-003    -2.7536364640522496E-013
   1.0900000000000021E-002    -2.8469170776471608E-013
   1.2000000000000011E-002    -2.9157844465388709E-013
   1.3100000000000001E-002    -2.9493989142293489E-013
   1.4200000000000018E-002    -2.9518058822190804E-013
   1.5300000000000008E-002    -2.9376928127506302E-013
   1.6400000000000026E-002    -2.9216783942948811E-013
   1.7500000000000016E-002    -2.9090256168928148E-013
   1.8600000000000005E-002    -2.8941213946729192E-013
   1.9700000000000023E-002    -2.8668681163880031E-013
   2.0800000000000013E-002    -2.8212541768138833E-013
   2.1900000000000003E-002    -2.7592438150303043E-013
   2.3000000000000020E-002    -2.6873876763485347E-013
   2.4100000000000010E-002    -2.6095460892196518E-013
   2.5200000000000000E-002    -2.5220860969861760E-013
   2.6300000000000018E-002    -2.4156170873053291E-013
   2.7400000000000008E-002    -2.2818313936052432E-013
   2.8500000000000025E-002    -2.1198291538432019E-013
   2.9600000000000015E-002    -1.9367766600844956E-013
   3.0700000000000005E-002    -1.7424006149282779E-013
   3.1800000000000023E-002    -1.5418405768027096E-013
   3.2900000000000013E-002    -1.3327132687239410E-013
   3.4000000000000002E-002    -1.1088193730398393E-013
   3.5100000000000020E-002    -8.6752111051883774E-014
   3.6200000000000010E-002    -6.1476291792674523E-014
   3.7300000000000028E-002    -3.6345029293819205E-014
   3.8400000000000017E-002    -1.2608061851813329E-014
   3.9500000000000007E-002     9.2946294290353133E-015
   4.0600000000000025E-002     2.9957464007648172E-014
   4.1700000000000015E-002     5.0523741697854810E-014
   4.2800000000000005E-002     7.1857081897492755E-014
   4.3900000000000022E-002     9.3979662405573490E-014
   4.5000000000000012E-002     1.1615953618743670E-013
   4.6100000000000002E-002     1.3751966678692791E-013
   4.7200000000000020E-002     1.5765190601682080E-013
   4.8300000000000010E-002     1.7674768360345582E-013
   4.9400000000000027E-002     1.9516768915960501E-013
   5.0500000000000017E-002     2.1283142317857364E-013
   5.1600000000000007E-002     2.2895124990237473E-013
   5.2700000000000025E-002     2.4235801588275062E-013
   5.3800000000000014E-002     2.5219404959794567E-013
   5.4900000000000004E-002     2.5845842617443566E-013
   5.6000000000000022E-002     2.6200400857186335E-013
   5.7100000000000012E-002     2.6400496514931937E-013
   5.8200000000000002E-002     2.6530287780940711E-013
   5.9300000000000019E-002     2.6609604097321808E-013
   6.0400000000000009E-002     2.6613195970467208E-013
   6.1500000000000027E-002     2.6515548846368149E-013
   6.2600000000000017E-002     2.6318614375999731E-013
   6.3700000000000007E-002     2.6038649376297550E-013
   6.4800000000000024E-002     2.5666986708702697E-013
   6.5900000000000014E-002     2.5145196693441452E-013
   6.7000000000000004E-002     2.4385479482360138E-013
   6.8100000000000022E-002     2.3328987742189218E-013
   6.9200000000000012E-002     2.1999616987267395E-013
   7.0300000000000029E-002     2.0508043408983150E-013
   7.1400000000000019E-002     1.8995489186541590E-013
   7.2500000000000009E-002     1.7552685966832665E-013
   7.3600000000000027E-002     1.6171109751686724E-013
   7.4700000000000016E-002     1.4762367887681848E-013
   7.5800000000000006E-002     1.3232529297071754E-013
   7.6900000000000024E-002     1.1557966717152617E-013
   7.8000000000000014E-002     9.8085134788198016E-014
   7.9100000000000004E-002     8.1032004968111372E-014
   8.0200000000000021E-002     6.5334742340904677E-014
   8.1300000000000011E-002     5.1111290594189387E-014
   8.2400000000000029E-002     3.7768966288972557E-014
   8.3500000000000019E-002     2.4580834012825369E-014
   8.4600000000000009E-002     1.1270827288636104E-014
   8.5700000000000026E-002    -1.8501772140142695E-015
   8.6800000000000016E-002    -1.4270394203569618E-014
   8.7900000000000006E-002    -2.5824586474607390E-014
   8.9000000000000024E-002    -3.6907272332172183E-014
   9.0100000000000013E-002    -4.8129363045315421E-014
   9.1200000000000003E-002    -5.9662016641786320E-014
   9.2300000000000021E-002    -7.0798509974018925E-014
   9.3400000000000011E-002    -8.0136606011192502E-014
   9.4500000000000028E-002    -8.6327430191536644E-014
   9.5600000000000018E-002    -8.8899070656479426E-014
   9.6700000000000008E-002    -8.8582885134377941E-014
   9.7800000000000026E-002    -8.6915727509790458E-014
   9.8900000000000016E-002    -8.5405073020930357E-014
  0.10000000000000001         -8.4839426547101528E-014
  0.10110000000000002         -8.5184033226649213E-014
  0.10220000000000001         -8.6038303051605982E-014
  0.10330000000000003         -8.7207610289082247E-014
  0.10440000000000002         -8.8885489579110286E-014
  0.10550000000000001         -9.1293368559586392E-014
  0.10660000000000003         -9.4104779755472250E-014
  0.10770000000000002         -9.6206505178157905E-014
  0.10880000000000001         -9.6128195902534278E-014
  0.10990000000000003         -9.2957621979769707E-014
  0.11100000000000002         -8.7136839535052788E-014
  0.11210000000000001         -8.0537197701623740E-014
  0.11320000000000002         -7.5661535630805780E-014
  0.11430000000000001         -7.4411759974292406E-014
  0.11540000000000003         -7.7171043916287648E-014
  0.11650000000000002         -8.2757393395527236E-014
  0.11760000000000001         -8.9240423277063474E-014
  0.11870000000000003         -9.5066122513374089E-014
  0.11980000000000002         -9.9775502387195091E-014
  0.12090000000000001         -1.0392194970369630E-013
  0.12200000000000003         -1.0834896202669518E-013
  0.12310000000000001         -1.1339401193242794E-013
  0.12420000000000003         -1.1857559792880542E-013
  0.12530000000000002         -1.2293772057224794E-013
  0.12640000000000001         -1.2575970777830003E-013
  0.12750000000000003         -1.2711260491547471E-013
  0.12860000000000002         -1.2788516841425720E-013
  0.12970000000000001         -1.2928274087293184E-013
  0.13080000000000003         -1.3214037261032337E-013
  0.13190000000000002         -1.3647229689858559E-013
  0.13300000000000001         -1.4148391881424138E-013
  0.13410000000000000         -1.4596828602677265E-013
  0.13520000000000004         -1.4881009057250445E-013
  0.13630000000000003         -1.4932990173870078E-013
  0.13740000000000002         -1.4736790449021948E-013
  0.13850000000000001         -1.4318057911577343E-013
  0.13960000000000000         -1.3728969641370405E-013
  0.14070000000000005         -1.3036894887960249E-013
  0.14180000000000004         -1.2315859878386396E-013
  0.14290000000000003         -1.1635586901541684E-013
  0.14400000000000002         -1.1046236229405823E-013
  0.14510000000000001         -1.0563687699659391E-013
  0.14620000000000000         -1.0163368615427946E-013
  0.14730000000000004         -9.7873998420886591E-014
  0.14840000000000003         -9.3630448601679064E-014
  0.14950000000000002         -8.8254222712300477E-014
  0.15060000000000001         -8.1371407472100148E-014
  0.15170000000000000         -7.3004818014505027E-014
  0.15280000000000005         -6.3604128179905349E-014
  0.15390000000000004         -5.3972681124803108E-014
  0.15500000000000003         -4.5081154991984936E-014
  0.15610000000000002         -3.7786085944481257E-014
  0.15720000000000001         -3.2529292596984799E-014
  0.15830000000000000         -2.9143259874573611E-014
  0.15940000000000004         -2.6874863299763899E-014
  0.16050000000000003         -2.4647135323699836E-014
  0.16160000000000002         -2.1451339784549034E-014
  0.16270000000000001         -1.6683893159810892E-014
  0.16380000000000000         -1.0275127052763052E-014
  0.16490000000000005         -2.5844305967853728E-015
  0.16600000000000004          5.8279170374929985E-015
  0.16710000000000003          1.4393246536318949E-014
  0.16820000000000002          2.2601669878124267E-014
  0.16930000000000001          2.9981129483743802E-014
  0.17040000000000000          3.6104959028682877E-014
  0.17150000000000004          4.0709846445837823E-014
  0.17260000000000003          4.3885019490972781E-014
  0.17370000000000002          4.6187888189213209E-014
  0.17480000000000001          4.8547386782165549E-014
  0.17590000000000000          5.1943495945588577E-014
  0.17700000000000005          5.7010916374428689E-014
  0.17810000000000004          6.3784648061280170E-014
  0.17920000000000003          7.1726286620680620E-014
  0.18030000000000002          7.9994524707775409E-014
  0.18140000000000001          8.7779014389691992E-014
  0.18250000000000000          9.4506022875130029E-014
  0.18360000000000004          9.9848749307061902E-014
  0.18470000000000003          1.0363155768463395E-013
  0.18580000000000002          1.0578156199836758E-013
  0.18690000000000001          1.0640629462441411E-013
  0.18800000000000000          1.0592995856217566E-013
  0.18910000000000005          1.0512941348598586E-013
  0.19020000000000004          1.0495892396712129E-013
  0.19130000000000003          1.0620840040716068E-013
  0.19240000000000002          1.0918164250717766E-013
  0.19350000000000001          1.1359173740297220E-013
  0.19460000000000005          1.1873323260240273E-013
  0.19570000000000004          1.2380634063827373E-013
  0.19680000000000003          1.2817851202414490E-013
  0.19790000000000002          1.3144207103377277E-013
  0.19900000000000001          1.3330363016478722E-013
  0.20010000000000000          1.3347880842206867E-013
  0.20120000000000005          1.3175008366537187E-013
  0.20230000000000004          1.2818738736343133E-013
  0.20340000000000003          1.2335779909205228E-013
  0.20450000000000002          1.1830912984907041E-013
  0.20560000000000000          1.1425021577436688E-013
  0.20670000000000005          1.1207068714963538E-013
  0.20780000000000004          1.1197743237244192E-013
  0.20890000000000003          1.1346363876483573E-013
  0.21000000000000002          1.1560733549075176E-013
  0.21110000000000001          1.1748120923818104E-013
  0.21220000000000000          1.1840674158635263E-013
  0.21330000000000005          1.1793805994957459E-013
  0.21440000000000003          1.1569299350289501E-013
  0.21550000000000002          1.1127482918877859E-013
  0.21660000000000001          1.0444224253790206E-013
  0.21770000000000000          9.5450491335663590E-014
  0.21880000000000005          8.5290267799998426E-014
  0.21990000000000004          7.5559202902158043E-014
  0.22100000000000003          6.7929653825887613E-014
  0.22210000000000002          6.3466676317698292E-014
  0.22320000000000001          6.2186692212705918E-014
  0.22430000000000000          6.3118234298300156E-014
  0.22540000000000004          6.4813843952311042E-014
  0.22650000000000003          6.5984897475898739E-014
  0.22760000000000002          6.5885110738509322E-014
  0.22870000000000001          6.4279548716679600E-014
  0.22980000000000000          6.1144096209945623E-014
  0.23090000000000005          5.6415950267764974E-014
  0.23200000000000004          5.0033875980538642E-014
  0.23310000000000003          4.2239206534058002E-014
  0.23420000000000002          3.3864620451770046E-014
  0.23530000000000001          2.6308624518176916E-014
  0.23640000000000000          2.1105423151593508E-014
  0.23750000000000004          1.9296055776637935E-014
  0.23860000000000003          2.0967142408860727E-014
  0.23970000000000002          2.5229696883120899E-014
  0.24080000000000001          3.0631414536825705E-014
  0.24190000000000000          3.5733800418886384E-014
  0.24300000000000005          3.9522358135503777E-014
  0.24410000000000004          4.1483130867212711E-014
  0.24520000000000003          4.1433596946739692E-014
  0.24630000000000002          3.9346494333876105E-014
  0.24740000000000001          3.5349348110379778E-014
  0.24850000000000005          2.9882690735065643E-014
  0.24960000000000004          2.3826588618390288E-014
  0.25070000000000003          1.8399397780156454E-014
  0.25180000000000002          1.4798607864891378E-014
  0.25290000000000001          1.3758135895942327E-014
  0.25400000000000000          1.5278165237751520E-014
  0.25510000000000005          1.8678644945491213E-014
  0.25620000000000004          2.2917226805940333E-014
  0.25730000000000003          2.6956353818339185E-014
  0.25840000000000002          2.9974609020164219E-014
  0.25950000000000001          3.1373559086211497E-014
  0.26060000000000005          3.0701228059826628E-014
  0.26170000000000004          2.7660887726776363E-014
  0.26280000000000003          2.2266485710265057E-014
  0.26390000000000002          1.5038638348339857E-014
  0.26500000000000001          7.0501645947313772E-015
  0.26610000000000000         -2.9621813468016527E-016
  0.26720000000000005         -5.6949852705678055E-015
  0.26830000000000004         -8.3575486092929816E-015
  0.26940000000000003         -8.2095477337530624E-015
  0.27050000000000002         -5.7951889972780666E-015
  0.27160000000000001         -1.9990144591675515E-015
  0.27270000000000005          2.2222273838255860E-015
  0.27380000000000004          5.9733224998625096E-015
  0.27490000000000003          8.4457385491810315E-015
  0.27600000000000002          8.9606561556355519E-015
  0.27710000000000001          7.1226328163387670E-015
  0.27820000000000000          3.0392969991564750E-015
  0.27930000000000005         -2.5569353763421677E-015
  0.28040000000000004         -8.4384578912362206E-015
  0.28150000000000003         -1.3267289105567334E-014
  0.28260000000000002         -1.6058279823869638E-014
  0.28370000000000001         -1.6472736985019933E-014
  0.28480000000000005         -1.4795793404187126E-014
  0.28590000000000004         -1.1655875472319089E-014
  0.28700000000000003         -7.7029445136491598E-015
  0.28810000000000002         -3.4569737907125820E-015
  0.28920000000000001          6.2281509526082012E-016
  0.29030000000000000          3.9864118387178814E-015
  0.29140000000000005          5.9658080023141733E-015
  0.29250000000000004          5.9721279823294848E-015
  0.29360000000000003          3.8193641829134399E-015
  0.29470000000000002         -5.4942220695347022E-017
  0.29580000000000001         -4.6599013066461938E-015
  0.29690000000000005         -8.8104717449052107E-015
  0.29800000000000004         -1.1576905186780283E-014
  0.29910000000000003         -1.2569652541225284E-014
  0.30020000000000002         -1.1929883732880191E-014
  0.30130000000000001         -1.0104527797502802E-014
  0.30240000000000000         -7.6178848985217304E-015
  0.30350000000000005         -5.0119857362026125E-015
  0.30460000000000004         -2.9542488300206363E-015
  0.30570000000000003         -2.3474337999768663E-015
  0.30680000000000002         -4.2576021635405182E-015
  0.30790000000000001         -9.6195289498922248E-015
  0.30900000000000005         -1.8873231031187071E-014
  0.31010000000000004         -3.1774321173648541E-014
  0.31120000000000003         -4.7528506595301757E-014
  0.31230000000000002         -6.5190017434066145E-014
  0.31340000000000001         -8.4091737813886925E-014
  0.31450000000000006         -1.0406830448062765E-013
  0.31560000000000005         -1.2539438175674268E-013
  0.31670000000000004         -1.4856217259689746E-013
  0.31780000000000003         -1.7411110843717887E-013
  0.31890000000000002         -2.0263590132565206E-013
  0.32000000000000001         -2.3491359175519515E-013
  0.32110000000000005         -2.7196101068600096E-013
  0.32220000000000004         -3.1487032996313566E-013
  0.32330000000000003         -3.6444832588020415E-013
  0.32440000000000002         -4.2086521373363236E-013
  0.32550000000000001         -4.8355306550608577E-013
  0.32660000000000006         -5.5144676908466452E-013
  0.32770000000000005         -6.2343367981339256E-013
  0.32880000000000004         -6.9873940807417495E-013
  0.32990000000000003         -7.7703579411667414E-013
  0.33100000000000002         -8.5825962859034514E-013
  0.33210000000000001         -9.4233445147020855E-013
  0.33320000000000005         -1.0290329233291317E-012
  0.33430000000000004         -1.1180758265547195E-012
  0.33540000000000003         -1.2093538968181283E-012
  0.33650000000000002         -1.3030402449208786E-012
  0.33760000000000001         -1.3994348250459259E-012
  0.33870000000000006         -1.4985904540916065E-012
  0.33980000000000005         -1.5999537424683475E-012
  0.34090000000000004         -1.7022676646035371E-012
  0.34200000000000003         -1.8038133599792589E-012
  0.34310000000000002         -1.9028388464048054E-012
  0.34420000000000001         -1.9978985487706922E-012
  0.34530000000000005         -2.0879100083568593E-012
  0.34640000000000004         -2.1719445786369342E-012
  0.34750000000000003         -2.2489584318026563E-012
  0.34860000000000002         -2.3177059039960820E-012
  0.34970000000000001         -2.3769122185902383E-012
  0.35080000000000006         -2.4255841638888377E-012
  0.35190000000000005         -2.4632150836381858E-012
  0.35300000000000004         -2.4897143757790240E-012
  0.35410000000000003         -2.5050830440901720E-012
  0.35520000000000002         -2.5090287702898316E-012
  0.35630000000000001         -2.5007491113160227E-012
  0.35740000000000005         -2.4789915218363147E-012
  0.35850000000000004         -2.4423223355457121E-012
  0.35960000000000003         -2.3894347997427349E-012
  0.36070000000000002         -2.3193547327146088E-012
  0.36180000000000001         -2.2315106177359769E-012
  0.36290000000000006         -2.1257385057428635E-012
  0.36400000000000005         -2.0022902334983378E-012
  0.36510000000000004         -1.8618540149703673E-012
  0.36620000000000003         -1.7055249024324924E-012
  0.36730000000000002         -1.5346784306000073E-012
  0.36840000000000006         -1.3507750571285928E-012
  0.36950000000000005         -1.1551992943534704E-012
  0.37060000000000004         -9.4923221315513941E-013
  0.37170000000000003         -7.3415855245086158E-013
  0.37280000000000002         -5.1139888471592896E-013
  0.37390000000000001         -2.8253039940528737E-013
  0.37500000000000006         -4.9150115509196167E-014
  0.37610000000000005          1.8731585887550452E-013
  0.37720000000000004          4.2567378554690430E-013
  0.37830000000000003          6.6477754532102643E-013
  0.37940000000000002          9.0316437774432280E-013
  0.38050000000000006          1.1387420024661897E-012
  0.38160000000000005          1.3687688396043759E-012
  0.38270000000000004          1.5901980701759319E-012
  0.38380000000000003          1.8002136681399688E-012
  0.38490000000000002          1.9966478648178335E-012
  0.38600000000000001          2.1780438510138557E-012
  0.38710000000000000          2.3433711151698969E-012
  0.38819999999999999          2.4916390691727690E-012
  0.38930000000000009          2.6217143326159882E-012
  0.39040000000000008          2.7324804882935182E-012
  0.39150000000000007          2.8232130607972465E-012
  0.39260000000000006          2.8938700595685996E-012
  0.39370000000000005          2.9450521028433092E-012
  0.39480000000000004          2.9776264510729301E-012
  0.39590000000000003          2.9922590309703577E-012
  0.39700000000000002          2.9891701206452216E-012
  0.39810000000000001          2.9682666394578419E-012
  0.39920000000000000          2.9295432586110822E-012
  0.40029999999999999          2.8734598609453638E-012
  0.40140000000000009          2.8010504498861172E-012
  0.40250000000000008          2.7137334324128360E-012
  0.40360000000000007          2.6130185182039096E-012
  0.40470000000000006          2.5003652840570044E-012
  0.40580000000000005          2.3772911111768136E-012
  0.40690000000000004          2.2456064397228865E-012
  0.40800000000000003          2.1075274181512613E-012
  0.40910000000000002          1.9654973351369572E-012
  0.41020000000000001          1.8217842313350111E-012
  0.41130000000000000          1.6781063400334574E-012
  0.41239999999999999          1.5355436298473677E-012
  0.41350000000000009          1.3947887100941773E-012
  0.41460000000000008          1.2565469837239676E-012
  0.41570000000000007          1.1217851532235195E-012
  0.41680000000000006          9.9164919217561767E-013
  0.41790000000000005          8.6713285515559158E-013
  0.41900000000000004          7.4877248352625198E-013
  0.42010000000000003          6.3663007590692016E-013
  0.42120000000000002          5.3060547890363546E-013
  0.42230000000000001          4.3086006731453355E-013
  0.42340000000000000          3.3803646726609808E-013
  0.42449999999999999          2.5309872573187796E-013
  0.42560000000000009          1.7688980264401434E-013
  0.42670000000000008          1.0970727812085588E-013
  0.42780000000000007          5.1178771815165746E-014
  0.42890000000000006          4.9684592924676023E-016
  0.43000000000000005         -4.3183776706401313E-014
  0.43110000000000004         -8.0481537063468236E-014
  0.43220000000000003         -1.1182382243228359E-013
  0.43330000000000002         -1.3770252340872665E-013
  0.43440000000000001         -1.5889487667014418E-013
  0.43550000000000000         -1.7642782390159527E-013
  0.43659999999999999         -1.9127285583651605E-013
  0.43770000000000009         -2.0397986785516971E-013
  0.43880000000000008         -2.1451777752388472E-013
  0.43990000000000007         -2.2244550183549364E-013
  0.44100000000000006         -2.2730025987814599E-013
  0.44210000000000005         -2.2894425651485220E-013
  0.44320000000000004         -2.2766073442296555E-013
  0.44430000000000003         -2.2399068282427448E-013
  0.44540000000000002         -2.1848919091436784E-013
  0.44650000000000001         -2.1161273428068890E-013
  0.44760000000000000         -2.0380628269857437E-013
  0.44869999999999999         -1.9566788236086825E-013
  0.44980000000000009         -1.8798625133403937E-013
  0.45090000000000008         -1.8154533798774051E-013
  0.45200000000000007         -1.7679007700315108E-013
  0.45310000000000006         -1.7358745374298456E-013
  0.45420000000000005         -1.7127857921065907E-013
  0.45530000000000004         -1.6902168919959735E-013
  0.45640000000000003         -1.6621892875834907E-013
  0.45750000000000002         -1.6276000894199959E-013
  0.45860000000000001         -1.5894775712595982E-013
  0.45970000000000000         -1.5519634847736461E-013
  0.46079999999999999         -1.5174180893755040E-013
  0.46190000000000009         -1.4856972141048652E-013
  0.46300000000000008         -1.4558191668323175E-013
  0.46410000000000007         -1.4283816180322335E-013
  0.46520000000000006         -1.4066095442140578E-013
  0.46630000000000005         -1.3951177169550581E-013
  0.46740000000000004         -1.3973132931712633E-013
  0.46850000000000003         -1.4133838668645935E-013
  0.46960000000000002         -1.4402712472368987E-013
  0.47070000000000001         -1.4734395572120828E-013
  0.47180000000000000         -1.5089488803214186E-013
  0.47289999999999999         -1.5443534666926824E-013
  0.47400000000000009         -1.5781565389729126E-013
  0.47510000000000008         -1.6088655503076285E-013
  0.47620000000000007         -1.6349554892463669E-013
  0.47730000000000006         -1.6560465801077665E-013
  0.47840000000000005         -1.6742371074115550E-013