 -0.12000000000000000          0.0000000000000000     
 -0.11889999999999999         -2.7506462861230850E-016
 -0.11780000000000000         -8.0181647348256168E-016
 -0.11670000000000000         -1.4878337942824295E-015
 -0.11559999999999999         -2.2181180503573337E-015
 -0.11449999999999999         -2.9062664302635068E-015
 -0.11340000000000000         -3.5235252172625473E-015
 -0.11230000000000000         -4.0932452783435026E-015
 -0.11119999999999999         -4.6605646296844187E-015
 -0.11009999999999999         -5.2619257299819783E-015
 -0.10900000000000000         -5.9150533059349074E-015
 -0.10790000000000000         -6.6302284775302232E-015
 -0.10679999999999999         -7.4244842937851490E-015
 -0.10569999999999999         -8.3185854705163570E-015
 -0.10460000000000000         -9.3146011477921757E-015
 -0.10349999999999999         -1.0373775684290123E-014
 -0.10239999999999999         -1.1419439772514821E-014
 -0.10130000000000000         -1.2370971546911176E-014
 -0.10020000000000000         -1.3187105819928015E-014
  -9.9099999999999994E-002    -1.3885110100499795E-014
  -9.7999999999999990E-002    -1.4519156557647962E-014
  -9.6899999999999986E-002    -1.5134167123599340E-014
  -9.5799999999999996E-002    -1.5732418010800626E-014
  -9.4699999999999993E-002    -1.6279835287222819E-014
  -9.3599999999999989E-002    -1.6744802590468190E-014
  -9.2499999999999999E-002    -1.7133692430218677E-014
  -9.1399999999999995E-002    -1.7489817318582806E-014
  -9.0299999999999991E-002    -1.7854858002849009E-014
  -8.9200000000000002E-002    -1.8226161323484031E-014
  -8.8099999999999984E-002    -1.8548879898732582E-014
  -8.6999999999999994E-002    -1.8753028972030453E-014
  -8.5899999999999990E-002    -1.8806738658965909E-014
  -8.4799999999999986E-002    -1.8742163661957933E-014
  -8.3699999999999997E-002    -1.8633031212655836E-014
  -8.2599999999999993E-002    -1.8543285364439155E-014
  -8.1499999999999989E-002    -1.8489854756282480E-014
  -8.0399999999999999E-002    -1.8449122291293210E-014
  -7.9299999999999995E-002    -1.8398492762581890E-014
  -7.8199999999999992E-002    -1.8354893625162941E-014
  -7.7100000000000002E-002    -1.8376104072513222E-014
  -7.5999999999999984E-002    -1.8523897698822141E-014
  -7.4899999999999994E-002    -1.8820688221346691E-014
  -7.3799999999999991E-002    -1.9235950710344994E-014
  -7.2699999999999987E-002    -1.9712827608666297E-014
  -7.1599999999999997E-002    -2.0212342160323002E-014
  -7.0499999999999993E-002    -2.0740576030138146E-014
  -6.9399999999999989E-002    -2.1341004855256604E-014
  -6.8300000000000000E-002    -2.2063309056372007E-014
  -6.7199999999999996E-002    -2.2935938947724671E-014
  -6.6099999999999992E-002    -2.3961432552930655E-014
  -6.5000000000000002E-002    -2.5131100013483662E-014
  -6.3899999999999985E-002    -2.6440357443111382E-014
  -6.2799999999999995E-002    -2.7889521564919513E-014
  -6.1699999999999991E-002    -2.9471249098395582E-014
  -6.0599999999999994E-002    -3.1158759797714196E-014
  -5.9499999999999990E-002    -3.2907462232669335E-014
  -5.8399999999999994E-002    -3.4670011779815066E-014
  -5.7299999999999990E-002    -3.6413500442642337E-014
  -5.6199999999999986E-002    -3.8126737581788134E-014
  -5.5099999999999996E-002    -3.9814070645146284E-014
  -5.3999999999999992E-002    -4.1481249905975832E-014
  -5.2899999999999989E-002    -4.3121823418212176E-014
  -5.1799999999999985E-002    -4.4709719568571617E-014
  -5.0699999999999995E-002    -4.6199863900702860E-014
  -4.9599999999999991E-002    -4.7536802514846656E-014
  -4.8499999999999988E-002    -4.8669757956054145E-014
  -4.7399999999999998E-002    -4.9569388446592448E-014
  -4.6299999999999994E-002    -5.0238102009902328E-014
  -4.5199999999999990E-002    -5.0706964030323084E-014
  -4.4099999999999986E-002    -5.1019698227328462E-014
  -4.2999999999999997E-002    -5.1213472149121782E-014
  -4.1899999999999993E-002    -5.1308345661843255E-014
  -4.0799999999999989E-002    -5.1309520242933738E-014
  -3.9699999999999985E-002    -5.1214716515413146E-014
  -3.8599999999999995E-002    -5.1015243071566766E-014
  -3.7499999999999992E-002    -5.0687921187810734E-014
  -3.6399999999999988E-002    -5.0188631495793663E-014
  -3.5299999999999984E-002    -4.9461983165183492E-014
  -3.4199999999999994E-002    -4.8468310416811587E-014
  -3.3099999999999991E-002    -4.7208883975759188E-014
  -3.1999999999999987E-002    -4.5722620602624157E-014
  -3.0899999999999997E-002    -4.4044755089221301E-014
  -2.9799999999999993E-002    -4.2150222040533295E-014
  -2.8699999999999989E-002    -3.9925528708783386E-014
  -2.7599999999999986E-002    -3.7201409541983749E-014
  -2.6499999999999996E-002    -3.3838103070224604E-014
  -2.5399999999999992E-002    -2.9814431134311917E-014
  -2.4299999999999988E-002    -2.5262812882723340E-014
  -2.3199999999999985E-002    -2.0424150190153454E-014
  -2.2099999999999995E-002    -1.5547173048801657E-014
  -2.0999999999999991E-002    -1.0790174938127486E-014
  -1.9899999999999987E-002    -6.1775025276749731E-015
  -1.8799999999999983E-002    -1.6260128917044429E-015
  -1.7699999999999994E-002     2.9828158022580175E-015
  -1.6599999999999990E-002     7.7264889611053314E-015
  -1.5499999999999986E-002     1.2592688024052017E-014
  -1.4399999999999996E-002     1.7469540977442959E-014
  -1.3299999999999992E-002     2.2172035954103446E-014
  -1.2199999999999989E-002     2.6496540070469108E-014
  -1.1099999999999985E-002     3.0290812397932265E-014
  -9.9999999999999950E-003     3.3516418891671803E-014
  -8.8999999999999913E-003     3.6271033623478542E-014
  -7.7999999999999875E-003     3.8745283827975301E-014
  -6.6999999999999837E-003     4.1119455115475071E-014
  -5.5999999999999939E-003     4.3445457927959529E-014
  -4.4999999999999901E-003     4.5580539023711124E-014
  -3.3999999999999864E-003     4.7219969645119391E-014
  -2.2999999999999826E-003     4.8022694260556599E-014
  -1.1999999999999927E-003     4.7768241200658070E-014
  -9.9999999999988987E-005     4.6461710321244425E-014
   1.0000000000000148E-003     4.4330671613652309E-014
   2.1000000000000185E-003     4.1716300752546250E-014
   3.2000000000000084E-003     3.8915340441616546E-014
   4.3000000000000121E-003     3.6049786245932438E-014
   5.4000000000000159E-003     3.3021733500743563E-014
   6.5000000000000058E-003     2.9567316598379728E-014
   7.6000000000000234E-003     2.5380765367450544E-014
   8.7000000000000133E-003     2.0254499574646809E-014
   9.8000000000000032E-003     1.4179150303036733E-014
   1.0900000000000021E-002     7.3652044553025998E-015
   1.2000000000000011E-002     1.7813496600718224E-016
   1.3100000000000001E-002    -6.9877075919482519E-015
   1.4200000000000018E-002    -1.3846453427670447E-014
   1.5300000000000008E-002    -2.0314111304976086E-014
   1.6400000000000026E-002    -2.6521006344368405E-014
   1.7500000000000016E-002    -3.2740279573489144E-014
   1.8600000000000005E-002    -3.9262981324155992E-014
   1.9700000000000023E-002    -4.6268179700318596E-014
   2.0800000000000013E-002    -5.3733624085281019E-014
   2.1900000000000003E-002    -6.1415222989871594E-014
   2.3000000000000020E-002    -6.8901635054218149E-014
   2.4100000000000010E-002    -7.5729926940107007E-014
   2.5200000000000000E-002    -8.1529887519482320E-014
   2.6300000000000018E-002    -8.6150285059636266E-014
   2.7400000000000008E-002    -8.9716636349991780E-014
   2.8500000000000025E-002    -9.2587065294904521E-014
   2.9600000000000015E-002    -9.5211212845451516E-014
   3.0700000000000005E-002    -9.7942837863146293E-014
   3.1800000000000023E-002    -1.0088468504901562E-013
   3.2900000000000013E-002    -1.0383501398730605E-013
   3.4000000000000002E-002    -1.0636007777489881E-013
   3.5100000000000020E-002    -1.0795992132810116E-013
   3.6200000000000010E-002    -1.0825566162686500E-013
   3.7300000000000028E-002    -1.0712392146190971E-013
   3.8400000000000017E-002    -1.0473283122496127E-013
   3.9500000000000007E-002    -1.0147527243690898E-013
   4.0600000000000025E-002    -9.7829201281088379E-014
   4.1700000000000015E-002    -9.4194023549708472E-014
   4.2800000000000005E-002    -9.0757066759189266E-014
   4.3900000000000022E-002    -8.7436677544820236E-014
   4.5000000000000012E-002    -8.3927090146987703E-014
   4.6100000000000002E-002    -7.9834413011731377E-014
   4.7200000000000020E-002    -7.4853160631964843E-014
   4.8300000000000010E-002    -6.8909130493396346E-014
   4.9400000000000027E-002    -6.2204649497393264E-014
   5.0500000000000017E-002    -5.5147247433732728E-014
   5.1600000000000007E-002    -4.8199130382123160E-014
   5.2700000000000025E-002    -4.1720791365279247E-014
   5.3800000000000014E-002    -3.5876568749084456E-014
   5.4900000000000004E-002    -3.0629898191256534E-014
   5.6000000000000022E-002    -2.5808968190947394E-014
   5.7100000000000012E-002    -2.1197624300348461E-014
   5.8200000000000002E-002    -1.6611715795226623E-014
   5.9300000000000019E-002    -1.1944437116869477E-014
   6.0400000000000009E-002    -7.1846593260384522E-015
   6.1500000000000027E-002    -2.4172955295418750E-015
   6.2600000000000017E-002     2.1918885395877745E-015
   6.3700000000000007E-002     6.4300310081850771E-015
   6.4800000000000024E-002     1.0088396026327557E-014
   6.5900000000000014E-002     1.3019223663590221E-014
   6.7000000000000004E-002     1.5178528048877769E-014
   6.8100000000000022E-002     1.6637543922460031E-014
   6.9200000000000012E-002     1.7556833371013876E-014
   7.0300000000000029E-002     1.8130683014048749E-014
   7.1400000000000019E-002     1.8519468921792346E-014
   7.2500000000000009E-002     1.8792392490926102E-014
   7.3600000000000027E-002     1.8902730034881035E-014
   7.4700000000000016E-002     1.8711120283406462E-014
   7.5800000000000006E-002     1.8057385518223136E-014
   7.6900000000000024E-002     1.6859531515843734E-014
   7.8000000000000014E-002     1.5199224472375046E-014
   7.9100000000000004E-002     1.3348887305679426E-014
   8.0200000000000021E-002     1.1714096552723656E-014
   8.1300000000000011E-002     1.0700238863974039E-014
   8.2400000000000029E-002     1.0547357974057209E-014
   8.3500000000000019E-002     1.1193874753385858E-014
   8.4600000000000009E-002     1.2221554516060995E-014
   8.5700000000000026E-002     1.2907555023634049E-014
   8.6800000000000016E-002     1.2378405939175091E-014
   8.7900000000000006E-002     9.8355529198369737E-015
   8.9000000000000024E-002     4.8051271634830368E-015
   9.0100000000000013E-002    -2.6456428497322239E-015
   9.1200000000000003E-002    -1.1784952144269957E-014
   9.2300000000000021E-002    -2.1233588147127137E-014
   9.3400000000000011E-002    -2.9141033855625510E-014
   9.4500000000000028E-002    -3.3497424361704368E-014
   9.5600000000000018E-002    -3.2520415982859767E-014
   9.6700000000000008E-002    -2.5038131251334305E-014
   9.7800000000000026E-002    -1.0797459020742882E-014
   9.8900000000000016E-002     9.3473732237270622E-015
  0.10000000000000001          3.3384241979653370E-014
  0.10110000000000002          5.8232846455335589E-014
  0.10220000000000001          7.9972341885739361E-014
  0.10330000000000003          9.4202295709834589E-014
  0.10440000000000002          9.6525292068696906E-014
  0.10550000000000001          8.3126163901868800E-014
  0.10660000000000003          5.1409537183700424E-014
  0.10770000000000002          6.4814028727500737E-016
  0.10880000000000001         -6.7413752913092342E-014
  0.10990000000000003         -1.4807001332420814E-013
  0.11100000000000002         -2.3336509872646956E-013
  0.11210000000000001         -3.1212149936867615E-013
  0.11320000000000002         -3.7040346284262458E-013
  0.11430000000000001         -3.9251985978106439E-013
  0.11540000000000003         -3.6261761383299803E-013
  0.11650000000000002         -2.6683858406460723E-013
  0.11760000000000001         -9.5921022135429219E-014
  0.11870000000000003          1.5196845922263130E-013
  0.11980000000000002          4.6847425078345954E-013
  0.12090000000000001          8.3273641564772313E-013
  0.12200000000000003          1.2099391993695041E-012
  0.12310000000000001          1.5511431138604225E-012
  0.12420000000000003          1.7947568864432030E-012
  0.12530000000000002          1.8698745760248479E-012
  0.12640000000000001          1.7014987649714564E-012
  0.12750000000000003          1.2174270969357138E-012
  0.12860000000000002          3.5632073486675389E-013
  0.12970000000000001         -9.2374585284986885E-013
  0.13080000000000003         -2.6370900868716425E-012
  0.13190000000000002         -4.7634685485298848E-012
  0.13300000000000001         -7.2431603642986192E-012
  0.13410000000000000         -9.9747108630022332E-012
  0.13520000000000004         -1.2815722938966503E-011
  0.13630000000000003         -1.5586764309788356E-011
  0.13740000000000002         -1.8078163735345137E-011
  0.13850000000000001         -2.0059149402446900E-011
  0.13960000000000000         -2.1288518109694420E-011
  0.14070000000000005         -2.1525812810814109E-011
  0.14180000000000004         -2.0541934467641295E-011
  0.14290000000000003         -1.8128136477476369E-011
  0.14400000000000002         -1.4102643254344158E-011
  0.14510000000000001         -8.3143547597890330E-012
  0.14620000000000000         -6.4352703428102139E-013
  0.14730000000000004          9.0003362147211652E-012
  0.14840000000000003          2.0682955758186705E-011
  0.14950000000000002          3.4451275599950797E-011
  0.15060000000000001          5.0340216912742565E-011
  0.15170000000000000          6.8379352931055603E-011
  0.15280000000000005          8.8598610018600470E-011
  0.15390000000000004          1.1103240435566271E-010
  0.15500000000000003          1.3572195686031725E-010
  0.15610000000000002          1.6271551595763662E-010
  0.15720000000000001          1.9206679122252118E-010
  0.15830000000000000          2.2383179295588391E-010
  0.15940000000000004          2.5806507222401516E-010
  0.16050000000000003          2.9481540886975969E-010
  0.16160000000000002          3.3412219633184396E-010
  0.16270000000000001          3.7601265060648536E-010
  0.16380000000000000          4.2050033320117539E-010
  0.16490000000000005          4.6758489839398382E-010
  0.16600000000000004          5.1725306798657681E-010
  0.16710000000000003          5.6948048607796148E-010
  0.16820000000000002          6.2423388188111732E-010
  0.16930000000000001          6.8147355412633498E-010
  0.17040000000000000          7.4115542018952892E-010
  0.17150000000000004          8.0323267892898699E-010
  0.17260000000000003          8.6765667039640680E-010
  0.17370000000000002          9.3437643159143021E-010
  0.17480000000000001          1.0033373520030569E-009
  0.17590000000000000          1.0744788197572265E-009
  0.17700000000000005          1.1477313289448869E-009
  0.17810000000000004          1.2230139411067539E-009
  0.17920000000000003          1.3002319749160360E-009
  0.18030000000000002          1.3792771281851842E-009
  0.18140000000000001          1.4600275694754350E-009
  0.18250000000000000          1.5423502369334309E-009
  0.18360000000000004          1.6261048281163147E-009
  0.18470000000000003          1.7111471283005666E-009
  0.18580000000000002          1.7973337029239213E-009
  0.18690000000000001          1.8845254255515492E-009
  0.18800000000000000          1.9725899565101663E-009
  0.18910000000000005          2.0614023595819070E-009
  0.19020000000000004          2.1508448488719476E-009
  0.19130000000000003          2.2408044882803137E-009
  0.19240000000000002          2.3311669668036433E-009
  0.19350000000000001          2.4218128627354696E-009
  0.19460000000000005          2.5126124455911224E-009
  0.19570000000000004          2.6034218276815585E-009
  0.19680000000000003          2.6940815782433152E-009
  0.19790000000000002          2.7844201195873435E-009
  0.19900000000000001          2.8742575852446629E-009
  0.20010000000000000          2.9634128318036957E-009
  0.20120000000000005          3.0517120547352660E-009
  0.20230000000000004          3.1389972032289086E-009
  0.20340000000000003          3.2251342499939989E-009
  0.20450000000000002          3.3100200100038786E-009
  0.20560000000000000          3.3935856638960477E-009
  0.20670000000000005          3.4757971793955040E-009
  0.20780000000000004          3.5566514476115066E-009
  0.20890000000000003          3.6361652824859941E-009
  0.21000000000000002          3.7143620639733423E-009
  0.21110000000000001          3.7912519597513005E-009
  0.21220000000000000          3.8668124405784424E-009
  0.21330000000000005          3.9409698784805794E-009
  0.21440000000000003          4.0135858730234142E-009
  0.21550000000000002          4.0844498667703117E-009
  0.21660000000000001          4.1532794545566036E-009
  0.21770000000000000          4.2197277738126339E-009
  0.21880000000000005          4.2833977000595185E-009
  0.21990000000000004          4.3438609427083891E-009
  0.22100000000000003          4.4006841499762006E-009
  0.22210000000000002          4.4534538834963573E-009
  0.22320000000000001          4.5018074632635113E-009
  0.22430000000000000          4.5454569343083147E-009
  0.22540000000000004          4.5842163074874538E-009
  0.22650000000000003          4.6180157716712185E-009
  0.22760000000000002          4.6469123029395397E-009
  0.22870000000000001          4.6710858065209801E-009
  0.22980000000000000          4.6908278086368609E-009
  0.23090000000000005          4.7065217657835914E-009
  0.23200000000000004          4.7186188393334688E-009
  0.23310000000000003          4.7276107962486427E-009
  0.23420000000000002          4.7340035719043389E-009
  0.23530000000000001          4.7382922643315060E-009
  0.23640000000000000          4.7409390754848355E-009
  0.23750000000000004          4.7423558151081632E-009
  0.23860000000000003          4.7428906371165029E-009
  0.23970000000000002          4.7428251774514084E-009
  0.24080000000000001          4.7423764861643939E-009
  0.24190000000000000          4.7417080094212529E-009
  0.24300000000000005          4.7409474934831972E-009
  0.24410000000000004          4.7402029276343985E-009
  0.24520000000000003          4.7395795426436733E-009
  0.24630000000000002          4.7391927031203384E-009
  0.24740000000000001          4.7391734037078852E-009
  0.24850000000000005          4.7396681140554520E-009
  0.24960000000000004          4.7408372018939023E-009
  0.25070000000000003          4.7428473919547669E-009
  0.25180000000000002          4.7458630250966268E-009
  0.25290000000000001          4.7500354505538074E-009
  0.25400000000000000          4.7554955665875242E-009
  0.25510000000000005          4.7623411900105181E-009
  0.25620000000000004          4.7706322371504138E-009
  0.25730000000000003          4.7803892538946265E-009
  0.25840000000000002          4.7915959631102579E-009
  0.25950000000000001          4.8042066700227820E-009
  0.26060000000000005          4.8181612664961716E-009
  0.26170000000000004          4.8333951728661114E-009
  0.26280000000000003          4.8498520030220857E-009
  0.26390000000000002          4.8674903322114559E-009
  0.26500000000000001          4.8862869578928850E-009
  0.26610000000000000          4.9062396242685814E-009
  0.26720000000000005          4.9273634713566529E-009
  0.26830000000000004          4.9496869606512093E-009
  0.26940000000000003          4.9732428321999638E-009
  0.27050000000000002          4.9980558932929408E-009
  0.27160000000000001          5.0241292872297962E-009
  0.27270000000000005          5.0514268187103147E-009
  0.27380000000000004          5.0798650080893605E-009
  0.27490000000000003          5.1093105845907859E-009
  0.27600000000000002          5.1395937057912747E-009
  0.27710000000000001          5.1705265772571373E-009
  0.27820000000000000          5.2019325286376968E-009
  0.27930000000000005          5.2336694232555208E-009
  0.28040000000000004          5.2656462297858718E-009
  0.28150000000000003          5.2978278736856380E-009
  0.28260000000000002          5.3302259830580354E-009
  0.28370000000000001          5.3628857953845859E-009
  0.28480000000000005          5.3958673406318122E-009
  0.28590000000000004          5.4292317278662123E-009
  0.28700000000000003          5.4630306344370274E-009
  0.28810000000000002          5.4972998519216249E-009
  0.28920000000000001          5.5320524981398649E-009
  0.29030000000000000          5.5672717474780554E-009
  0.29140000000000005          5.6029054181761196E-009
  0.29250000000000004          5.6388636552929257E-009
  0.29360000000000003          5.6750245596080799E-009
  0.29470000000000002          5.7112507036165059E-009
  0.29580000000000001          5.7474101806884977E-009
  0.29690000000000005          5.7834009553299962E-009
  0.29800000000000004          5.8191722469375145E-009
  0.29910000000000003          5.8547353598507956E-009
  0.30020000000000002          5.8901652106252788E-009
  0.30130000000000001          5.9255914316271077E-009
  0.30240000000000000          5.9611811893531899E-009
  0.30350000000000005          5.9971209862556765E-009
  0.30460000000000004          6.0335975694871985E-009
  0.30570000000000003          6.0707822367085760E-009
  0.30680000000000002          6.1088192356374626E-009
  0.30790000000000001          6.1478189255900193E-009
  0.30900000000000005          6.1878586983975660E-009
  0.31010000000000004          6.2289900500834328E-009
  0.31120000000000003          6.2712522463423882E-009
  0.31230000000000002          6.3146892960026092E-009
  0.31340000000000001          6.3593658145965482E-009
  0.31450000000000006          6.4053747743691474E-009
  0.31560000000000005          6.4528375868315041E-009
  0.31670000000000004          6.5018950317310947E-009
  0.31780000000000003          6.5526948841035858E-009
  0.31890000000000002          6.6053765029605550E-009
  0.32000000000000001          6.6600614304832114E-009
  0.32110000000000005          6.7168463104652630E-009
  0.32220000000000004          6.7757984030121517E-009
  0.32330000000000003          6.8369504871348312E-009
  0.32440000000000002          6.9002872530499501E-009
  0.32550000000000001          6.9657368285119105E-009
  0.32660000000000006          7.0331578067024467E-009
  0.32770000000000005          7.1023409349414524E-009
  0.32880000000000004          7.1730174962734229E-009
  0.32990000000000003          7.2448861644090650E-009
  0.33100000000000002          7.3176383178696244E-009
  0.33210000000000001          7.3909927166754962E-009
  0.33320000000000005          7.4647132651456801E-009
  0.33430000000000004          7.5386167649754217E-009
  0.33540000000000003          7.6125644797583099E-009
  0.33650000000000002          7.6864444093634094E-009
  0.33760000000000001          7.7601538259980012E-009
  0.33870000000000006          7.8335787295240552E-009
  0.33980000000000005          7.9065868513669614E-009
  0.34090000000000004          7.9790189902405982E-009
  0.34200000000000003          8.0506924153903421E-009
  0.34310000000000002          8.1213969871760829E-009
  0.34420000000000001          8.1909016209216679E-009
  0.34530000000000005          8.2589637318109623E-009
  0.34640000000000004          8.3253375478877374E-009
  0.34750000000000003          8.3897901364679086E-009
  0.34860000000000002          8.4521145436808028E-009
  0.34970000000000001          8.5121322677779580E-009
  0.35080000000000006          8.5696998884723335E-009
  0.35190000000000005          8.6246989119481552E-009
  0.35300000000000004          8.6770331969209057E-009
  0.35410000000000003          8.7266254152978310E-009
  0.35520000000000002          8.7734197683495783E-009
  0.35630000000000001          8.8173887319238614E-009
  0.35740000000000005          8.8585341713954249E-009
  0.35850000000000004          8.8968820026434879E-009
  0.35960000000000003          8.9324755280304804E-009
  0.36070000000000002          8.9653535429281572E-009
  0.36180000000000001          8.9955416223733374E-009
  0.36290000000000006          9.0230429738605447E-009
  0.36400000000000005          9.0478475640153376E-009
  0.36510000000000004          9.0699501613510878E-009
  0.36620000000000003          9.0893692583404081E-009
  0.36730000000000002          9.1061599699550138E-009
  0.36840000000000006          9.1204137678593823E-009
  0.36950000000000005          9.1322459283271997E-009
  0.37060000000000004          9.1417648011510975E-009
  0.37170000000000003          9.1490508226975508E-009
  0.37280000000000002          9.1541369450221448E-009
  0.37390000000000001          9.1570041159625892E-009
  0.37500000000000006          9.1575934034231971E-009
  0.37610000000000005          9.1558242692560786E-009
  0.37720000000000004          9.1516159740460054E-009
  0.37830000000000003          9.1449052227120500E-009
  0.37940000000000002          9.1356607600816460E-009
  0.38050000000000006          9.1238849302031708E-009
  0.38160000000000005          9.1096132641049599E-009
  0.38270000000000004          9.0929094093025377E-009
  0.38380000000000003          9.0738558270593520E-009
  0.38490000000000002          9.0525363963416593E-009
  0.38600000000000001          9.0290204237989780E-009
  0.38710000000000000          9.0033437871680613E-009
  0.38819999999999999          8.9754969721117237E-009
  0.38930000000000009          8.9454215145218906E-009
  0.39040000000000008          8.9130202521697204E-009
  0.39150000000000007          8.8781677076301512E-009
  0.39260000000000006          8.8407299220159839E-009
  0.39370000000000005          8.8005756285647626E-009
  0.39480000000000004          8.7575928840788319E-009
  0.39590000000000003          8.7117018952200738E-009
  0.39700000000000002          8.6628786060684341E-009
  0.39810000000000001          8.6111800774381753E-009
  0.39920000000000000          8.5567767550429009E-009
  0.40029999999999999          8.4999733555853772E-009
  0.40140000000000009          8.4412103231131520E-009
  0.40250000000000008          8.3810426848381362E-009
  0.40360000000000007          8.3200999670746959E-009
  0.40470000000000006          8.2590233361300701E-009
  0.40580000000000005          8.1984132064929255E-009
  0.40690000000000004          8.1387749641770646E-009
  0.40800000000000003          8.0804989040326647E-009
  0.40910000000000002          8.0238454161073886E-009
  0.41020000000000001          7.9689470174593952E-009
  0.41130000000000000          7.9158175509933580E-009
  0.41239999999999999          7.8643547554632830E-009
  0.41350000000000009          7.8143522710419134E-009
  0.41460000000000008          7.7655097415035200E-009
  0.41570000000000007          7.7174526856717272E-009
  0.41680000000000006          7.6697661609937441E-009
  0.41790000000000005          7.6220315304141710E-009
  0.41900000000000004          7.5738663889688808E-009
  0.42010000000000003          7.5249599126545912E-009
  0.42120000000000002          7.4750889232225921E-009
  0.42230000000000001          7.4241250444316610E-009
  0.42340000000000000          7.3720230174965976E-009
  0.42449999999999999          7.3188052195158145E-009
  0.42560000000000009          7.2645355870568428E-009
  0.42670000000000008          7.2092951772063815E-009
  0.42780000000000007          7.1531557303144551E-009
  0.42890000000000006          7.0961563971607941E-009
  0.43000000000000005          7.0382874083549656E-009
  0.43110000000000004          6.9794845133986994E-009
  0.43220000000000003          6.9196374267800578E-009
  0.43330000000000002          6.8586103844369403E-009
  0.43440000000000001          6.7962751013617570E-009
  0.43550000000000000          6.7325360469023889E-009
  0.43659999999999999          6.6673493713853220E-009
  0.43770000000000009          6.6007271026665264E-009
  0.43880000000000008          6.5327288246581532E-009
  0.43990000000000007          6.4634492599342934E-009
  0.44100000000000006          6.3930107421408055E-009
  0.44210000000000005          6.3215616646948499E-009
  0.44320000000000004          6.2492824465749661E-009
  0.44430000000000003          6.1763880912503985E-009
  0.44540000000000002          6.1031154755243640E-009
  0.44650000000000001          6.0297052487240023E-009
  0.44760000000000000          5.9563698212111337E-009
  0.44869999999999999          5.8832679142240835E-009
  0.44980000000000009          5.8104948758423525E-009
  0.45090000000000008          5.7380958165577949E-009
  0.45200000000000007          5.6660956687690920E-009
  0.45310000000000006          5.5945362437670022E-009
  0.45420000000000005          5.5235081539895739E-009
  0.45530000000000004          5.4531658308750871E-009
  0.45640000000000003          5.3837209397768310E-009
  0.45750000000000002          5.3154230923110046E-009
  0.45860000000000001          5.2485357184358760E-009
  0.45970000000000000          5.1833120769164987E-009
  0.46079999999999999          5.1199834401182525E-009
  0.46190000000000009          5.0587493993552577E-009
  0.46300000000000008          4.9997776422769698E-009
  0.46410000000000007          4.9432040821908268E-009
  0.46520000000000006          4.8891349005738325E-009
  0.46630000000000005          4.8376520216064133E-009
  0.46740000000000004          4.7888180917992576E-009
  0.46850000000000003          4.7426865645692678E-009
  0.46960000000000002          4.6993072527043172E-009
  0.47070000000000001          4.6587349347839428E-009
  0.47180000000000000          4.6210326061630259E-009
  0.47289999999999999          4.5862690129796204E-009
  0.47400000000000009          4.5545169732005641E-009
  0.47510000000000008          4.5258500035079775E-009
  0.47620000000000007          4.5003376432338825E-009
  0.47730000000000006          4.4780440454492456E-009
  0.47840000000000005          4.4590232548616113E-009