 -0.12000000000000000          0.0000000000000000     
 -0.11889999999999999         -2.5138838577731216E-015
 -0.11780000000000000         -5.9068309271580643E-015
 -0.11670000000000000         -8.1779917282376089E-015
 -0.11559999999999999         -8.5324636961650560E-015
 -0.11449999999999999         -7.9092793042791554E-015
 -0.11340000000000000         -8.0596637132768902E-015
 -0.11230000000000000         -9.9838776257895335E-015
 -0.11119999999999999         -1.3046889124267137E-014
 -0.11009999999999999         -1.5490507991738202E-014
 -0.10900000000000000         -1.5877387274171673E-014
 -0.10790000000000000         -1.4245252083658304E-014
 -0.10679999999999999         -1.2032279993208813E-014
 -0.10569999999999999         -1.0880290557952772E-014
 -0.10460000000000000         -1.1333312548996806E-014
 -0.10349999999999999         -1.2482713179533944E-014
 -0.10239999999999999         -1.2787435915452421E-014
 -0.10130000000000000         -1.1341116629461086E-014
 -0.10020000000000000         -8.5508014300822417E-015
  -9.9099999999999994E-002    -5.7349246136377505E-015
  -9.7999999999999990E-002    -4.0396263507151217E-015
  -9.6899999999999986E-002    -3.5737854848850181E-015
  -9.5799999999999996E-002    -3.4141110581769097E-015
  -9.4699999999999993E-002    -2.4003037302254155E-015
  -9.3599999999999989E-002    -4.4200190864259539E-017
  -9.2499999999999999E-002     3.1413343725195347E-015
  -9.1399999999999995E-002     6.0821543340299831E-015
  -9.0299999999999991E-002     7.9529294567059406E-015
  -8.9200000000000002E-002     8.7343523652057531E-015
  -8.8099999999999984E-002     9.1446985200923748E-015
  -8.6999999999999994E-002     1.0054981362268079E-014
  -8.5899999999999990E-002     1.1843796983068186E-014
  -8.4799999999999986E-002     1.4144180694561178E-014
  -8.3699999999999997E-002     1.6130029779409949E-014
  -8.2599999999999993E-002     1.7116359671329771E-014
  -8.1499999999999989E-002     1.7048250239297860E-014
  -8.0399999999999999E-002     1.6539997335289492E-014
  -7.9299999999999995E-002     1.6434515713173621E-014
  -7.8199999999999992E-002     1.7186538564928717E-014
  -7.7100000000000002E-002     1.8511208927856611E-014
  -7.5999999999999984E-002     1.9571366704425635E-014
  -7.4899999999999994E-002     1.9593301957533873E-014
  -7.3799999999999991E-002     1.8465032631251117E-014
  -7.2699999999999987E-002     1.6849266031523568E-014
  -7.1599999999999997E-002     1.5690035481826990E-014
  -7.0499999999999993E-002     1.5469657874501315E-014
  -6.9399999999999989E-002     1.5802372974028612E-014
  -6.8300000000000000E-002     1.5716319769863227E-014
  -6.7199999999999996E-002     1.4429591542731234E-014
  -6.6099999999999992E-002     1.2003873476905240E-014
  -6.5000000000000002E-002     9.3285487798511348E-015
  -6.3899999999999985E-002     7.4234441426571926E-015
  -6.2799999999999995E-002     6.6201005510231111E-015
  -6.1699999999999991E-002     6.3021522677506709E-015
  -6.0599999999999994E-002     5.4320524256274213E-015
  -5.9499999999999990E-002     3.4320845898106812E-015
  -5.8399999999999994E-002     6.8204757600725680E-016
  -5.7299999999999990E-002    -1.7859457932897868E-015
  -5.6199999999999986E-002    -3.1370163433538987E-015
  -5.5099999999999996E-002    -3.4092404514309768E-015
  -5.3999999999999992E-002    -3.4505873042096805E-015
  -5.2899999999999989E-002    -4.1841156306181536E-015
  -5.1799999999999985E-002    -5.8332467516393449E-015
  -5.0699999999999995E-002    -7.7549388744383231E-015
  -4.9599999999999991E-002    -8.9953755966066082E-015
  -4.8499999999999988E-002    -9.0719792087192998E-015
  -4.7399999999999998E-002    -8.3203704784157029E-015
  -4.6299999999999994E-002    -7.5461877499956661E-015
  -4.5199999999999990E-002    -7.3192592635331264E-015
  -4.4099999999999986E-002    -7.5224238430313429E-015
  -4.2999999999999997E-002    -7.5071010765504413E-015
  -4.1899999999999993E-002    -6.6721834364629462E-015
  -4.0799999999999989E-002    -4.9481085785594155E-015
  -3.9699999999999985E-002    -2.7999941753741619E-015
  -3.8599999999999995E-002    -8.0534132808185655E-016
  -3.7499999999999992E-002     7.9402276527838095E-016
  -3.6399999999999988E-002     2.1999032388555848E-015
  -3.5299999999999984E-002     3.7950703927472873E-015
  -3.4199999999999994E-002     5.7895498793920079E-015
  -3.3099999999999991E-002     8.0792698236803257E-015
  -3.1999999999999987E-002     1.0383936088038633E-014
  -3.0899999999999997E-002     1.2484500491112251E-014
  -2.9799999999999993E-002     1.4341729348581828E-014
  -2.8699999999999989E-002     1.6038308668439656E-014
  -2.7599999999999986E-002     1.7657537255357449E-014
  -2.6499999999999996E-002     1.9229028211205320E-014
  -2.5399999999999992E-002     2.0754665539975122E-014
  -2.4299999999999988E-002     2.2229880067460270E-014
  -2.3199999999999985E-002     2.3605540123672625E-014
  -2.2099999999999995E-002     2.4743926011194773E-014
  -2.0999999999999991E-002     2.5464538081627218E-014
  -1.9899999999999987E-002     2.5684443530064716E-014
  -1.8799999999999983E-002     2.5526753788653432E-014
  -1.7699999999999994E-002     2.5258080880236134E-014
  -1.6599999999999990E-002     2.5066488527553181E-014
  -1.5499999999999986E-002     2.4868949103741424E-014
  -1.4399999999999996E-002     2.4349984845226397E-014
  -1.3299999999999992E-002     2.3236288846313702E-014
  -1.2199999999999989E-002     2.1576521901450355E-014
  -1.1099999999999985E-002     1.9756290033286678E-014
  -9.9999999999999950E-003     1.8200831084172793E-014
  -8.8999999999999913E-003     1.7012461604124768E-014
  -7.7999999999999875E-003     1.5876025904528898E-014
  -6.6999999999999837E-003     1.4341084845287273E-014
  -5.5999999999999939E-003     1.2244714812093705E-014
  -4.4999999999999901E-003     9.8931361948855035E-015
  -3.3999999999999864E-003     7.8237798102115200E-015
  -2.2999999999999826E-003     6.3491272616386751E-015
  -1.1999999999999927E-003     5.2923392340417490E-015
  -9.9999999999988987E-005     4.1612654717764239E-015
   1.0000000000000148E-003     2.6117585391253591E-015
   2.1000000000000185E-003     7.8360618430893420E-016
   3.2000000000000084E-003    -7.9739281237484516E-016
   4.3000000000000121E-003    -1.6654231805832512E-015
   5.4000000000000159E-003    -1.8063665316436312E-015
   6.5000000000000058E-003    -1.6428405433410360E-015
   7.6000000000000234E-003    -1.6310500452550089E-015
   8.7000000000000133E-003    -1.8390963252311837E-015
   9.8000000000000032E-003    -1.8870126636492557E-015
   1.0900000000000021E-002    -1.2934564595073368E-015
   1.2000000000000011E-002     9.5346218387451880E-017
   1.3100000000000001E-002     1.9841721800668154E-015
   1.4200000000000018E-002     3.9135232692134204E-015
   1.5300000000000008E-002     5.6771813748985504E-015
   1.6400000000000026E-002     7.4891134286292107E-015
   1.7500000000000016E-002     9.7602507252473180E-015
   1.8600000000000005E-002     1.2707646061309925E-014
   1.9700000000000023E-002     1.6161649442625307E-014
   2.0800000000000013E-002     1.9737779553589832E-014
   2.1900000000000003E-002     2.3196175699766998E-014
   2.3000000000000020E-002     2.6646564803456286E-014
   2.4100000000000010E-002     3.0415708246414734E-014
   2.5200000000000000E-002     3.4716078577690290E-014
   2.6300000000000018E-002     3.9432804769197754E-014
   2.7400000000000008E-002     4.4221069505658878E-014
   2.8500000000000025E-002     4.8807903830191607E-014
   2.9600000000000015E-002     5.3206943484518112E-014
   3.0700000000000005E-002     5.7650466838126825E-014
   3.1800000000000023E-002     6.2317649915730609E-014
   3.2900000000000013E-002     6.7125644313785330E-014
   3.4000000000000002E-002     7.1778394492236542E-014
   3.5100000000000020E-002     7.6016502920482195E-014
   3.6200000000000010E-002     7.9824403270383631E-014
   3.7300000000000028E-002     8.3402244399845437E-014
   3.8400000000000017E-002     8.6939271753910409E-014
   3.9500000000000007E-002     9.0409257169140226E-014
   4.0600000000000025E-002     9.3575887547379279E-014
   4.1700000000000015E-002     9.6189826118349909E-014
   4.2800000000000005E-002     9.8182375139767345E-014
   4.3900000000000022E-002     9.9678356925113696E-014
   4.5000000000000012E-002     1.0083266666359752E-013
   4.6100000000000002E-002     1.0165906614578451E-013
   4.7200000000000020E-002     1.0201120017885233E-013
   4.8300000000000010E-002     1.0171690219112876E-013
   4.9400000000000027E-002     1.0072116309773559E-013
   5.0500000000000017E-002     9.9100451794412520E-014
   5.1600000000000007E-002     9.6951847518425751E-014
   5.2700000000000025E-002     9.4284494914705111E-014
   5.3800000000000014E-002     9.1025673270515053E-014
   5.4900000000000004E-002     8.7123499915989671E-014
   5.6000000000000022E-002     8.2624780634357186E-014
   5.7100000000000012E-002     7.7637989657646049E-014
   5.8200000000000002E-002     7.2221430647519399E-014
   5.9300000000000019E-002     6.6324572305260026E-014
   6.0400000000000009E-002     5.9858503822381355E-014
   6.1500000000000027E-002     5.2830243787031563E-014
   6.2600000000000017E-002     4.5394780792470676E-014
   6.3700000000000007E-002     3.7751596646177304E-014
   6.4800000000000024E-002     2.9974159623198070E-014
   6.5900000000000014E-002     2.1946601837694002E-014
   6.7000000000000004E-002     1.3492597131772830E-014
   6.8100000000000022E-002     4.5923931176256138E-015
   6.9200000000000012E-002    -4.5198373462701980E-015
   7.0300000000000029E-002    -1.3490333930597509E-014
   7.1400000000000019E-002    -2.2106197598636795E-014
   7.2500000000000009E-002    -3.0442755131518206E-014
   7.3600000000000027E-002    -3.8747416641579133E-014
   7.4700000000000016E-002    -4.7150863326800210E-014
   7.5800000000000006E-002    -5.5467385255561259E-014
   7.6900000000000024E-002    -6.3278789074062774E-014
   7.8000000000000014E-002    -7.0241143406740143E-014
   7.9100000000000004E-002    -7.6342487591429916E-014
   8.0200000000000021E-002    -8.1872631560672787E-014
   8.1300000000000011E-002    -8.7121750873960127E-014
   8.2400000000000029E-002    -9.2073064513553570E-014
   8.3500000000000019E-002    -9.6366900097987354E-014
   8.4600000000000009E-002    -9.9573479891227394E-014
   8.5700000000000026E-002    -1.0153480941413915E-013
   8.6800000000000016E-002    -1.0247321705875996E-013
   8.7900000000000006E-002    -1.0277211806551661E-013
   8.9000000000000024E-002    -1.0262568929530781E-013
   9.0100000000000013E-002    -1.0186687792839232E-013
   9.1200000000000003E-002    -1.0012032095065186E-013
   9.2300000000000021E-002    -9.7138766963187387E-014
   9.3400000000000011E-002    -9.3026304047873285E-014
   9.4500000000000028E-002    -8.8161138033809137E-014
   9.5600000000000018E-002    -8.2897065854437609E-014
   9.6700000000000008E-002    -7.7307336773862489E-014
   9.7800000000000026E-002    -7.1181946586546945E-014
   9.8900000000000016E-002    -6.4260660881340486E-014
  0.10000000000000001         -5.6489118717443405E-014
  0.10110000000000002         -4.8086428721438667E-014
  0.10220000000000001         -3.9390349520518581E-014
  0.10330000000000003         -3.0631362991675850E-014
  0.10440000000000002         -2.1824034094789020E-014
  0.10550000000000001         -1.2842152501042242E-014
  0.10660000000000003         -3.5883385183576883E-015
  0.10770000000000002          5.8878267900678592E-015
  0.10880000000000001          1.5399604010527164E-014
  0.10990000000000003          2.4725088110260793E-014
  0.11100000000000002          3.3710225189722966E-014
  0.11210000000000001          4.2309661512830336E-014
  0.11320000000000002          5.0562687518352294E-014
  0.11430000000000001          5.8535276533986322E-014
  0.11540000000000003          6.6256139039564575E-014
  0.11650000000000002          7.3666119581784654E-014
  0.11760000000000001          8.0606019766145700E-014
  0.11870000000000003          8.6867914944216051E-014
  0.11980000000000002          9.2300187704797785E-014
  0.12090000000000001          9.6900301080185324E-014
  0.12200000000000003          1.0081015097823093E-013
  0.12310000000000001          1.0418978030338390E-013
  0.12420000000000003          1.0705376893651379E-013
  0.12530000000000002          1.0921134875625052E-013
  0.12640000000000001          1.1038469156734812E-013
  0.12750000000000003          1.1042695583991013E-013
  0.12860000000000002          1.0945547960744132E-013
  0.12970000000000001          1.0776716295476543E-013
  0.13080000000000003          1.0558729285015814E-013
  0.13190000000000002          1.0286235107384271E-013
  0.13300000000000001          9.9289094797780636E-014
  0.13410000000000000          9.4574193687959806E-014
  0.13520000000000004          8.8708921060108494E-014
  0.13630000000000003          8.2014187103023713E-014
  0.13740000000000002          7.4902976575489791E-014
  0.13850000000000001          6.7557815660453295E-014
  0.13960000000000000          5.9805041648903680E-014
  0.14070000000000005          5.1301858577129710E-014
  0.14180000000000004          4.1876791532379396E-014
  0.14290000000000003          3.1725189066789504E-014
  0.14400000000000002          2.1286655160964092E-014
  0.14510000000000001          1.0912630572120760E-014
  0.14620000000000000          6.1854159339326447E-016
  0.14730000000000004         -9.8611986871743732E-015
  0.14840000000000003         -2.0767469216677211E-014
  0.14950000000000002         -3.2033520365491508E-014
  0.15060000000000001         -4.3273775233775802E-014
  0.15170000000000000         -5.4047959196771358E-014
  0.15280000000000005         -6.4161571291837252E-014
  0.15390000000000004         -7.3739660799053980E-014
  0.15500000000000003         -8.3020791828260960E-014
  0.15610000000000002         -9.2066899448889852E-014
  0.15720000000000001         -1.0064958516800344E-013
  0.15830000000000000         -1.0840383733103830E-013
  0.15940000000000004         -1.1509831701205796E-013
  0.16050000000000003         -1.2077634330934447E-013
  0.16160000000000002         -1.2565090886056552E-013
  0.16270000000000001         -1.2986256799527666E-013
  0.16380000000000000         -1.3332349869013507E-013
  0.16490000000000005         -1.3577889489136056E-013
  0.16600000000000004         -1.3701436825093757E-013
  0.16710000000000003         -1.3701471719953134E-013
  0.16820000000000002         -1.3593996524768468E-013
  0.16930000000000001         -1.3396041836410816E-013
  0.17040000000000000         -1.3111498558060088E-013
  0.17150000000000004         -1.2731914268306713E-013
  0.17260000000000003         -1.2249882698928078E-013
  0.17370000000000002         -1.1671179411063789E-013
  0.17480000000000001         -1.1014231110567176E-013
  0.17590000000000000         -1.0298365230750977E-013
  0.17700000000000005         -9.5327830410321426E-014
  0.17810000000000004         -8.7165300772623153E-014
  0.17920000000000003         -7.8484453023896399E-014
  0.18030000000000002         -6.9365856908309214E-014
  0.18140000000000001         -5.9978869636272256E-014
  0.18250000000000000         -5.0489321006964345E-014
  0.18360000000000004         -4.0974179365895713E-014
  0.18470000000000003         -3.1427781325025637E-014
  0.18580000000000002         -2.1851053418700165E-014
  0.18690000000000001         -1.2333360004928051E-014
  0.18800000000000000         -3.0457421456535508E-015
  0.18910000000000005          5.8481426132363168E-015
  0.19020000000000004          1.4277887223339913E-014
  0.19130000000000003          2.2268505182747912E-014
  0.19240000000000002          2.9859396354681689E-014
  0.19350000000000001          3.7018170190332286E-014
  0.19460000000000005          4.3628719112388896E-014
  0.19570000000000004          4.9560869488853437E-014
  0.19680000000000003          5.4754506717323625E-014
  0.19790000000000002          5.9242845331073923E-014
  0.19900000000000001          6.3099808851995274E-014
  0.20010000000000000          6.6364523197824398E-014
  0.20120000000000005          6.9009467624612393E-014
  0.20230000000000004          7.0972136585832298E-014
  0.20340000000000003          7.2212664055649595E-014
  0.20450000000000002          7.2744816757066420E-014
  0.20560000000000000          7.2621227342076832E-014
  0.20670000000000005          7.1896773256317602E-014
  0.20780000000000004          7.0605571462600641E-014
  0.20890000000000003          6.8763904178805049E-014
  0.21000000000000002          6.6384618725687970E-014
  0.21110000000000001          6.3485852389228242E-014
  0.21220000000000000          6.0094047073018716E-014
  0.21330000000000005          5.6251697778912281E-014
  0.21440000000000003          5.2029738585056914E-014
  0.21550000000000002          4.7527863761967451E-014
  0.21660000000000001          4.2849359135068099E-014
  0.21770000000000000          3.8063976367371591E-014
  0.21880000000000005          3.3194349312729638E-014
  0.21990000000000004          2.8248121026244961E-014
  0.22100000000000003          2.3274254963230438E-014
  0.22210000000000002          1.8389865169839207E-014
  0.22320000000000001          1.3742218949555374E-014
  0.22430000000000000          9.4305502530320036E-015
  0.22540000000000004          5.4579899106307379E-015
  0.22650000000000003          1.7652633944778750E-015
  0.22760000000000002         -1.6761631856961978E-015
  0.22870000000000001         -4.7954012465631977E-015
  0.22980000000000000         -7.4475875614875468E-015
  0.23090000000000005         -9.5181575590208079E-015
  0.23200000000000004         -1.1011990257018896E-014
  0.23310000000000003         -1.2039593826369857E-014
  0.23420000000000002         -1.2705381732183492E-014
  0.23530000000000001         -1.2999016478476743E-014
  0.23640000000000000         -1.2796077948807134E-014
  0.23750000000000004         -1.1976439036405743E-014
  0.23860000000000003         -1.0555083650016700E-014
  0.23970000000000002         -8.6998936496796487E-015
  0.24080000000000001         -6.6103365124598678E-015
  0.24190000000000000         -4.3622731618808945E-015
  0.24300000000000005         -1.8632770729059469E-015
  0.24410000000000004          1.0331903304813034E-015
  0.24520000000000003          4.3538356047439923E-015
  0.24630000000000002          7.9324053768118122E-015
  0.24740000000000001          1.1511216315206433E-014
  0.24850000000000005          1.4931047655371964E-014
  0.24960000000000004          1.8237145527306404E-014
  0.25070000000000003          2.1600822001560384E-014
  0.25180000000000002          2.5124010220785095E-014
  0.25290000000000001          2.8704564856552951E-014
  0.25400000000000000          3.2088584829989968E-014
  0.25510000000000005          3.5066056700703515E-014
  0.25620000000000004          3.7632439545040839E-014
  0.25730000000000003          3.9966417052151936E-014
  0.25840000000000002          4.2240475893556330E-014
  0.25950000000000001          4.4435386492864304E-014
  0.26060000000000005          4.6329566139861440E-014
  0.26170000000000004          4.7677190413358444E-014
  0.26280000000000003          4.8416522049891178E-014
  0.26390000000000002          4.8719679928957018E-014
  0.26500000000000001          4.8835977140832348E-014
  0.26610000000000000          4.8866608599510353E-014
  0.26720000000000005          4.8671517946152671E-014
  0.26830000000000004          4.7992484854498317E-014
  0.26940000000000003          4.6684394510403470E-014
  0.27050000000000002          4.4851136763775655E-014
  0.27160000000000001          4.2767416958884477E-014
  0.27270000000000005          4.0656467473588138E-014
  0.27380000000000004          3.8518658911372567E-014
  0.27490000000000003          3.6159033908546324E-014
  0.27600000000000002          3.3386927708115932E-014
  0.27710000000000001          3.0212983486544078E-014
  0.27820000000000000          2.6874302987544071E-014
  0.27930000000000005          2.3668470285678204E-014
  0.28040000000000004          2.0738904199420042E-014
  0.28150000000000003          1.7990904695465178E-014
  0.28260000000000002          1.5203826838958931E-014
  0.28370000000000001          1.2241459546364251E-014
  0.28480000000000005          9.1867064609204520E-015
  0.28590000000000004          6.2950457051558115E-015
  0.28700000000000003          3.8106103154072074E-015
  0.28810000000000002          1.7951909314567643E-015
  0.28920000000000001          1.0275890668801057E-016
  0.29030000000000000         -1.4874010756243145E-015
  0.29140000000000005         -3.0883811470661025E-015
  0.29250000000000004         -4.6158530956963241E-015
  0.29360000000000003         -5.8560342984957738E-015
  0.29470000000000002         -6.6350974404615197E-015
  0.29580000000000001         -6.9588265051334849E-015
  0.29690000000000005         -7.0159593165525933E-015
  0.29800000000000004         -7.0419961854305299E-015
  0.29910000000000003         -7.1456440603038707E-015
  0.30020000000000002         -7.2306013712300078E-015
  0.30130000000000001         -7.0765781289172985E-015
  0.30240000000000000         -6.5231018277796282E-015
  0.30350000000000005         -5.6161411823459031E-015
  0.30460000000000004         -4.5982686301786927E-015
  0.30570000000000003         -3.7400197553657432E-015
  0.30680000000000002         -3.1383405554965575E-015
  0.30790000000000001         -2.6446204409940269E-015
  0.30900000000000005         -1.9907269559073668E-015
  0.31010000000000004         -1.0223898578992925E-015
  0.31120000000000003          1.4754228832323324E-016
  0.31230000000000002          1.2001311839392827E-015
  0.31340000000000001          1.8484627440057280E-015
  0.31450000000000006          2.0630171077775917E-015
  0.31560000000000005          2.0933016570154674E-015
  0.31670000000000004          2.2573474051233261E-015
  0.31780000000000003          2.6675894851893429E-015
  0.31890000000000002          3.1240885108725296E-015
  0.32000000000000001          3.2719709719557124E-015
  0.32110000000000005          2.8958206920021038E-015
  0.32220000000000004          2.1009498063590010E-015
  0.32330000000000003          1.2217366265922296E-015
  0.32440000000000002          5.2989855241538279E-016
  0.32550000000000001         -8.4337114891626426E-018
  0.32660000000000006         -7.1459243504699392E-016
  0.32770000000000005         -1.9288928033698114E-015
  0.32880000000000004         -3.7203880251083288E-015
  0.32990000000000003         -5.8252373920332894E-015
  0.33100000000000002         -7.8678289007453317E-015
  0.33210000000000001         -9.6741673637001541E-015
  0.33320000000000005         -1.1407687977716787E-014
  0.33430000000000004         -1.3413238082474504E-014
  0.33540000000000003         -1.5908633914075603E-014
  0.33650000000000002         -1.8792646744459167E-014
  0.33760000000000001         -2.1731808786954306E-014
  0.33870000000000006         -2.4442767354091358E-014
  0.33980000000000005         -2.6919445298559423E-014
  0.34090000000000004         -2.9409654427638004E-014
  0.34200000000000003         -3.2169983618485548E-014
  0.34310000000000002         -3.5219779815013395E-014
  0.34420000000000001         -3.8308047010009270E-014
  0.34530000000000005         -4.1113886886674036E-014
  0.34640000000000004         -4.3497507305876397E-014
  0.34750000000000003         -4.5583331870035980E-014
  0.34860000000000002         -4.7612530586780733E-014
  0.34970000000000001         -4.9704983765642587E-014
  0.35080000000000006         -5.1741000363929372E-014
  0.35190000000000005         -5.3457188570834962E-014
  0.35300000000000004         -5.4660226896133809E-014
  0.35410000000000003         -5.5367370604801558E-014
  0.35520000000000002         -5.5758992016889713E-014
  0.35630000000000001         -5.5998440250677716E-014
  0.35740000000000005         -5.6083263139455398E-014
  0.35850000000000004         -5.5850935434044642E-014
  0.35960000000000003         -5.5118997061060807E-014
  0.36070000000000002         -5.3827357775838855E-014
  0.36180000000000001         -5.2062691991291142E-014
  0.36290000000000006         -4.9958689155985069E-014
  0.36400000000000005         -4.7572476752525967E-014
  0.36510000000000004         -4.4845373802115200E-014
  0.36620000000000003         -4.1670533409602683E-014
  0.36730000000000002         -3.7995393442380434E-014
  0.36840000000000006         -3.3866644707883750E-014
  0.36950000000000005         -2.9386933642805831E-014
  0.37060000000000004         -2.4632063394564287E-014
  0.37170000000000003         -1.9603997577813025E-014
  0.37280000000000002         -1.4253748567878915E-014
  0.37390000000000001         -8.5448076376027414E-015
  0.37500000000000006         -2.4994388264457924E-015
  0.37610000000000005          3.8056885567789563E-015
  0.37720000000000004          1.0281603929750267E-014
  0.37830000000000003          1.6867687627123898E-014
  0.37940000000000002          2.3542033102190862E-014
  0.38050000000000006          3.0301973606769328E-014
  0.38160000000000005          3.7135753564214064E-014
  0.38270000000000004          4.4006151560172261E-014
  0.38380000000000003          5.0853955197782197E-014
  0.38490000000000002          5.7616666748831281E-014
  0.38600000000000001          6.4250680296256443E-014
  0.38710000000000000          7.0742508319876445E-014
  0.38819999999999999          7.7097667710659096E-014
  0.38930000000000009          8.3308670080442848E-014
  0.39040000000000008          8.9322448844519983E-014
  0.39150000000000007          9.5037236083636318E-014
  0.39260000000000006          1.0034255363158412E-013
  0.39370000000000005          1.0517952272822383E-013
  0.39480000000000004          1.0957165153622216E-013
  0.39590000000000003          1.1359026703301174E-013
  0.39700000000000002          1.1727188825543725E-013
  0.39810000000000001          1.2055409095042283E-013
  0.39920000000000000          1.2329252552282883E-013
  0.40029999999999999          1.2535687196133513E-013
  0.40140000000000009          1.2672969969140234E-013
  0.40250000000000008          1.2751836051530158E-013
  0.40360000000000007          1.2785871878042261E-013
  0.40470000000000006          1.2778669013053172E-013
  0.40580000000000005          1.2719075290795924E-013
  0.40690000000000004          1.2589519614701955E-013
  0.40800000000000003          1.2380867850046581E-013
  0.40910000000000002          1.2100865878854938E-013
  0.41020000000000001          1.1768269705448807E-013
  0.41130000000000000          1.1397341238744893E-013
  0.41239999999999999          1.0986383554740455E-013
  0.41350000000000009          1.0520881115207993E-013
  0.41460000000000008          9.9889158119787712E-014
  0.41570000000000007          9.3952433993021494E-014
  0.41680000000000006          8.7611719181064509E-014
  0.41790000000000005          8.1098563333006817E-014
  0.41900000000000004          7.4497535585629706E-014
  0.42010000000000003          6.7708427889007462E-014
  0.42120000000000002          6.0569492852131605E-014
  0.42230000000000001          5.3032308368642151E-014
  0.42340000000000000          4.5234285680601779E-014
  0.42449999999999999          3.7408658349585840E-014
  0.42560000000000009          2.9717246075055353E-014
  0.42670000000000008          2.2156479380658790E-014
  0.42780000000000007          1.4615496190517032E-014
  0.42890000000000006          7.0253888370320668E-015
  0.43000000000000005         -5.4021525220132572E-016
  0.43110000000000004         -7.9016343927384365E-015
  0.43220000000000003         -1.4905985478473728E-014
  0.43330000000000002         -2.1530380126213730E-014
  0.43440000000000001         -2.7863973815450798E-014
  0.43550000000000000         -3.3993958001724314E-014
  0.43659999999999999         -3.9906929227687018E-014
  0.43770000000000009         -4.5494890023625880E-014
  0.43880000000000008         -5.0651514344910823E-014
  0.43990000000000007         -5.5361179856270249E-014
  0.44100000000000006         -5.9697910456944383E-014
  0.44210000000000005         -6.3743477434109652E-014
  0.44320000000000004         -6.7510286534213027E-014
  0.44430000000000003         -7.0942451075310839E-014
  0.44540000000000002         -7.3985030454972101E-014
  0.44650000000000001         -7.6643662890650946E-014
  0.44760000000000000         -7.8971993882925151E-014
  0.44869999999999999         -8.1004223819835875E-014
  0.44980000000000009         -8.2710004903118630E-014
  0.45090000000000008         -8.4025996689177978E-014
  0.45200000000000007         -8.4935397511643020E-014
  0.45310000000000006         -8.5510702342602083E-014
  0.45420000000000005         -8.5866901775843628E-014
  0.45530000000000004         -8.6064369259817919E-014
  0.45640000000000003         -8.6059246845933248E-014
  0.45750000000000002         -8.5760118776739353E-014
  0.45860000000000001         -8.5144925063739198E-014
  0.45970000000000000         -8.4324329420794005E-014
  0.46079999999999999         -8.3479685147356075E-014
  0.46190000000000009         -8.2722518603315432E-014
  0.46300000000000008         -8.2005479482461545E-014
  0.46410000000000007         -8.1176636304129167E-014
  0.46520000000000006         -8.0137256779160518E-014
  0.46630000000000005         -7.8960481576700646E-014
  0.46740000000000004         -7.7855100053824580E-014
  0.46850000000000003         -7.6998226776646376E-014
  0.46960000000000002         -7.6386040829182069E-014
  0.47070000000000001         -7.5843058079329658E-014
  0.47180000000000000         -7.5189904849610690E-014
  0.47289999999999999         -7.4422851855194184E-014
  0.47400000000000009         -7.3741884578731469E-014
  0.47510000000000008         -7.3396795045801439E-014
  0.47620000000000007         -7.3484222570687465E-014
  0.47730000000000006         -7.3873792618725889E-014
  0.47840000000000005         -7.4326573978720479E-014