 -0.12000000000000000          0.0000000000000000     
 -0.11889999999999999         -2.7506462861230850E-016
 -0.11780000000000000         -8.0181647348256168E-016
 -0.11670000000000000         -1.4878337942824295E-015
 -0.11559999999999999         -2.2181180503573337E-015
 -0.11449999999999999         -2.9062664302635068E-015
 -0.11340000000000000         -3.5235252172625473E-015
 -0.11230000000000000         -4.0932452783435026E-015
 -0.11119999999999999         -4.6605646296844187E-015
 -0.11009999999999999         -5.2619257299819783E-015
 -0.10900000000000000         -5.9150533059349074E-015
 -0.10790000000000000         -6.6302284775302232E-015
 -0.10679999999999999         -7.4244842937851490E-015
 -0.10569999999999999         -8.3185854705163570E-015
 -0.10460000000000000         -9.3146011477921757E-015
 -0.10349999999999999         -1.0373775684290123E-014
 -0.10239999999999999         -1.1419439772514821E-014
 -0.10130000000000000         -1.2370971546911176E-014
 -0.10020000000000000         -1.3187105819928015E-014
  -9.9099999999999994E-002    -1.3885110100499795E-014
  -9.7999999999999990E-002    -1.4519156557647962E-014
  -9.6899999999999986E-002    -1.5134167123599340E-014
  -9.5799999999999996E-002    -1.5732418010800626E-014
  -9.4699999999999993E-002    -1.6279835287222819E-014
  -9.3599999999999989E-002    -1.6744802590468190E-014
  -9.2499999999999999E-002    -1.7133692430218677E-014
  -9.1399999999999995E-002    -1.7489817318582806E-014
  -9.0299999999999991E-002    -1.7854858002849009E-014
  -8.9200000000000002E-002    -1.8226161323484031E-014
  -8.8099999999999984E-002    -1.8548879898732582E-014
  -8.6999999999999994E-002    -1.8753028972030453E-014
  -8.5899999999999990E-002    -1.8806738632822916E-014
  -8.4799999999999986E-002    -1.8742163635814941E-014
  -8.3699999999999997E-002    -1.8633031212655836E-014
  -8.2599999999999993E-002    -1.8543285390582147E-014
  -8.1499999999999989E-002    -1.8489854703996495E-014
  -8.0399999999999999E-002    -1.8449122134435255E-014
  -7.9299999999999995E-002    -1.8398492658009921E-014
  -7.8199999999999992E-002    -1.8354893677448926E-014
  -7.7100000000000002E-002    -1.8376103226296209E-014
  -7.5999999999999984E-002    -1.8523896904891113E-014
  -7.4899999999999994E-002    -1.8820687210484285E-014
  -7.3799999999999991E-002    -1.9235949811841997E-014
  -7.2699999999999987E-002    -1.9712826656245408E-014
  -7.1599999999999997E-002    -2.0212342158691095E-014
  -7.0499999999999993E-002    -2.0740574696140485E-014
  -6.9399999999999989E-002    -2.1341004802970619E-014
  -6.8300000000000000E-002    -2.2063309168731416E-014
  -6.7199999999999996E-002    -2.2935939164656050E-014
  -6.6099999999999992E-002    -2.3961433939214301E-014
  -6.5000000000000002E-002    -2.5131101235121914E-014
  -6.3899999999999985E-002    -2.6440357280097895E-014
  -6.2799999999999995E-002    -2.7889521305121496E-014
  -6.1699999999999991E-002    -2.9471248517094217E-014
  -6.0599999999999994E-002    -3.1158760010343859E-014
  -5.9499999999999990E-002    -3.2907466271595334E-014
  -5.8399999999999994E-002    -3.4670016409461777E-014
  -5.7299999999999990E-002    -3.6413502785870498E-014
  -5.6199999999999986E-002    -3.8126739925016295E-014
  -5.5099999999999996E-002    -3.9814070963385818E-014
  -5.3999999999999992E-002    -4.1481250436623119E-014
  -5.2899999999999989E-002    -4.3121821890423544E-014
  -5.1799999999999985E-002    -4.4709715294841825E-014
  -5.0699999999999995E-002    -4.6199859365543144E-014
  -4.9599999999999991E-002    -4.7536798188830879E-014
  -4.8499999999999988E-002    -4.8669756488338937E-014
  -4.7399999999999998E-002    -4.9569389298743083E-014
  -4.6299999999999994E-002    -5.0238106563900737E-014
  -4.5199999999999990E-002    -5.0706969753895670E-014
  -4.4099999999999986E-002    -5.1019703009753321E-014
  -4.2999999999999997E-002    -5.1213472048257446E-014
  -4.1899999999999993E-002    -5.1308344581709988E-014
  -4.0799999999999989E-002    -5.1309518601819419E-014
  -3.9699999999999985E-002    -5.1214712981324293E-014
  -3.8599999999999995E-002    -5.1015235940202109E-014
  -3.7499999999999992E-002    -5.0687910783121444E-014
  -3.6399999999999988E-002    -5.0188622279517243E-014
  -3.5299999999999984E-002    -4.9461974478738368E-014
  -3.4199999999999994E-002    -4.8468305540050020E-014
  -3.3099999999999991E-002    -4.7208885972861872E-014
  -3.1999999999999987E-002    -4.5722627273872097E-014
  -3.0899999999999997E-002    -4.4044763782194054E-014
  -2.9799999999999993E-002    -4.2150228638802842E-014
  -2.8699999999999989E-002    -3.9925533135219881E-014
  -2.7599999999999986E-002    -3.7201407718723996E-014
  -2.6499999999999996E-002    -3.3838099643527918E-014
  -2.5399999999999992E-002    -2.9814425543197243E-014
  -2.4299999999999988E-002    -2.5262810426692128E-014
  -2.3199999999999985E-002    -2.0424152547696758E-014
  -2.2099999999999995E-002    -1.5547175767672866E-014
  -2.0999999999999991E-002    -1.0790176688408846E-014
  -1.9899999999999987E-002    -6.1775024030760466E-015
  -1.8799999999999983E-002    -1.6260132089775337E-015
  -1.7699999999999994E-002     2.9828137624390583E-015
  -1.6599999999999990E-002     7.7264855897084377E-015
  -1.5499999999999986E-002     1.2592682731153600E-014
  -1.4399999999999996E-002     1.7469536975822172E-014
  -1.3299999999999992E-002     2.2172038276195239E-014
  -1.2199999999999989E-002     2.6496553721341508E-014
  -1.1099999999999985E-002     3.0290837256844380E-014
  -9.9999999999999950E-003     3.3516444190673653E-014
  -8.8999999999999913E-003     3.6271043174528055E-014
  -7.7999999999999875E-003     3.8745261950093561E-014
  -6.6999999999999837E-003     4.1119392881912269E-014
  -5.5999999999999939E-003     4.3445362216728839E-014
  -4.4999999999999901E-003     4.5580438584614918E-014
  -3.3999999999999864E-003     4.7219912610243071E-014
  -2.2999999999999826E-003     4.8022741068803683E-014
  -1.1999999999999927E-003     4.7768435287145520E-014
  -9.9999999999988987E-005     4.6462035979163739E-014
   1.0000000000000148E-003     4.4331036081500642E-014
   2.1000000000000185E-003     4.1716544399895405E-014
   3.2000000000000084E-003     3.8915279724723596E-014
   4.3000000000000121E-003     3.6049301965350352E-014
   5.4000000000000159E-003     3.3020862410318531E-014
   6.5000000000000058E-003     2.9566289149985871E-014
   7.6000000000000234E-003     2.5379973248935096E-014
   8.7000000000000133E-003     2.0254371379586000E-014
   9.8000000000000032E-003     1.4179980446626286E-014
   1.0900000000000021E-002     7.3669796429746593E-015
   1.2000000000000011E-002     1.8045044286292118E-016
   1.3100000000000001E-002    -6.9855914985519288E-015
   1.4200000000000018E-002    -1.3845415231540324E-014
   1.5300000000000008E-002    -2.0314865518479782E-014
   1.6400000000000026E-002    -2.6523796030730693E-014
   1.7500000000000016E-002    -3.2744671725731225E-014
   1.8600000000000005E-002    -3.9267855159047069E-014
   1.9700000000000023E-002    -4.6271956574782442E-014
   2.0800000000000013E-002    -5.3734706775124313E-014
   2.1900000000000003E-002    -6.1412524249453015E-014
   2.3000000000000020E-002    -6.8895073871543524E-014
   2.4100000000000010E-002    -7.5720678485051205E-014
   2.5200000000000000E-002    -8.1520289356042254E-014
   2.6300000000000018E-002    -8.6143324071164487E-014
   2.7400000000000008E-002    -8.9715134311650091E-014
   2.8500000000000025E-002    -9.2592764975158190E-014
   2.9600000000000015E-002    -9.5224064283416781E-014
   3.0700000000000005E-002    -9.7960639314789932E-014
   3.1800000000000023E-002    -1.0090332626226207E-013
   3.2900000000000013E-002    -1.0384928358201739E-013
   3.4000000000000002E-002    -1.0636491015412117E-013
   3.5100000000000020E-002    -1.0795178945413483E-013
   3.6200000000000010E-002    -1.0823381383220938E-013
   3.7300000000000028E-002    -1.0709114789351173E-013
   3.8400000000000017E-002    -1.0469549838305536E-013
   3.9500000000000007E-002    -1.0144248140447886E-013
   4.0600000000000025E-002    -9.7811061276426283E-014
   4.1700000000000015E-002    -9.4199252725062569E-014
   4.2800000000000005E-002    -9.0790308016050283E-014
   4.3900000000000022E-002    -8.7496140958438630E-014
   4.5000000000000012E-002    -8.4003245081294071E-014
   4.6100000000000002E-002    -7.9910409364686186E-014
   4.7200000000000020E-002    -7.4907480909720535E-014
   4.8300000000000010E-002    -6.8920414540805486E-014
   4.9400000000000027E-002    -6.2158032483834279E-014
   5.0500000000000017E-002    -5.5040721435189628E-014
   5.1600000000000007E-002    -4.8047972430182292E-014
   5.2700000000000025E-002    -4.1557969127462745E-014
   5.3800000000000014E-002    -3.5747620143232053E-014
   5.4900000000000004E-002    -3.0582176360264786E-014
   5.6000000000000022E-002    -2.5877031143962326E-014
   5.7100000000000012E-002    -2.1388548812874128E-014
   5.8200000000000002E-002    -1.6895330563719682E-014
   5.9300000000000019E-002    -1.2253320168667193E-014
   6.0400000000000009E-002    -7.4267279240300650E-015
   6.1500000000000027E-002    -2.5001346936751134E-015
   6.2600000000000017E-002     2.3302149912877558E-015
   6.3700000000000007E-002     6.7926160378190231E-015
   6.4800000000000024E-002     1.0603968728416245E-014
   6.5900000000000014E-002     1.3547883712532118E-014
   6.7000000000000004E-002     1.5541884919846482E-014
   6.8100000000000022E-002     1.6668868174278845E-014
   6.9200000000000012E-002     1.7159332959932685E-014
   7.0300000000000029E-002     1.7326956737443509E-014
   7.1400000000000019E-002     1.7474650476971458E-014
   7.2500000000000009E-002     1.7798229876880163E-014
   7.3600000000000027E-002     1.8319110451839745E-014
   7.4700000000000016E-002     1.8873231277248694E-014
   7.5800000000000006E-002     1.9167783942516353E-014
   7.6900000000000024E-002     1.8891949478693174E-014
   7.8000000000000014E-002     1.7842570497561808E-014
   7.9100000000000004E-002     1.6014687208539357E-014
   8.0200000000000021E-002     1.3618899373877604E-014
   8.1300000000000011E-002     1.1018422107003851E-014
   8.2400000000000029E-002     8.6122292207665725E-015
   8.3500000000000019E-002     6.7098918151953199E-015
   8.4600000000000009E-002     5.4413298231699268E-015
   8.5700000000000026E-002     4.7268037159063203E-015
   8.6800000000000016E-002     4.3111477800710285E-015
   8.7900000000000006E-002     3.8498079048684572E-015
   8.9000000000000024E-002     3.0233212542624361E-015
   9.0100000000000013E-002     1.6488183115229018E-015
   9.1200000000000003E-002    -2.4696812531236736E-016
   9.2300000000000021E-002    -2.4227619929323328E-015
   9.3400000000000011E-002    -4.4948621584869571E-015
   9.4500000000000028E-002    -6.0647400802928575E-015
   9.5600000000000018E-002    -6.8545964490943321E-015
   9.6700000000000008E-002    -6.7976994707474963E-015
   9.7800000000000026E-002    -6.0498455703534407E-015
   9.8900000000000016E-002    -4.9227648431756198E-015
  0.10000000000000001         -3.7709613853557398E-015
  0.10110000000000002         -2.8760335728990138E-015
  0.10220000000000001         -2.3652920873827333E-015
  0.10330000000000003         -2.1836874631088344E-015
  0.10440000000000002         -2.1204550352871957E-015
  0.10550000000000001         -1.8793215040931622E-015
  0.10660000000000003         -1.1722508974067491E-015
  0.10770000000000002          1.9002958299372512E-016
  0.10880000000000001          2.2395110809949561E-015
  0.10990000000000003          4.8454457506793306E-015
  0.11100000000000002          7.7644120105149644E-015
  0.11210000000000001          1.0725854075037553E-014
  0.11320000000000002          1.3518608650625289E-014
  0.11430000000000001          1.6046147185170356E-014
  0.11540000000000003          1.8335688259615889E-014
  0.11650000000000002          2.0508101212359087E-014
  0.11760000000000001          2.2729272502713328E-014
  0.11870000000000003          2.5163458962779386E-014
  0.11980000000000002          2.7939290589722784E-014
  0.12090000000000001          3.1128263034127435E-014
  0.12200000000000003          3.4731385352820246E-014
  0.12310000000000001          3.8672726595007926E-014
  0.12420000000000003          4.2804482511929125E-014
  0.12530000000000002          4.6930505431291114E-014
  0.12640000000000001          5.0850650009868646E-014
  0.12750000000000003          5.4417919724298035E-014
  0.12860000000000002          5.7589691767095472E-014
  0.12970000000000001          6.0450111099333791E-014
  0.13080000000000003          6.3187966582065304E-014
  0.13190000000000002          6.6032169902598559E-014
  0.13300000000000001          6.9167527989506850E-014
  0.13410000000000000          7.2665181825405345E-014
  0.13520000000000004          7.6456547468067128E-014
  0.13630000000000003          8.0358673125418701E-014
  0.13740000000000002          8.4134373902608822E-014
  0.13850000000000001          8.7557763823519225E-014
  0.13960000000000000          9.0461475762692742E-014
  0.14070000000000005          9.2759240882897074E-014
  0.14180000000000004          9.4452413805079827E-014
  0.14290000000000003          9.5629141848550074E-014
  0.14400000000000002          9.6453715634620122E-014
  0.14510000000000001          9.7134514705013492E-014
  0.14620000000000000          9.7864077890443903E-014
  0.14730000000000004          9.8744656241305443E-014
  0.14840000000000003          9.9731126800181407E-014
  0.14950000000000002          1.0062386328547453E-013
  0.15060000000000001          1.0112247519803826E-013
  0.15170000000000000          1.0092024383084875E-013
  0.15280000000000005          9.9799561012592617E-014
  0.15390000000000004          9.7692548514563953E-014
  0.15500000000000003          9.4692682042750021E-014
  0.15610000000000002          9.1024748164383634E-014
  0.15720000000000001          8.6988723251120856E-014
  0.15830000000000000          8.2889197896072404E-014
  0.15940000000000004          7.8957698066877718E-014
  0.16050000000000003          7.5281257289620414E-014
  0.16160000000000002          7.1761832851008327E-014
  0.16270000000000001          6.8133508679111795E-014
  0.16380000000000000          6.4046508454522733E-014
  0.16490000000000005          5.9194197679710557E-014
  0.16600000000000004          5.3431932078590929E-014
  0.16710000000000003          4.6835787410588628E-014
  0.16820000000000002          3.9677516370135405E-014
  0.16930000000000001          3.2332703586680562E-014
  0.17040000000000000          2.5166190913622722E-014
  0.17150000000000004          1.8438694664011828E-014
  0.17260000000000003          1.2257059373033799E-014
  0.17370000000000002          6.5671294248564620E-015
  0.17480000000000001          1.1780601859511988E-015
  0.17590000000000000         -4.1895524115448342E-015
  0.17700000000000005         -9.8343679593312448E-015
  0.17810000000000004         -1.5990927731797219E-014
  0.17920000000000003         -2.2752455149211905E-014
  0.18030000000000002         -3.0029374058011990E-014
  0.18140000000000001         -3.7566659292801105E-014
  0.18250000000000000         -4.5020277561675409E-014
  0.18360000000000004         -5.2066215988298188E-014
  0.18470000000000003         -5.8501016665819465E-014
  0.18580000000000002         -6.4298465774806124E-014
  0.18690000000000001         -6.9607786193759562E-014
  0.18800000000000000         -7.4701843140387254E-014
  0.18910000000000005         -7.9898236012201578E-014
  0.19020000000000004         -8.5478288055302644E-014
  0.19130000000000003         -9.1623320871567216E-014
  0.19240000000000002         -9.8379197837261377E-014
  0.19350000000000001         -1.0565309111026784E-013
  0.19460000000000005         -1.1324048748510008E-013
  0.19570000000000004         -1.2087590313141766E-013
  0.19680000000000003         -1.2829715578202079E-013
  0.19790000000000002         -1.3531068373390423E-013
  0.19900000000000001         -1.4184405463281671E-013
  0.20010000000000000         -1.4797162837186013E-013
  0.20120000000000005         -1.5390167809867554E-013
  0.20230000000000004         -1.5992105046698336E-013
  0.20340000000000003         -1.6630697107695268E-013
  0.20450000000000002         -1.7323086313222638E-013
  0.20560000000000000         -1.8068732025430130E-013
  0.20670000000000005         -1.8847543650573071E-013
  0.20780000000000004         -1.9624027666384971E-013
  0.20890000000000003         -2.0355773473972619E-013
  0.21000000000000002         -2.1003120073101493E-013
  0.21110000000000001         -2.1536909377275148E-013
  0.21220000000000000         -2.1942604653329771E-013
  0.21330000000000005         -2.2220627976419724E-013
  0.21440000000000003         -2.2383541300299216E-013
  0.21550000000000002         -2.2450647462341964E-013
  0.21660000000000001         -2.2440544167913533E-013
  0.21770000000000000         -2.2362718955755325E-013
  0.21880000000000005         -2.2210439744803300E-013
  0.21990000000000004         -2.1957840427160289E-013
  0.22100000000000003         -2.1563288066425473E-013
  0.22210000000000002         -2.0978696012885158E-013
  0.22320000000000001         -2.0161737295076548E-013
  0.22430000000000000         -1.9086414741137637E-013
  0.22540000000000004         -1.7748344887907211E-013
  0.22650000000000003         -1.6163594883687300E-013
  0.22760000000000002         -1.4362524241755544E-013
  0.22870000000000001         -1.2381361177113091E-013
  0.22980000000000000         -1.0253856358465087E-013
  0.23090000000000005         -8.0043198414573565E-014
  0.23200000000000004         -5.6427746640668090E-014
  0.23310000000000003         -3.1632145951992770E-014
  0.23420000000000002         -5.4632149452047889E-015
  0.23530000000000001          2.2327013197453383E-014
  0.23640000000000000          5.1925636668897877E-014
  0.23750000000000004          8.3343342619629673E-014
  0.23860000000000003          1.1634630544599101E-013
  0.23970000000000002          1.5046742458413663E-013
  0.24080000000000001          1.8509349202206894E-013
  0.24190000000000000          2.1958981497166138E-013
  0.24300000000000005          2.5341022139606718E-013
  0.24410000000000004          2.8615595225264010E-013
  0.24520000000000003          3.1757914278231774E-013
  0.24630000000000002          3.4755343795896451E-013
  0.24740000000000001          3.7603763918462176E-013
  0.24850000000000005          4.0304153495761075E-013
  0.24960000000000004          4.2858422626354650E-013
  0.25070000000000003          4.5263304268077833E-013
  0.25180000000000002          4.7503126750622810E-013
  0.25290000000000001          4.9544721553922331E-013
  0.25400000000000000          5.1338371932620522E-013
  0.25510000000000005          5.2826313250851623E-013
  0.25620000000000004          5.3956269775270024E-013
  0.25730000000000003          5.4694306188870721E-013
  0.25840000000000002          5.5031576324183409E-013
  0.25950000000000001          5.4982945560286262E-013
  0.26060000000000005          5.4579607061362107E-013
  0.26170000000000004          5.3860105279449959E-013
  0.26280000000000003          5.2862888848563316E-013
  0.26390000000000002          5.1620911067820566E-013
  0.26500000000000001          5.0156953080521532E-013
  0.26610000000000000          4.8479381732350026E-013
  0.26720000000000005          4.6580364984828504E-013
  0.26830000000000004          4.4439906879458770E-013
  0.26940000000000003          4.2036917475149002E-013
  0.27050000000000002          3.9364172453776296E-013
  0.27160000000000001          3.6440387284370449E-013
  0.27270000000000005          3.3313031425408238E-013
  0.27380000000000004          3.0050075375175629E-013
  0.27490000000000003          2.6724853132065317E-013
  0.27600000000000002          2.3401320674658833E-013
  0.27710000000000001          2.0125541599981424E-013
  0.27820000000000000          1.6924343897085136E-013
  0.27930000000000005          1.3808291890111924E-013
  0.28040000000000004          1.0775440567351702E-013
  0.28150000000000003          7.8150207036421059E-014
  0.28260000000000002          4.9127562681998233E-014
  0.28370000000000001          2.0592737511756599E-014
  0.28480000000000005         -7.4012484953045291E-015
  0.28590000000000004         -3.4591787187104498E-014
  0.28700000000000003         -6.0526709240606073E-014
  0.28810000000000002         -8.4673857996299958E-014
  0.28920000000000001         -1.0657377859180509E-013
  0.29030000000000000         -1.2596271389828188E-013
  0.29140000000000005         -1.4281409516773990E-013
  0.29250000000000004         -1.5729809154111399E-013
  0.29360000000000003         -1.6970162593650275E-013
  0.29470000000000002         -1.8035562893240063E-013
  0.29580000000000001         -1.8958679353870379E-013
  0.29690000000000005         -1.9767826544697975E-013
  0.29800000000000004         -2.0481889860546616E-013
  0.29910000000000003         -2.1104691251273447E-013
  0.30020000000000002         -2.1622397920515120E-013
  0.30130000000000001         -2.2007747984186389E-013
  0.30240000000000000         -2.2231393421181574E-013
  0.30350000000000005         -2.2275862657741976E-013
  0.30460000000000004         -2.2145321244503456E-013
  0.30570000000000003         -2.1866407968398959E-013
  0.30680000000000002         -2.1480555101032857E-013
  0.30790000000000001         -2.1032588932260622E-013
  0.30900000000000005         -2.0561260300338752E-013
  0.31010000000000004         -2.0094447943097327E-013
  0.31120000000000003         -1.9648123321162749E-013
  0.31230000000000002         -1.9226483851091760E-013
  0.31340000000000001         -1.8822075538899297E-013
  0.31450000000000006         -1.8417157416581992E-013
  0.31560000000000005         -1.7988447763773829E-013
  0.31670000000000004         -1.7515495208038837E-013
  0.31780000000000003         -1.6989807125927317E-013
  0.31890000000000002         -1.6420173203761472E-013
  0.32000000000000001         -1.5831077938505492E-013
  0.32110000000000005         -1.5254844651791052E-013
  0.32220000000000004         -1.4721456821870644E-013
  0.32330000000000003         -1.4250689737851580E-013
  0.32440000000000002         -1.3848991158559586E-013
  0.32550000000000001         -1.3510525719330294E-013
  0.32660000000000006         -1.3220152093593261E-013
  0.32770000000000005         -1.2956704016778816E-013
  0.32880000000000004         -1.2696588195261065E-013
  0.32990000000000003         -1.2418431175478395E-013
  0.33100000000000002         -1.2108599660594560E-013
  0.33210000000000001         -1.1765679405127637E-013
  0.33320000000000005         -1.1401362030856847E-013
  0.33430000000000004         -1.1036551829858335E-013
  0.33540000000000003         -1.0694067717239268E-013
  0.33650000000000002         -1.0391211535696272E-013
  0.33760000000000001         -1.0135225272228651E-013
  0.33870000000000006         -9.9226008212257639E-014
  0.33980000000000005         -9.7410871104241417E-014
  0.34090000000000004         -9.5725830446273122E-014
  0.34200000000000003         -9.3961180984696572E-014
  0.34310000000000002         -9.1913903083225893E-014
  0.34420000000000001         -8.9433629992417463E-014
  0.34530000000000005         -8.6470002306141831E-014
  0.34640000000000004         -8.3097544085591163E-014
  0.34750000000000003         -7.9495850537770358E-014
  0.34860000000000002         -7.5884957092237490E-014
  0.34970000000000001         -7.2443618130963151E-014
  0.35080000000000006         -6.9250432799350843E-014
  0.35190000000000005         -6.6273389842600085E-014
  0.35300000000000004         -6.3403352903826858E-014
  0.35410000000000003         -6.0503706716367058E-014
  0.35520000000000002         -5.7448336209649600E-014
  0.35630000000000001         -5.4139601068216633E-014
  0.35740000000000005         -5.0516939510624367E-014
  0.35850000000000004         -4.6568585399978991E-014
  0.35960000000000003         -4.2343655196331839E-014
  0.36070000000000002         -3.7948002848535890E-014
  0.36180000000000001         -3.3511567413679299E-014
  0.36290000000000006         -2.9136968698200232E-014
  0.36400000000000005         -2.4859567829111984E-014
  0.36510000000000004         -2.0646891235952790E-014
  0.36620000000000003         -1.6438352112097201E-014
  0.36730000000000002         -1.2195346966952983E-014
  0.36840000000000006         -7.9238824131098593E-015
  0.36950000000000005         -3.6554336834516077E-015
  0.37060000000000004          5.9249677968961553E-016
  0.37170000000000003          4.8376893512778845E-015
  0.37280000000000002          9.1154401256646623E-015
  0.37390000000000001          1.3437824108398457E-014
  0.37500000000000006          1.7769473749160268E-014
  0.37610000000000005          2.2046433363895474E-014
  0.37720000000000004          2.6225474505076452E-014
  0.37830000000000003          3.0320463037261670E-014
  0.37940000000000002          3.4389431279162962E-014
  0.38050000000000006          3.8477604415701531E-014
  0.38160000000000005          4.2562423147028851E-014
  0.38270000000000004          4.6549667907633764E-014
  0.38380000000000003          5.0329652505091549E-014
  0.38490000000000002          5.3851595877650465E-014
  0.38600000000000001          5.7157133895579610E-014
  0.38710000000000000          6.0346253435056413E-014
  0.38819999999999999          6.3504653001958075E-014
  0.38930000000000009          6.6652646359667854E-014
  0.39040000000000008          6.9754810959200358E-014
  0.39150000000000007          7.2774862261876385E-014
  0.39260000000000006          7.5719613573688332E-014
  0.39370000000000005          7.8626200094826222E-014
  0.39480000000000004          8.1500037675323165E-014
  0.39590000000000003          8.4259971242434713E-014
  0.39700000000000002          8.6747518843843944E-014
  0.39810000000000001          8.8805391473354868E-014
  0.39920000000000000          9.0370449306461278E-014
  0.40029999999999999          9.1509711049339994E-014
  0.40140000000000009          9.2371085704296457E-014
  0.40250000000000008          9.3087970046043435E-014
  0.40360000000000007          9.3711096581329351E-014
  0.40470000000000006          9.4214091375429468E-014
  0.40580000000000005          9.4554082795819146E-014
  0.40690000000000004          9.4723173478833321E-014
  0.40800000000000003          9.4739235415423342E-014
  0.40910000000000002          9.4584514588595344E-014
  0.41020000000000001          9.4153407672373735E-014
  0.41130000000000000          9.3269256681834188E-014
  0.41239999999999999          9.1773585106338716E-014
  0.41350000000000009          8.9627627646471522E-014
  0.41460000000000008          8.6950291198958031E-014
  0.41570000000000007          8.3963487138898198E-014
  0.41680000000000006          8.0885226418035946E-014
  0.41790000000000005          7.7845764796534436E-014
  0.41900000000000004          7.4874513805380046E-014
  0.42010000000000003          7.1942682855639537E-014
  0.42120000000000002          6.9004480920123255E-014
  0.42230000000000001          6.5994304474581017E-014
  0.42340000000000000          6.2792516995237979E-014
  0.42449999999999999          5.9215045773786671E-014
  0.42560000000000009          5.5070436266569734E-014
  0.42670000000000008          5.0268270807139392E-014
  0.42780000000000007          4.4907510383191584E-014
  0.42890000000000006          3.9272433979694319E-014
  0.43000000000000005          3.3724320188078910E-014
  0.43110000000000004          2.8551593507405292E-014
  0.43220000000000003          2.3870022325768390E-014
  0.43330000000000002          1.9624703773108200E-014
  0.43440000000000001          1.5670227673788267E-014
  0.43550000000000000          1.1856217347342876E-014
  0.43659999999999999          8.0595272747072710E-015
  0.43770000000000009          4.1647004750394887E-015
  0.43880000000000008          4.5220846395288741E-017
  0.43990000000000007         -4.4052375978312039E-015
  0.44100000000000006         -9.1957639249531995E-015
  0.44210000000000005         -1.4174098019049296E-014
  0.44320000000000004         -1.9039398438461741E-014
  0.44430000000000003         -2.3444088683245432E-014
  0.44540000000000002         -2.7130155854390878E-014
  0.44650000000000001         -3.0018754998657237E-014
  0.44760000000000000         -3.2207076841011489E-014
  0.44869999999999999         -3.3893244134027415E-014
  0.44980000000000009         -3.5292924098910047E-014
  0.45090000000000008         -3.6598413304296750E-014
  0.45200000000000007         -3.7978720797275328E-014
  0.45310000000000006         -3.9577956693131583E-014
  0.45420000000000005         -4.1476564208440588E-014
  0.45530000000000004         -4.3627728231762448E-014
  0.45640000000000003         -4.5823698390614238E-014
  0.45750000000000002         -4.7740916531050060E-014
  0.45860000000000001         -4.9059127776637285E-014
  0.45970000000000000         -4.9591312060558375E-014
  0.46079999999999999         -4.9348735431690246E-014
  0.46190000000000009         -4.8510557248828894E-014
  0.46300000000000008         -4.7333307003877204E-014
  0.46410000000000007         -4.6068202740408982E-014
  0.46520000000000006         -4.4928603338777997E-014
  0.46630000000000005         -4.4093009300326856E-014
  0.46740000000000004         -4.3694317686555611E-014
  0.46850000000000003         -4.3766475235902886E-014
  0.46960000000000002         -4.4176671242963644E-014
  0.47070000000000001         -4.4610532010807607E-014
  0.47180000000000000         -4.4657592316355387E-014
  0.47289999999999999         -4.3974056142482292E-014
  0.47400000000000009         -4.2435375694401558E-014
  0.47510000000000008         -4.0187381066986182E-014
  0.47620000000000007         -3.7568924305828488E-014
  0.47730000000000006         -3.4962086758013528E-014
  0.47840000000000005         -3.2663719672449638E-014