 -0.12000000000000000          0.0000000000000000     
 -0.11889999999999999          4.1063387499346016E-013
 -0.11780000000000000          1.0091030657503080E-012
 -0.11670000000000000          1.4872866388774154E-012
 -0.11559999999999999          1.6514565312916455E-012
 -0.11449999999999999          1.5362082250283311E-012
 -0.11340000000000000          1.3579038047824617E-012
 -0.11230000000000000          1.3467105013505223E-012
 -0.11119999999999999          1.5799922110665954E-012
 -0.11009999999999999          1.9346052508497827E-012
 -0.10900000000000000          2.1871475944527219E-012
 -0.10790000000000000          2.1844644094440675E-012
 -0.10679999999999999          1.9585678496334170E-012
 -0.10569999999999999          1.7037625573818465E-012
 -0.10460000000000000          1.6356165477838839E-012
 -0.10349999999999999          1.8365517371432639E-012
 -0.10239999999999999          2.2000361541255655E-012
 -0.10130000000000000          2.5111507867108688E-012
 -0.10020000000000000          2.6014316505657712E-012
  -9.9099999999999994E-002     2.4636549237211759E-012
  -9.7999999999999990E-002     2.2447054981793370E-012
  -9.6899999999999986E-002     2.1262880691660821E-012
  -9.5799999999999996E-002     2.1855442718925830E-012
  -9.4699999999999993E-002     2.3402026767481040E-012
  -9.3599999999999989E-002     2.4176285901609052E-012
  -9.2499999999999999E-002     2.2935585649865192E-012
  -9.1399999999999995E-002     1.9942511105308454E-012
  -9.0299999999999991E-002     1.6836735912218280E-012
  -8.9200000000000002E-002     1.5439614557828512E-012
  -8.8099999999999984E-002     1.6379690485700868E-012
  -8.6999999999999994E-002     1.8572051369108208E-012
  -8.5899999999999990E-002     1.9958594166719068E-012
  -8.4799999999999986E-002     1.8981990389901840E-012
  -8.3699999999999997E-002     1.5715233949366476E-012
  -8.2599999999999993E-002     1.1810721600162896E-012
  -8.1499999999999989E-002     9.2937126463712878E-013
  -8.0399999999999999E-002     9.0736477981731966E-013
  -7.9299999999999995E-002     1.0259862558970124E-012
  -7.8199999999999992E-002     1.0787365952383891E-012
  -7.7100000000000002E-002     8.9063169273382819E-013
  -7.5999999999999984E-002     4.4596557893933663E-013
  -7.4899999999999994E-002    -9.7515472926109695E-014
  -7.3799999999999991E-002    -5.1836730912038711E-013
  -7.2699999999999987E-002    -6.8623541469608939E-013
  -7.1599999999999997E-002    -6.5096501578795958E-013
  -7.0499999999999993E-002    -6.0346665971847023E-013
  -6.9399999999999989E-002    -7.3831717751087960E-013
  -6.8300000000000000E-002    -1.1177755777735826E-012
  -6.7199999999999996E-002    -1.6338507158734856E-012
  -6.6099999999999992E-002    -2.0926548253235944E-012
  -6.5000000000000002E-002    -2.3569781095411463E-012
  -6.3899999999999985E-002    -2.4428254528609170E-012
  -6.2799999999999995E-002    -2.5015967986995678E-012
  -6.1699999999999991E-002    -2.7040500864382059E-012
  -6.0599999999999994E-002    -3.1129055443360986E-012
  -5.9499999999999990E-002    -3.6370019354154130E-012
  -5.8399999999999994E-002    -4.0983718093592904E-012
  -5.7299999999999990E-002    -4.3607639126003146E-012
  -5.6199999999999986E-002    -4.4247713039437668E-012
  -5.5099999999999996E-002    -4.4214831338631781E-012
  -5.3999999999999992E-002    -4.5122898350967801E-012
  -5.2899999999999989E-002    -4.7706582479954695E-012
  -5.1799999999999985E-002    -5.1326928687652090E-012
  -5.0699999999999995E-002    -5.4503896920197516E-012
  -4.9599999999999991E-002    -5.6050580698568818E-012
  -4.8499999999999988E-002    -5.5951194040106439E-012
  -4.7399999999999998E-002    -5.5336108786940913E-012
  -4.6299999999999994E-002    -5.5592522592010008E-012
  -4.5199999999999990E-002    -5.7292594964013700E-012
  -4.4099999999999986E-002    -5.9746222543850572E-012
  -4.2999999999999997E-002    -6.1508254903703270E-012
  -4.1899999999999993E-002    -6.1453207785613433E-012
  -4.0799999999999989E-002    -5.9610202860247704E-012
  -3.9699999999999985E-002    -5.7136309363662374E-012
  -3.8599999999999995E-002    -5.5453180894137786E-012
  -3.7499999999999992E-002    -5.5195036693637385E-012
  -3.6399999999999988E-002    -5.5752438045719001E-012
  -3.5299999999999984E-002    -5.5748118589513031E-012
  -3.4199999999999994E-002    -5.4085529254321620E-012
  -3.3099999999999991E-002    -5.0785838002677457E-012
  -3.1999999999999987E-002    -4.6988948980738348E-012
  -3.0899999999999997E-002    -4.4117478557717618E-012
  -2.9799999999999993E-002    -4.2824927427196916E-012
  -2.8699999999999989E-002    -4.2509624097825841E-012
  -2.7599999999999986E-002    -4.1756840855972073E-012
  -2.6499999999999996E-002    -3.9384693246486695E-012
  -2.5399999999999992E-002    -3.5323380332252832E-012
  -2.4299999999999988E-002    -3.0680182615102294E-012
  -2.3199999999999985E-002    -2.6942519227341585E-012
  -2.2099999999999995E-002    -2.4904767755959742E-012
  -2.0999999999999991E-002    -2.4105769311847029E-012
  -1.9899999999999987E-002    -2.3187074948839607E-012
  -1.8799999999999983E-002    -2.0906223668954096E-012
  -1.7699999999999994E-002    -1.7061412920915822E-012
  -1.6599999999999990E-002    -1.2652316140568795E-012
  -1.5499999999999986E-002    -9.1628016972774799E-013
  -1.4399999999999996E-002    -7.4916455464638983E-013
  -1.3299999999999992E-002    -7.3093288315678242E-013
  -1.2199999999999989E-002    -7.3029385555041292E-013
  -1.1099999999999985E-002    -6.1232051698632104E-013
  -9.9999999999999950E-003    -3.3427443092837510E-013
  -8.8999999999999913E-003     2.6267599082212513E-014
  -7.7999999999999875E-003     3.2972204099199829E-013
  -6.6999999999999837E-003     4.7526393035299945E-013
  -5.5999999999999939E-003     4.7044269912024849E-013
  -4.4999999999999901E-003     4.2037611210710097E-013
  -3.3999999999999864E-003     4.4677781676140317E-013
  -2.2999999999999826E-003     5.9776917787266126E-013
  -1.1999999999999927E-003     8.1457545992911837E-013
  -9.9999999999988987E-005     9.7801725668124962E-013
   1.0000000000000148E-003     9.9875121317207400E-013
   2.1000000000000185E-003     8.8390769349100058E-013
   3.2000000000000084E-003     7.3148334130005990E-013
   4.3000000000000121E-003     6.5786693488138908E-013
   5.4000000000000159E-003     7.1293383427136570E-013
   6.5000000000000058E-003     8.4532158768186996E-013
   7.6000000000000234E-003     9.4252676372626151E-013
   8.7000000000000133E-003     9.1503302291580649E-013
   9.8000000000000032E-003     7.6181996835342148E-013
   1.0900000000000021E-002     5.6934665198779143E-013
   1.2000000000000011E-002     4.4588112359299779E-013
   1.3100000000000001E-002     4.4069958602013228E-013
   1.4200000000000018E-002     5.0817173734085865E-013
   1.5300000000000008E-002     5.4286859252057867E-013
   1.6400000000000026E-002     4.5909001400942511E-013
   1.7500000000000016E-002     2.5565644400673246E-013
   1.8600000000000005E-002     1.8158359719637582E-014
   1.9700000000000023E-002    -1.4273012088251085E-013
   2.0800000000000013E-002    -1.7126038581053554E-013
   2.1900000000000003E-002    -1.0624155353058265E-013
   2.3000000000000020E-002    -5.1656815269276398E-014
   2.4100000000000010E-002    -1.0034429246323614E-013
   2.5200000000000000E-002    -2.6685836595086473E-013
   2.6300000000000018E-002    -4.7829117949176617E-013
   2.7400000000000008E-002    -6.2898514407288655E-013
   2.8500000000000025E-002    -6.5842589478181755E-013
   2.9600000000000015E-002    -5.9523842901668515E-013
   3.0700000000000005E-002    -5.3563858826397725E-013
   3.1800000000000023E-002    -5.7281539258719201E-013
   3.2900000000000013E-002    -7.2918190301959629E-013
   3.4000000000000002E-002    -9.4061856556969357E-013
   3.5100000000000020E-002    -1.1033804051639986E-012
   3.6200000000000010E-002    -1.1487546995124718E-012
   3.7300000000000028E-002    -1.0910590972751940E-012
   3.8400000000000017E-002    -1.0148740532490915E-012
   3.9500000000000007E-002    -1.0120506820123609E-012
   4.0600000000000025E-002    -1.1151967976487394E-012
   4.1700000000000015E-002    -1.2759223971160771E-012
   4.2800000000000005E-002    -1.4026436216793622E-012
   4.3900000000000022E-002    -1.4291750243347464E-012
   4.5000000000000012E-002    -1.3635006699090886E-012
   4.6100000000000002E-002    -1.2814546458350782E-012
   4.7200000000000020E-002    -1.2707116114822587E-012
   4.8300000000000010E-002    -1.3665010901973200E-012
   4.9400000000000027E-002    -1.5257918565959022E-012
   5.0500000000000017E-002    -1.6580654974203721E-012
   5.1600000000000007E-002    -1.6896167562351420E-012
   5.2700000000000025E-002    -1.6146168537574666E-012
   5.3800000000000014E-002    -1.4967260217329681E-012
   5.4900000000000004E-002    -1.4214367458128335E-012
   5.6000000000000022E-002    -1.4347061877459258E-012
   5.7100000000000012E-002    -1.5122651323376213E-012
   5.8200000000000002E-002    -1.5805789765368371E-012
   5.9300000000000019E-002    -1.5725341962849178E-012
   6.0400000000000009E-002    -1.4763349972261606E-012
   6.1500000000000027E-002    -1.3422658089095990E-012
   6.2600000000000017E-002    -1.2436268298883216E-012
   6.3700000000000007E-002    -1.2216397520980688E-012
   6.4800000000000024E-002    -1.2550672233055452E-012
   6.5900000000000014E-002    -1.2762720497401517E-012
   6.7000000000000004E-002    -1.2210150356813468E-012
   6.8100000000000022E-002    -1.0748893026303040E-012
   6.9200000000000012E-002    -8.8249366969908182E-013
   7.0300000000000029E-002    -7.1334967403418626E-013
   7.1400000000000019E-002    -6.1033355434374978E-013
   7.2500000000000009E-002    -5.5875588906211764E-013
   7.3600000000000027E-002    -4.9849929389749992E-013
   7.4700000000000016E-002    -3.6974646458976624E-013
   7.5800000000000006E-002    -1.5830679382317688E-013
   7.6900000000000024E-002     9.2832186419258990E-014
   7.8000000000000014E-002     3.1411359405499076E-013
   7.9100000000000004E-002     4.5969635822683673E-013
   8.0200000000000021E-002     5.4069824034319334E-013
   8.1300000000000011E-002     6.1724329246849305E-013
   8.2400000000000029E-002     7.5514161079286075E-013
   8.3500000000000019E-002     9.7856271811042316E-013
   8.4600000000000009E-002     1.2527505080159256E-012
   8.5700000000000026E-002     1.5089674300917316E-012
   8.6800000000000016E-002     1.6934390080985456E-012
   8.7900000000000006E-002     1.8050254202792589E-012
   8.9000000000000024E-002     1.8947452093461500E-012
   9.0100000000000013E-002     2.0277900424963028E-012
   9.1200000000000003E-002     2.2354327556139499E-012
   9.2300000000000021E-002     2.4911685086789366E-012
   9.3400000000000011E-002     2.7279012333732392E-012
   9.4500000000000028E-002     2.8837843514920405E-012
   9.5600000000000018E-002     2.9443045159617142E-012
   9.6700000000000008E-002     2.9513162675164880E-012
   9.7800000000000026E-002     2.9733476887106442E-012
   9.8900000000000016E-002     3.0585655452405678E-012
  0.10000000000000001          3.2032466867807126E-012
  0.10110000000000002          3.3568584015731341E-012
  0.10220000000000001          3.4587564916140544E-012
  0.10330000000000003          3.4797865437078452E-012
  0.10440000000000002          3.4397521611522269E-012
  0.10550000000000001          3.3897600323364784E-012
  0.10660000000000003          3.3735043721565931E-012
  0.10770000000000002          3.3957741015164108E-012
  0.10880000000000001          3.4202332686981545E-012
  0.10990000000000003          3.3969743129255738E-012
  0.11100000000000002          3.2992063817169574E-012
  0.11210000000000001          3.1426430341103643E-012
  0.11320000000000002          2.9742879038427881E-012
  0.11430000000000001          2.8394543533947679E-012
  0.11540000000000003          2.7510268244924399E-012
  0.11650000000000002          2.6826245097650407E-012
  0.11760000000000001          2.5896754241237654E-012
  0.11870000000000003          2.4424455398035233E-012
  0.11980000000000002          2.2470697064331737E-012
  0.12090000000000001          2.0399489278450980E-012
  0.12200000000000003          1.8604039642940965E-012
  0.12310000000000001          1.7219953660263916E-012
  0.12420000000000003          1.6034109708659043E-012
  0.12530000000000002          1.4652618222166235E-012
  0.12640000000000001          1.2802404451683230E-012
  0.12750000000000003          1.0545290689414410E-012
  0.12860000000000002          8.2484013441175403E-013
  0.12970000000000001          6.3318148850101272E-013
  0.13080000000000003          4.9753955738943894E-013
  0.13190000000000002          3.9961065024160724E-013
  0.13300000000000001          2.9845903346250727E-013
  0.13410000000000000          1.6037244332771359E-013
  0.13520000000000004         -1.6443041103714792E-014
  0.13630000000000003         -2.0004687802849682E-013
  0.13740000000000002         -3.4723933000582651E-013
  0.13850000000000001         -4.3439655323893971E-013
  0.13960000000000000         -4.7468577652738704E-013
  0.14070000000000005         -5.0924547922485900E-013
  0.14180000000000004         -5.7833203380700509E-013
  0.14290000000000003         -6.9268099336263259E-013
  0.14400000000000002         -8.2532445516121636E-013
  0.14510000000000001         -9.2981698706548223E-013
  0.14620000000000000         -9.7228919740468754E-013
  0.14730000000000004         -9.5499725668509832E-013
  0.14840000000000003         -9.1491441054614094E-013
  0.14950000000000002         -8.9831256455551707E-013
  0.15060000000000001         -9.2900415943518532E-013
  0.15170000000000000         -9.9229055790496013E-013
  0.15280000000000005         -1.0456708179687740E-012
  0.15390000000000004         -1.0487342310146709E-012
  0.15500000000000003         -9.9142167773584433E-013
  0.15610000000000002         -9.0115886525798548E-013
  0.15720000000000001         -8.2419406354963612E-013
  0.15830000000000000         -7.9435606087695876E-013
  0.15940000000000004         -8.1091058127551291E-013
  0.16050000000000003         -8.4048306291603653E-013
  0.16160000000000002         -8.4105335324500960E-013
  0.16270000000000001         -7.9081771292271913E-013
  0.16380000000000000         -7.0184038483236634E-013
  0.16490000000000005         -6.0962953226335989E-013
  0.16600000000000004         -5.4689813684750854E-013
  0.16710000000000003         -5.2061317328357009E-013
  0.16820000000000002         -5.0848669744521380E-013
  0.16930000000000001         -4.7671745971793620E-013
  0.17040000000000000         -4.0552126411015229E-013
  0.17150000000000004         -3.0373311154278466E-013
  0.17260000000000003         -2.0210430963070320E-013
  0.17370000000000002         -1.3060930801584841E-013
  0.17480000000000001         -9.6650910399358597E-014
  0.17590000000000000         -8.0152884115607745E-014
  0.17700000000000005         -4.8945602136610797E-014
  0.17810000000000004          1.7127270448346837E-014
  0.17920000000000003          1.1132717999496837E-013
  0.18030000000000002          2.0541503055347915E-013
  0.18140000000000001          2.7128440536945069E-013
  0.18250000000000000          3.0263432791053608E-013
  0.18360000000000004          3.2027042100511604E-013
  0.18470000000000003          3.5663971154192019E-013
  0.18580000000000002          4.3070283562738345E-013
  0.18690000000000001          5.3179048501936055E-013
  0.18800000000000000          6.2494378040499242E-013
  0.18910000000000005          6.7466550891512809E-013
  0.19020000000000004          6.7029714994655441E-013
  0.19130000000000003          6.3452368232249471E-013
  0.19240000000000002          6.0831352826891537E-013
  0.19350000000000001          6.2257534022246697E-013
  0.19460000000000005          6.7666645743647099E-013
  0.19570000000000004          7.3930634625688850E-013
  0.19680000000000003          7.7150373553861374E-013
  0.19790000000000002          7.5519034181603934E-013
  0.19900000000000001          7.0690344654758634E-013
  0.20010000000000000          6.6639103974621506E-013
  0.20120000000000005          6.6799804415444170E-013
  0.20230000000000004          7.1522903491129488E-013
  0.20340000000000003          7.7686522364895735E-013
  0.20450000000000002          8.0776444346357107E-013
  0.20560000000000000          7.7985697114012267E-013
  0.20670000000000005          7.0151127532703254E-013
  0.20780000000000004          6.1166371231962592E-013
  0.20890000000000003          5.5301460891297300E-013
  0.21000000000000002          5.4334374235388899E-013
  0.21110000000000001          5.6505705928145320E-013
  0.21220000000000000          5.7979158370494251E-013
  0.21330000000000005          5.5693855355054991E-013
  0.21440000000000003          4.9525785835147590E-013
  0.21550000000000002          4.2221391122697491E-013
  0.21660000000000001          3.7212626460411258E-013
  0.21770000000000000          3.5962633524373100E-013
  0.21880000000000005          3.6808178419631213E-013
  0.21990000000000004          3.6142974324725837E-013
  0.22100000000000003          3.1059348217865542E-013
  0.22210000000000002          2.1502200941547563E-013
  0.22320000000000001          1.0360432553331518E-013
  0.22430000000000000          1.4425820322113156E-014
  0.22540000000000004         -3.1695933367071614E-014
  0.22650000000000003         -4.4580876449552491E-014
  0.22760000000000002         -5.5481841295333194E-014
  0.22870000000000001         -9.2528341517900866E-014
  0.22980000000000000         -1.5926244195745419E-013
  0.23090000000000005         -2.3221477396367482E-013
  0.23200000000000004         -2.7918051466340746E-013
  0.23310000000000003         -2.8439910491160286E-013
  0.23420000000000002         -2.6166804730308300E-013
  0.23530000000000001         -2.4535232231954610E-013
  0.23640000000000000         -2.6566848192500079E-013
  0.23750000000000004         -3.2637391012355457E-013
  0.23860000000000003         -4.0136714437575542E-013
  0.23970000000000002         -4.5287783357976197E-013
  0.24080000000000001         -4.5807444175426302E-013
  0.24190000000000000         -4.2472544003770968E-013
  0.24300000000000005         -3.8458196008056616E-013
  0.24410000000000004         -3.6949322677199361E-013
  0.24520000000000003         -3.8790143458969206E-013
  0.24630000000000002         -4.1900369833486609E-013
  0.24740000000000001         -4.2880946675171038E-013
  0.24850000000000005         -3.9618688052598560E-013
  0.24960000000000004         -3.2964193934400728E-013
  0.25070000000000003         -2.6238467730701780E-013
  0.25180000000000002         -2.2916477695100462E-013
  0.25290000000000001         -2.4169522675002084E-013
  0.25400000000000000         -2.8046922387342006E-013
  0.25510000000000005         -3.0876437994525980E-013
  0.25620000000000004         -2.9848741743951261E-013
  0.25730000000000003         -2.4907682800758389E-013
  0.25840000000000002         -1.8603232844342424E-013
  0.25950000000000001         -1.4071552369988740E-013
  0.26060000000000005         -1.2671306623388228E-013
  0.26170000000000004         -1.3028815520703545E-013
  0.26280000000000003         -1.2176688188998603E-013
  0.26390000000000002         -7.9110465407732908E-014
  0.26500000000000001         -5.9431784459628378E-015
  0.26610000000000000          6.9509745640638687E-014
  0.26720000000000005          1.1396145190566384E-013
  0.26830000000000004          1.1283109651859454E-013
  0.26940000000000003          8.0892133450257253E-014
  0.27050000000000002          5.2080731065058241E-014
  0.27160000000000001          5.5930522703922133E-014
  0.27270000000000005          9.7689677127291277E-014
  0.27380000000000004          1.5623907445753705E-013
  0.27490000000000003          2.0078776262125723E-013
  0.27600000000000002          2.1371489484705867E-013
  0.27710000000000001          2.0278215247130825E-013
  0.27820000000000000          1.9410446925764396E-013
  0.27930000000000005          2.1154182821849228E-013
  0.28040000000000004          2.5801504293174501E-013
  0.28150000000000003          3.1254824372504702E-013
  0.28260000000000002          3.4507224886235085E-013
  0.28370000000000001          3.3798975233405965E-013
  0.28480000000000005          2.9874697332630478E-013
  0.28590000000000004          2.5447162597487088E-013
  0.28700000000000003          2.3289185559952962E-013
  0.28810000000000002          2.4351847341881259E-013
  0.28920000000000001          2.7244027110632535E-013
  0.29030000000000000          2.9381564223751617E-013
  0.29140000000000005          2.8900766644008069E-013
  0.29250000000000004          2.5919847643006262E-013
  0.29360000000000003          2.2270326911798997E-013
  0.29470000000000002          1.9977019772485465E-013
  0.29580000000000001          1.9669838202946087E-013
  0.29690000000000005          2.0109018703283701E-013
  0.29800000000000004          1.9133029412416960E-013
  0.29910000000000003          1.5271614930954443E-013
  0.30020000000000002          8.8017184381296779E-014
  0.30130000000000001          1.4842030170556928E-014
  0.30240000000000000         -4.7702220185443793E-014
  0.30350000000000005         -9.2684304493873334E-014
  0.30460000000000004         -1.2912471195465488E-013
  0.30570000000000003         -1.7345441808780134E-013
  0.30680000000000002         -2.3562946853844949E-013
  0.30790000000000001         -3.1073873923216449E-013
  0.30900000000000005         -3.8251048333272217E-013
  0.31010000000000004         -4.3592744363107858E-013
  0.31120000000000003         -4.6923039362604331E-013
  0.31230000000000002         -4.9610754832428565E-013
  0.31340000000000001         -5.3631399286902563E-013
  0.31450000000000006         -6.0164367853044800E-013
  0.31560000000000005         -6.8757700019663207E-013
  0.31670000000000004         -7.7661872956203835E-013
  0.31780000000000003         -8.5067228554135996E-013
  0.31890000000000002         -9.0328390045113867E-013
  0.32000000000000001         -9.4297930643238493E-013
  0.32110000000000005         -9.8570793054890654E-013
  0.32220000000000004         -1.0424111616526781E-012
  0.32330000000000003         -1.1110104757977733E-012
  0.32440000000000002         -1.1784551146469782E-012
  0.32550000000000001         -1.2308496179328990E-012
  0.32660000000000006         -1.2638737652600504E-012
  0.32770000000000005         -1.2858848037881517E-012
  0.32880000000000004         -1.3118242320465707E-012
  0.32990000000000003         -1.3528152053726249E-012
  0.33100000000000002         -1.4091065481792273E-012
  0.33210000000000001         -1.4710089625179601E-012
  0.33320000000000005         -1.5263041404442109E-012
  0.33430000000000004         -1.5680869067377394E-012
  0.33540000000000003         -1.5973761945781831E-012
  0.33650000000000002         -1.6194182414146823E-012
  0.33760000000000001         -1.6375574856819892E-012
  0.33870000000000006         -1.6500070537941614E-012
  0.33980000000000005         -1.6519251157143813E-012
  0.34090000000000004         -1.6405398001863708E-012
  0.34200000000000003         -1.6185462169701214E-012
  0.34310000000000002         -1.5926149199170184E-012
  0.34420000000000001         -1.5681352611722634E-012
  0.34530000000000005         -1.5446365885748180E-012
  0.34640000000000004         -1.5158850649132652E-012
  0.34750000000000003         -1.4747831775296424E-012
  0.34860000000000002         -1.4190931331481872E-012
  0.34970000000000001         -1.3531253943282409E-012
  0.35080000000000006         -1.2837298419394126E-012
  0.35190000000000005         -1.2136982965443052E-012
  0.35300000000000004         -1.1381097813172179E-012
  0.35410000000000003         -1.0470899249986079E-012
  0.35520000000000002         -9.3334866064233459E-013
  0.35630000000000001         -7.9873162563516344E-013
  0.35740000000000005         -6.5430093473855596E-013
  0.35850000000000004         -5.1321836861097103E-013
  0.35960000000000003         -3.8138686594035429E-013
  0.36070000000000002         -2.5294533818674982E-013
  0.36180000000000001         -1.1440178380255913E-013
  0.36290000000000006          4.5271478348778786E-014
  0.36400000000000005          2.2598814912634346E-013
  0.36510000000000004          4.1599471465441207E-013
  0.36620000000000003          6.0016407117387372E-013
  0.36730000000000002          7.7116937020312508E-013
  0.36840000000000006          9.3515277971965276E-013
  0.36950000000000005          1.1073754752804975E-012
  0.37060000000000004          1.3007437994874773E-012
  0.37170000000000003          1.5155292364969573E-012
  0.37280000000000002          1.7379019202078271E-012
  0.37390000000000001          1.9484860736276339E-012
  0.37500000000000006          2.1347667511554485E-012
  0.37610000000000005          2.2983535594088703E-012
  0.37720000000000004          2.4519717793078653E-012
  0.37830000000000003          2.6087029605410352E-012
  0.37940000000000002          2.7716787125836170E-012
  0.38050000000000006          2.9318574397773200E-012
  0.38160000000000005          3.0752000250331661E-012
  0.38270000000000004          3.1933552927670436E-012
  0.38380000000000003          3.2894056298532093E-012
  0.38490000000000002          3.3742539902466201E-012
  0.38600000000000001          3.4566702684787744E-012
  0.38710000000000000          3.5350628556940126E-012
  0.38819999999999999          3.5977011179794166E-012
  0.38930000000000009          3.6313963863743502E-012
  0.39040000000000008          3.6317936376033955E-012
  0.39150000000000007          3.6069062099882619E-012
  0.39260000000000006          3.5706932065761002E-012
  0.39370000000000005          3.5314468224660199E-012
  0.39480000000000004          3.4842367566908744E-012
  0.39590000000000003          3.4139344857726679E-012
  0.39700000000000002          3.3072021545400566E-012
  0.39810000000000001          3.1644695407155761E-012
  0.39920000000000000          3.0022065426736411E-012
  0.40029999999999999          2.8427034897451713E-012
  0.40140000000000009          2.6981537532604652E-012
  0.40250000000000008          2.5608117928986113E-012
  0.40360000000000007          2.4072555891162308E-012
  0.40470000000000006          2.2146763471229127E-012
  0.40580000000000005          1.9779833040412170E-012
  0.40690000000000004          1.7152648552402301E-012
  0.40800000000000003          1.4571039587502083E-012
  0.40910000000000002          1.2268299347858931E-012
  0.41020000000000001          1.0255700283074508E-012
  0.41130000000000000          8.3281145945390487E-013
  0.41239999999999999          6.2217835410601131E-013
  0.41350000000000009          3.8118769639549056E-013
  0.41460000000000008          1.2086948165174144E-013
  0.41570000000000007         -1.3152528863880995E-013
  0.41680000000000006         -3.5126516337543609E-013
  0.41790000000000005         -5.3266007346697827E-013
  0.41900000000000004         -6.9151276710127549E-013
  0.42010000000000003         -8.5208229501029504E-013
  0.42120000000000002         -1.0284609543433327E-012
  0.42230000000000001         -1.2141342620386152E-012
  0.42340000000000000         -1.3871495092737443E-012
  0.42449999999999999         -1.5266008929184657E-012
  0.42560000000000009         -1.6278358846876737E-012
  0.42670000000000008         -1.7050363912060441E-012
  0.42780000000000007         -1.7795790846778955E-012
  0.42890000000000006         -1.8633677460067734E-012
  0.43000000000000005         -1.9500074254403992E-012
  0.43110000000000004         -2.0205148270472654E-012
  0.43220000000000003         -2.0589860059524054E-012
  0.43330000000000002         -2.0659398613420420E-012
  0.43440000000000001         -2.0587999558859370E-012
  0.43550000000000000         -2.0589261566566821E-012
  0.43659999999999999         -2.0751154632614246E-012
  0.43770000000000009         -2.0964759806346983E-012
  0.43880000000000008         -2.1005979003251750E-012
  0.43990000000000007         -2.0711915183273435E-012
  0.44100000000000006         -2.0118075967621250E-012
  0.44210000000000005         -1.9448195148657215E-012
  0.44320000000000004         -1.8958194312830611E-012
  0.44430000000000003         -1.8747895954227732E-012
  0.44540000000000002         -1.8682863339902652E-012
  0.44650000000000001         -1.8489877521880798E-012
  0.44760000000000000         -1.7960185129421131E-012
  0.44869999999999999         -1.7111216881058822E-012
  0.44980000000000009         -1.6184409422276642E-012
  0.45090000000000008         -1.5476264942586134E-012
  0.45200000000000007         -1.5124349181986543E-012
  0.45310000000000006         -1.5006224272848456E-012
  0.45420000000000005         -1.4828418370527223E-012
  0.45530000000000004         -1.4342747839652448E-012
  0.45640000000000003         -1.3531805814602075E-012
  0.45750000000000002         -1.2626058983372630E-012
  0.45860000000000001         -1.1937982001984193E-012
  0.45970000000000000         -1.1633983640907981E-012
  0.46079999999999999         -1.1612126127225065E-012
  0.46190000000000009         -1.1576922084444051E-012
  0.46300000000000008         -1.1257410957922393E-012
  0.46410000000000007         -1.0608263339248207E-012
  0.46520000000000006         -9.8449481477284305E-013
  0.46630000000000005         -9.2855518697941792E-013
  0.46740000000000004         -9.1144745267413705E-013
  0.46850000000000003         -9.2417121589611277E-013
  0.46960000000000002         -9.3621735271594385E-013
  0.47070000000000001         -9.1730463853645407E-013
  0.47180000000000000         -8.5912602476653405E-013
  0.47289999999999999         -7.8128014625308151E-013
  0.47400000000000009         -7.1711711607904231E-013
  0.47510000000000008         -6.8985539480781357E-013
  0.47620000000000007         -6.9629750753631356E-013
  0.47730000000000006         -7.0974719830650247E-013
  0.47840000000000005         -6.9961852749480385E-013