 -0.12000000000000000          0.0000000000000000     
 -0.11889999999999999         -3.0708528435481375E-014
 -0.11780000000000000         -7.7903937337823201E-014
 -0.11670000000000000         -1.2062802624388290E-013
 -0.11559999999999999         -1.4378283144331953E-013
 -0.11449999999999999         -1.4673032018503185E-013
 -0.11340000000000000         -1.4270269828140650E-013
 -0.11230000000000000         -1.4971021579778861E-013
 -0.11119999999999999         -1.7890000136899176E-013
 -0.11009999999999999         -2.2765356889753131E-013
 -0.10900000000000000         -2.8143298837758612E-013
 -0.10790000000000000         -3.2278321670454502E-013
 -0.10679999999999999         -3.4161203749100902E-013
 -0.10569999999999999         -3.4048912221866910E-013
 -0.10460000000000000         -3.3218448956813512E-013
 -0.10349999999999999         -3.3154828491659237E-013
 -0.10239999999999999         -3.4699776095126370E-013
 -0.10130000000000000         -3.7656811036829281E-013
 -0.10020000000000000         -4.1026623937290677E-013
  -9.9099999999999994E-002    -4.3661970267493291E-013
  -9.7999999999999990E-002    -4.4920432326236295E-013
  -9.6899999999999986E-002    -4.4955478850098969E-013
  -9.5799999999999996E-002    -4.4541677509655965E-013
  -9.4699999999999993E-002    -4.4599659739037444E-013
  -9.3599999999999989E-002    -4.5715390555014054E-013
  -9.2499999999999999E-002    -4.7895513453437750E-013
  -9.1399999999999995E-002    -5.0635643199395620E-013
  -9.0299999999999991E-002    -5.3214846979516273E-013
  -8.9200000000000002E-002    -5.5046924285525507E-013
  -8.8099999999999984E-002    -5.5929631777822802E-013
  -8.6999999999999994E-002    -5.6101650833024996E-013
  -8.5899999999999990E-002    -5.6100677311199540E-013
  -8.4799999999999986E-002    -5.6489423519841342E-013
  -8.3699999999999997E-002    -5.7566738892522191E-013
  -8.2599999999999993E-002    -5.9195845948143352E-013
  -8.1499999999999989E-002    -6.0843206988247049E-013
  -8.0399999999999999E-002    -6.1828476485929651E-013
  -7.9299999999999995E-002    -6.1672239349038291E-013
  -7.8199999999999992E-002    -6.0357375077984842E-013
  -7.7100000000000002E-002    -5.8346820167016016E-013
  -7.5999999999999984E-002    -5.6328526194110107E-013
  -7.4899999999999994E-002    -5.4820322419948472E-013
  -7.3799999999999991E-002    -5.3862489718550058E-013
  -7.2699999999999987E-002    -5.2985376758358866E-013
  -7.1599999999999997E-002    -5.1478316479075489E-013
  -7.0499999999999993E-002    -4.8802054654706407E-013
  -6.9399999999999989E-002    -4.4897386178300406E-013
  -6.8300000000000000E-002    -4.0206928830040187E-013
  -6.7199999999999996E-002    -3.5404958024803588E-013
  -6.6099999999999992E-002    -3.1007048021142818E-013
  -6.5000000000000002E-002    -2.7095801543735673E-013
  -6.3899999999999985E-002    -2.3315801802436470E-013
  -6.2799999999999995E-002    -1.9120363680326900E-013
  -6.1699999999999991E-002    -1.4107022877895009E-013
  -6.0599999999999994E-002    -8.2438858999242602E-014
  -5.9499999999999990E-002    -1.8737581100017867E-014
  -5.8399999999999994E-002     4.4790785650117231E-014
  -5.7299999999999990E-002     1.0372133464284731E-013
  -5.6199999999999986E-002     1.5635687371505788E-013
  -5.5099999999999996E-002     2.0411338960018725E-013
  -5.3999999999999992E-002     2.5044968946441691E-013
  -5.2899999999999989E-002     2.9901821524384872E-013
  -5.1799999999999985E-002     3.5187232373477825E-013
  -5.0699999999999995E-002     4.0839832529330434E-013
  -4.9599999999999991E-002     4.6535090108244908E-013
  -4.8499999999999988E-002     5.1803832035684885E-013
  -4.7399999999999998E-002     5.6230065691029451E-013
  -4.6299999999999994E-002     5.9649497019116073E-013
  -4.5199999999999990E-002     6.2247550340376413E-013
  -4.4099999999999986E-002     6.4482803698358390E-013
  -4.2999999999999997E-002     6.6845849766083198E-013
  -4.1899999999999993E-002     6.9566912511579085E-013
  -4.0799999999999989E-002     7.2441828228914562E-013
  -3.9699999999999985E-002     7.4901651223340023E-013
  -3.8599999999999995E-002     7.6314900353181934E-013
  -3.7499999999999992E-002     7.6359709744648349E-013
  -3.6399999999999988E-002     7.5238595991894131E-013
  -3.5299999999999984E-002     7.3586933056779035E-013
  -3.4199999999999994E-002     7.2111216229158520E-013
  -3.3099999999999991E-002     7.1170125097069463E-013
  -3.1999999999999987E-002     7.0560426651524776E-013
  -3.0899999999999997E-002     6.9649895325389297E-013
  -2.9799999999999993E-002     6.7781582694286656E-013
  -2.8699999999999989E-002     6.4698416533806306E-013
  -2.7599999999999986E-002     6.0720948054231498E-013
  -2.6499999999999996E-002     5.6567137719630088E-013
  -2.5399999999999992E-002     5.2930527766636944E-013
  -2.4299999999999988E-002     5.0083323460076926E-013
  -2.3199999999999985E-002     4.7748580006338889E-013
  -2.2099999999999995E-002     4.5309381782945948E-013
  -2.0999999999999991E-002     4.2210942506265174E-013
  -1.9899999999999987E-002     3.8300964446614635E-013
  -1.8799999999999983E-002     3.3907680924777426E-013
  -1.7699999999999994E-002     2.9629074854259679E-013
  -1.6599999999999990E-002     2.5982645452710985E-013
  -1.5499999999999986E-002     2.3133660051417394E-013
  -1.4399999999999996E-002     2.0850266670471058E-013
  -1.3299999999999992E-002     1.8684368844937983E-013
  -1.2199999999999989E-002     1.6248081833583543E-013
  -1.1099999999999985E-002     1.3420414554242584E-013
  -9.9999999999999950E-003     1.0383143736852114E-013
  -8.8999999999999913E-003     7.4938340602242343E-014
  -7.7999999999999875E-003     5.0876780931660802E-014
  -6.6999999999999837E-003     3.3182876795233093E-014
  -5.5999999999999939E-003     2.1070723453841216E-014
  -4.4999999999999901E-003     1.2072812387765131E-014
  -3.3999999999999864E-003     3.3807177554467996E-015
  -2.2999999999999826E-003    -6.7741177643789031E-015
  -1.1999999999999927E-003    -1.8299540354272550E-014
  -9.9999999999988987E-005    -2.9331183910429837E-014
   1.0000000000000148E-003    -3.7208707661707116E-014
   2.1000000000000185E-003    -3.9911777611945486E-014
   3.2000000000000084E-003    -3.7242384614824231E-014
   4.3000000000000121E-003    -3.1072899911916778E-014
   5.4000000000000159E-003    -2.4417943088908256E-014
   6.5000000000000058E-003    -1.9768273227009637E-014
   7.6000000000000234E-003    -1.7647820214470742E-014
   8.7000000000000133E-003    -1.6326578637467831E-014
   9.8000000000000032E-003    -1.2961695324205380E-014
   1.0900000000000021E-002    -5.5122451042474351E-015
   1.2000000000000011E-002     5.8009741554205292E-015
   1.3100000000000001E-002     1.8494790312364329E-014
   1.4200000000000018E-002     2.9345727605265573E-014
   1.5300000000000008E-002     3.6452621107144268E-014
   1.6400000000000026E-002     4.0444322748529717E-014
   1.7500000000000016E-002     4.3987653518590120E-014
   1.8600000000000005E-002     4.9917021512997323E-014
   1.9700000000000023E-002     5.9277939008846803E-014
   2.0800000000000013E-002     7.0649010454377554E-014
   2.1900000000000003E-002     8.1207770324588772E-014
   2.3000000000000020E-002     8.8766437662279591E-014
   2.4100000000000010E-002     9.3315685182053497E-014
   2.5200000000000000E-002     9.6980826228410368E-014
   2.6300000000000018E-002     1.0245250721385975E-013
   2.7400000000000008E-002     1.1105795512334464E-013
   2.8500000000000025E-002     1.2188162345892141E-013
   2.9600000000000015E-002     1.3255124708314951E-013
   3.0700000000000005E-002     1.4106924088932645E-013
   3.1800000000000023E-002     1.4730697137927428E-013
   3.2900000000000013E-002     1.5305356615520367E-013
   3.4000000000000002E-002     1.6060732884159999E-013
   3.5100000000000020E-002     1.7099086277328606E-013
   3.6200000000000010E-002     1.8314151845296646E-013
   3.7300000000000028E-002     1.9468105856372148E-013
   3.8400000000000017E-002     2.0367093548713120E-013
   3.9500000000000007E-002     2.1001840735654422E-013
   4.0600000000000025E-002     2.1547017748208088E-013
   4.1700000000000015E-002     2.2220495153725378E-013
   4.2800000000000005E-002     2.3109904097629907E-013
   4.3900000000000022E-002     2.4098651266426409E-013
   4.5000000000000012E-002     2.4948150966034018E-013
   4.6100000000000002E-002     2.5474707001462403E-013
   4.7200000000000020E-002     2.5687514969357405E-013
   4.8300000000000010E-002     2.5783085768390660E-013
   4.9400000000000027E-002     2.5999261808947541E-013
   5.0500000000000017E-002     2.6437706475262480E-013
   5.1600000000000007E-002     2.6987878528719226E-013
   5.2700000000000025E-002     2.7410034252885211E-013
   5.3800000000000014E-002     2.7516130975267960E-013
   5.4900000000000004E-002     2.7314414954557639E-013
   5.6000000000000022E-002     2.7010102781950294E-013
   5.7100000000000012E-002     2.6860765959166590E-013
   5.8200000000000002E-002     2.6992017549253352E-013
   5.9300000000000019E-002     2.7307750374431943E-013
   6.0400000000000009E-002     2.7559518133995286E-013
   6.1500000000000027E-002     2.7523626094988434E-013
   6.2600000000000017E-002     2.7157740775908617E-013
   6.3700000000000007E-002     2.6625990099547583E-013
   6.4800000000000024E-002     2.6178359955684019E-013
   6.5900000000000014E-002     2.5974287279780681E-013
   6.7000000000000004E-002     2.5976802624525658E-013
   6.8100000000000022E-002     2.5988448186968466E-013
   6.9200000000000012E-002     2.5796664786740352E-013
   7.0300000000000029E-002     2.5320701168480793E-013
   7.1400000000000019E-002     2.4657161518602473E-013
   7.2500000000000009E-002     2.3999073584617130E-013
   7.3600000000000027E-002     2.3494304767589748E-013
   7.4700000000000016E-002     2.3147284333634477E-013
   7.5800000000000006E-002     2.2829484841277319E-013
   7.6900000000000024E-002     2.2381607590228374E-013
   7.8000000000000014E-002     2.1726658523571504E-013
   7.9100000000000004E-002     2.0912283629302627E-013
   8.0200000000000021E-002     2.0059063310300836E-013
   8.1300000000000011E-002     1.9261788292456793E-013
   8.2400000000000029E-002     1.8520939414044861E-013
   8.3500000000000019E-002     1.7752504315335054E-013
   8.4600000000000009E-002     1.6862017746678258E-013
   8.5700000000000026E-002     1.5821673717895615E-013
   8.6800000000000016E-002     1.4691491866554787E-013
   8.7900000000000006E-002     1.3571595552216143E-013
   8.9000000000000024E-002     1.2525421828578467E-013
   9.0100000000000013E-002     1.1533295618953823E-013
   9.1200000000000003E-002     1.0509811282919536E-013
   9.2300000000000021E-002     9.3692169617341640E-014
   9.3400000000000011E-002     8.0884748907943771E-014
   9.4500000000000028E-002     6.7223391171482260E-014
   9.5600000000000018E-002     5.3625422162828942E-014
   9.6700000000000008E-002     4.0739387351015273E-014
   9.7800000000000026E-002     2.8543636731057336E-014
   9.8900000000000016E-002     1.6442634256601871E-014
  0.10000000000000001          3.7487336373777528E-015
  0.10110000000000002         -9.8177404445444943E-015
  0.10220000000000001         -2.3946209396815333E-014
  0.10330000000000003         -3.7947009070547939E-014
  0.10440000000000002         -5.1157257194421821E-014
  0.10550000000000001         -6.3250664228002261E-014
  0.10660000000000003         -7.4285687190902148E-014
  0.10770000000000002         -8.4538582031022367E-014
  0.10880000000000001         -9.4294555129697582E-014
  0.10990000000000003         -1.0373519241588665E-013
  0.11100000000000002         -1.1292899826490545E-013
  0.11210000000000001         -1.2183840112340038E-013
  0.11320000000000002         -1.3028032113465852E-013
  0.11430000000000001         -1.3787988928163216E-013
  0.11540000000000003         -1.4412414754990319E-013
  0.11650000000000002         -1.4857172647561441E-013
  0.11760000000000001         -1.5113456127592576E-013
  0.11870000000000003         -1.5223680530617563E-013
  0.11980000000000002         -1.5268616309847053E-013
  0.12090000000000001         -1.5326875754859601E-013
  0.12200000000000003         -1.5428409870146237E-013
  0.12310000000000001         -1.5531752632587861E-013
  0.12420000000000003         -1.5542885291023045E-013
  0.12530000000000002         -1.5368320484290710E-013
  0.12640000000000001         -1.4972667476682042E-013
  0.12750000000000003         -1.4406427657539222E-013
  0.12860000000000002         -1.3786369361642847E-013
  0.12970000000000001         -1.3238242628514145E-013
  0.13080000000000003         -1.2833160529031879E-013
  0.13190000000000002         -1.2552471020725454E-013
  0.13300000000000001         -1.2300218643715660E-013
  0.13410000000000000         -1.1956921299477751E-013
  0.13520000000000004         -1.1447028690623861E-013
  0.13630000000000003         -1.0785368993415289E-013
  0.13740000000000002         -1.0077872065925752E-013
  0.13850000000000001         -9.4737997065860327E-014
  0.13960000000000000         -9.0910472248301863E-014
  0.14070000000000005         -8.9516324229401609E-014
  0.14180000000000004         -8.9629774197824273E-014
  0.14290000000000003         -8.9602431421153604E-014
  0.14400000000000002         -8.7932714423521094E-014
  0.14510000000000001         -8.4141996760063773E-014
  0.14620000000000000         -7.9152596240596627E-014
  0.14730000000000004         -7.4887447388972642E-014
  0.14840000000000003         -7.3239462540914811E-014
  0.14950000000000002         -7.4957632837130901E-014
  0.15060000000000001         -7.9109456485458918E-014
  0.15170000000000000         -8.3493412065278856E-014
  0.15280000000000005         -8.5824067851497534E-014
  0.15390000000000004         -8.5021451466669586E-014
  0.15500000000000003         -8.1828393891061959E-014
  0.15610000000000002         -7.8355428627482049E-014
  0.15720000000000001         -7.6803372866961149E-014
  0.15830000000000000         -7.8134274885447082E-014
  0.15940000000000004         -8.1509385006163681E-014
  0.16050000000000003         -8.4842071782870429E-014
  0.16160000000000002         -8.6116243051270864E-014
  0.16270000000000001         -8.4643552986257251E-014
  0.16380000000000000         -8.1482990820464606E-014
  0.16490000000000005         -7.8786700603212487E-014
  0.16600000000000004         -7.8510301166625486E-014
  0.16710000000000003         -8.1299461689878155E-014
  0.16820000000000002         -8.6211950975670231E-014
  0.16930000000000001         -9.1380654762361925E-014
  0.17040000000000000         -9.5144663890297158E-014
  0.17150000000000004         -9.6938884446040523E-014
  0.17260000000000003         -9.7454832291396628E-014
  0.17370000000000002         -9.8078252015628795E-014
  0.17480000000000001         -1.0003255838362396E-013
  0.17590000000000000         -1.0375681703331375E-013
  0.17700000000000005         -1.0881344238726182E-013
  0.17810000000000004         -1.1425819842029451E-013
  0.17920000000000003         -1.1916481192640845E-013
  0.18030000000000002         -1.2299835988158627E-013
  0.18140000000000001         -1.2571068650855456E-013
  0.18250000000000000         -1.2761820729840265E-013
  0.18360000000000004         -1.2919572111588233E-013
  0.18470000000000003         -1.3087591553728731E-013
  0.18580000000000002         -1.3287967706533794E-013
  0.18690000000000001         -1.3509512332384247E-013
  0.18800000000000000         -1.3706551631467284E-013
  0.18910000000000005         -1.3815706724750597E-013
  0.19020000000000004         -1.3789419379195246E-013
  0.19130000000000003         -1.3630752487453427E-013
  0.19240000000000002         -1.3405925441990340E-013
  0.19350000000000001         -1.3219415446325526E-013
  0.19460000000000005         -1.3159853551111720E-013
  0.19570000000000004         -1.3247915566810878E-013
  0.19680000000000003         -1.3421828420797313E-013
  0.19790000000000002         -1.3575017475698470E-013
  0.19900000000000001         -1.3625798606528369E-013
  0.20010000000000000         -1.3574840078112481E-013
  0.20120000000000005         -1.3511113336925729E-013
  0.20230000000000004         -1.3559976505275163E-013
  0.20340000000000003         -1.3806111657477392E-013
  0.20450000000000002         -1.4241831589718937E-013
  0.20560000000000000         -1.4774544902301970E-013
  0.20670000000000005         -1.5286990666040723E-013
  0.20780000000000004         -1.5708461259795818E-013
  0.20890000000000003         -1.6049263665908280E-013
  0.21000000000000002         -1.6377907915518303E-013
  0.21110000000000001         -1.6760832845145833E-013
  0.21220000000000000         -1.7208978453423010E-013
  0.21330000000000005         -1.7667596630504604E-013
  0.21440000000000003         -1.8052661096342558E-013
  0.21550000000000002         -1.8304318433493754E-013
  0.21660000000000001         -1.8418681924731435E-013
  0.21770000000000000         -1.8438904605448385E-013
  0.21880000000000005         -1.8418109811059819E-013
  0.21990000000000004         -1.8385804365961324E-013
  0.22100000000000003         -1.8342233115209390E-013
  0.22210000000000002         -1.8279426411969293E-013
  0.22320000000000001         -1.8205131753491522E-013
  0.22430000000000000         -1.8144908529059536E-013
  0.22540000000000004         -1.8118684758723972E-013
  0.22650000000000003         -1.8113020192130637E-013
  0.22760000000000002         -1.8077729484270667E-013
  0.22870000000000001         -1.7957720269067528E-013
  0.22980000000000000         -1.7740990661952334E-013
  0.23090000000000005         -1.7485835786812064E-013
  0.23200000000000004         -1.7300610812861452E-013
  0.23310000000000003         -1.7282558196052942E-013
  0.23420000000000002         -1.7454516789097214E-013
  0.23530000000000001         -1.7744673875967150E-013
  0.23640000000000000         -1.8027848371153554E-013
  0.23750000000000004         -1.8204416747380229E-013
  0.23860000000000003         -1.8264751190068620E-013
  0.23970000000000002         -1.8294135613705370E-013
  0.24080000000000001         -1.8412049766060119E-013
  0.24190000000000000         -1.8684362838400047E-013
  0.24300000000000005         -1.9066714857420713E-013
  0.24410000000000004         -1.9418174444519692E-013
  0.24520000000000003         -1.9578765510405428E-013
  0.24630000000000002         -1.9463094342235490E-013
  0.24740000000000001         -1.9111913234180914E-013
  0.24850000000000005         -1.8670352910747327E-013
  0.24960000000000004         -1.8307085439769420E-013
  0.25070000000000003         -1.8123555841673111E-013
  0.25180000000000002         -1.8105626019389111E-013
  0.25290000000000001         -1.8141875041718002E-013
  0.25400000000000000         -1.8092920172931226E-013
  0.25510000000000005         -1.7868913682870252E-013
  0.25620000000000004         -1.7472281197732469E-013
  0.25730000000000003         -1.6986362499125803E-013
  0.25840000000000002         -1.6521685001633152E-013
  0.25950000000000001         -1.6152477709731133E-013
  0.26060000000000005         -1.5877368006559673E-013
  0.26170000000000004         -1.5622537815651830E-013
  0.26280000000000003         -1.5283008505225959E-013
  0.26390000000000002         -1.4779484918165543E-013
  0.26500000000000001         -1.4101743358498751E-013
  0.26610000000000000         -1.3316545109890596E-013
  0.26720000000000005         -1.2535281610128309E-013
  0.26830000000000004         -1.1856508208140460E-013
  0.26940000000000003         -1.1312391459364688E-013
  0.27050000000000002         -1.0847998108353064E-013
  0.27160000000000001         -1.0346516625254387E-013
  0.27270000000000005         -9.6886199454731953E-014
  0.27380000000000004         -8.8136975438806945E-014
  0.27490000000000003         -7.7476716630058068E-014
  0.27600000000000002         -6.5806072147738741E-014
  0.27710000000000001         -5.4075834306781904E-014
  0.27820000000000000         -4.2698174491106288E-014
  0.27930000000000005         -3.1336544649720242E-014
  0.28040000000000004         -1.9209244948493887E-014
  0.28150000000000003         -5.7012864386531421E-015
  0.28260000000000002          9.1329891559052560E-015
  0.28370000000000001          2.4526999188081828E-014
  0.28480000000000005          3.9459266484507390E-014
  0.28590000000000004          5.3306505759039079E-014
  0.28700000000000003          6.6247331792659544E-014
  0.28810000000000002          7.9137652385637516E-014
  0.28920000000000001          9.2940405182079323E-014
  0.29030000000000000          1.0809776243672048E-013
  0.29140000000000005          1.2426936861003040E-013
  0.29250000000000004          1.4060060027170283E-013
  0.29360000000000003          1.5631533072670024E-013
  0.29470000000000002          1.7120899177497816E-013
  0.29580000000000001          1.8570191035388553E-013
  0.29690000000000005          2.0043440377068944E-013
  0.29800000000000004          2.1571018820627331E-013
  0.29910000000000003          2.3119293084955181E-013
  0.30020000000000002          2.4606874941669571E-013
  0.30130000000000001          2.5955034522634310E-013
  0.30240000000000000          2.7136121327721243E-013
  0.30350000000000005          2.8186518008853061E-013
  0.30460000000000004          2.9176680104229452E-013
  0.30570000000000003          3.0160762959532617E-013
  0.30680000000000002          3.1140866512823717E-013
  0.30790000000000001          3.2068438096218780E-013
  0.30900000000000005          3.2878400797262683E-013
  0.31010000000000004          3.3530214688214354E-013
  0.31120000000000003          3.4028700132563912E-013
  0.31230000000000002          3.4414839240678438E-013
  0.31340000000000001          3.4738442036123874E-013
  0.31450000000000006          3.5034603083657165E-013
  0.31560000000000005          3.5318503972068797E-013
  0.31670000000000004          3.5596756100569298E-013
  0.31780000000000003          3.5881526522560103E-013
  0.31890000000000002          3.6195097791937826E-013
  0.32000000000000001          3.6563674133971947E-013
  0.32110000000000005          3.7009508594967829E-013
  0.32220000000000004          3.7550523672824126E-013
  0.32330000000000003          3.8207410307508063E-013
  0.32440000000000002          3.9008760534079157E-013
  0.32550000000000001          3.9984862289348690E-013
  0.32660000000000006          4.1151091642158008E-013
  0.32770000000000005          4.2493791905286530E-013
  0.32880000000000004          4.3973540151159575E-013
  0.32990000000000003          4.5548991673255472E-013
  0.33100000000000002          4.7207374122859150E-013
  0.33210000000000001          4.8978710234686853E-013
  0.33320000000000005          5.0919609624925297E-013
  0.33430000000000004          5.3073817453627093E-013
  0.33540000000000003          5.5435459995823615E-013
  0.33650000000000002          5.7941911426256150E-013
  0.33760000000000001          6.0503453751062541E-013
  0.33870000000000006          6.3050608037254460E-013
  0.33980000000000005          6.5565582503093675E-013
  0.34090000000000004          6.8074546539345275E-013
  0.34200000000000003          7.0605375302023730E-013
  0.34310000000000002          7.3141253306015538E-013
  0.34420000000000001          7.5605021036187899E-013
  0.34530000000000005          7.7887668011099765E-013
  0.34640000000000004          7.9902448308091473E-013
  0.34750000000000003          8.1626225226444205E-013
  0.34860000000000002          8.3097549550709215E-013
  0.34970000000000001          8.4370888347409097E-013
  0.35080000000000006          8.5457626332111938E-013
  0.35190000000000005          8.6294088119725558E-013
  0.35300000000000004          8.6758476651149351E-013
  0.35410000000000003          8.6724690105384021E-013
  0.35520000000000002          8.6116268200494708E-013
  0.35630000000000001          8.4924881321457405E-013
  0.35740000000000005          8.3183320370400617E-013
  0.35850000000000004          8.0914255426609443E-013
  0.35960000000000003          7.8091367456739873E-013
  0.36070000000000002          7.4638737044837043E-013
  0.36180000000000001          7.0467270505299182E-013
  0.36290000000000006          6.5522574225390804E-013
  0.36400000000000005          5.9813668716409633E-013
  0.36510000000000004          5.3407235111262629E-013
  0.36620000000000003          4.6395272584236351E-013
  0.36730000000000002          3.8858594730144462E-013
  0.36840000000000006          3.0846415786264102E-013
  0.36950000000000005          2.2378330370024471E-013
  0.37060000000000004          1.3461239256578835E-013
  0.37170000000000003          4.1090796942926197E-014
  0.37280000000000002         -5.6422686145275245E-014
  0.37390000000000001         -1.5726101380661867E-013
  0.37500000000000006         -2.6041515539062406E-013
  0.37610000000000005         -3.6457813355896293E-013
  0.37720000000000004         -4.6830342633816072E-013
  0.37830000000000003         -5.7026223440556722E-013
  0.37940000000000002         -6.6948730619452646E-013
  0.38050000000000006         -7.6543625473629742E-013
  0.38160000000000005         -8.5777772812803347E-013
  0.38270000000000004         -9.4598241592724147E-013
  0.38380000000000003         -1.0289784025325730E-012
  0.38490000000000002         -1.1051470121430892E-012
  0.38600000000000001         -1.1727501671167116E-012
  0.38710000000000000         -1.2305822011240117E-012
  0.38819999999999999         -1.2784375998458463E-012
  0.38930000000000009         -1.3170541925420353E-012
  0.39040000000000008         -1.3475016655514699E-012
  0.39150000000000007         -1.3703650494608916E-012
  0.39260000000000006         -1.3852379647370757E-012
  0.39370000000000005         -1.3908762709506481E-012
  0.39480000000000004         -1.3859407246816337E-012
  0.39590000000000003         -1.3698701218398011E-012
  0.39700000000000002         -1.3433227267968281E-012
  0.39810000000000001         -1.3078979015624558E-012
  0.39920000000000000         -1.2653146152109187E-012
  0.40029999999999999         -1.2165771909701330E-012
  0.40140000000000009         -1.1616598298222423E-012
  0.40250000000000008         -1.0999024331268308E-012
  0.40360000000000007         -1.0308489723407470E-012
  0.40470000000000006         -9.5499169669402761E-013
  0.40580000000000005         -8.7396254921150654E-013
  0.40690000000000004         -7.9007558067167926E-013
  0.40800000000000003         -7.0552016497336485E-013
  0.40910000000000002         -6.2168559543916444E-013
  0.41020000000000001         -5.3897449104313358E-013
  0.41130000000000000         -4.5714676463101231E-013
  0.41239999999999999         -3.7593803100630922E-013
  0.41350000000000009         -2.9558989088984137E-013
  0.41460000000000008         -2.1703463857216010E-013
  0.41570000000000007         -1.4169567940277508E-013
  0.41680000000000006         -7.1051144700985164E-014
  0.41790000000000005         -6.1836858758876784E-015
  0.41900000000000004          5.2494684957782065E-014
  0.42010000000000003          1.0524427504145986E-013
  0.42120000000000002          1.5272906204322009E-013
  0.42230000000000001          1.9557760109844026E-013
  0.42340000000000000          2.3395440352050643E-013
  0.42449999999999999          2.6735389367483324E-013
  0.42560000000000009          2.9476555573233955E-013
  0.42670000000000008          3.1518573884918041E-013
  0.42780000000000007          3.2824020002565294E-013
  0.42890000000000006          3.3456104116714761E-013
  0.43000000000000005          3.3564686520612011E-013
  0.43110000000000004          3.3321594587022592E-013
  0.43220000000000003          3.2838958770147673E-013
  0.43330000000000002          3.2119462682477983E-013
  0.43440000000000001          3.1072247686540798E-013
  0.43550000000000000          2.9588767288953256E-013
  0.43659999999999999          2.7633645314161670E-013
  0.43770000000000009          2.5293223954693011E-013
  0.43880000000000008          2.2749203759050250E-013
  0.43990000000000007          2.0192170082954445E-013
  0.44100000000000006          1.7728869698100342E-013
  0.44210000000000005          1.5341530722329430E-013
  0.44320000000000004          1.2923786833746348E-013
  0.44430000000000003          1.0368318352345063E-013
  0.44540000000000002          7.6491720484396269E-014
  0.44650000000000001          4.8478609618843309E-014
  0.44760000000000000          2.1112073221311642E-014
  0.44869999999999999         -4.2689471109932443E-015
  0.44980000000000009         -2.7077505995927071E-014
  0.45090000000000008         -4.7580300890806549E-014
  0.45200000000000007         -6.6495267974595208E-014
  0.45310000000000006         -8.4422717936772986E-014
  0.45420000000000005         -1.0149901397231508E-013
  0.45530000000000004         -1.1744192456144905E-013
  0.45640000000000003         -1.3185649295773662E-013
  0.45750000000000002         -1.4451660889809028E-013
  0.45860000000000001         -1.5542216651615667E-013
  0.45970000000000000         -1.6465626493798661E-013
  0.46079999999999999         -1.7223422542656489E-013
  0.46190000000000009         -1.7811494657921292E-013
  0.46300000000000008         -1.8236864046123831E-013
  0.46410000000000007         -1.8532673566319657E-013
  0.46520000000000006         -1.8753142592751751E-013
  0.46630000000000005         -1.8946776353582553E-013
  0.46740000000000004         -1.9126320308512137E-013
  0.46850000000000003         -1.9260375237661991E-013
  0.46960000000000002         -1.9297456532173238E-013
  0.47070000000000001         -1.9208554687144151E-013
  0.47180000000000000         -1.9018163811092922E-013
  0.47289999999999999         -1.8799697029990460E-013
  0.47400000000000009         -1.8635864333604899E-013
  0.47510000000000008         -1.8569890817717339E-013
  0.47620000000000007         -1.8580554960692076E-013
  0.47730000000000006         -1.8597429819152668E-013
  0.47840000000000005         -1.8544676398343542E-013