 -0.12000000000000000          0.0000000000000000     
 -0.11889999999999999          7.2353154725806230E-015
 -0.11780000000000000          1.8694440250473709E-014
 -0.11670000000000000          3.0288925510985845E-014
 -0.11559999999999999          3.8409433481726947E-014
 -0.11449999999999999          4.1124835877479980E-014
 -0.11340000000000000          3.8507149862133815E-014
 -0.11230000000000000          3.2055537878515534E-014
 -0.11119999999999999          2.3655015769272888E-014
 -0.11009999999999999          1.4681995252639137E-014
 -0.10900000000000000          5.6819041194011429E-015
 -0.10790000000000000         -3.3633302549033583E-015
 -0.10679999999999999         -1.2522900276176926E-014
 -0.10569999999999999         -2.1602242669964352E-014
 -0.10460000000000000         -3.0259121293719253E-014
 -0.10349999999999999         -3.8425951091363179E-014
 -0.10239999999999999         -4.6655356285921755E-014
 -0.10130000000000000         -5.6026582400583573E-014
 -0.10020000000000000         -6.7542741903211519E-014
  -9.9099999999999994E-002    -8.1324607423789695E-014
  -9.7999999999999990E-002    -9.6114127466369293E-014
  -9.6899999999999986E-002    -1.0948892889415764E-013
  -9.5799999999999996E-002    -1.1880315024034624E-013
  -9.4699999999999993E-002    -1.2243280925309271E-013
  -9.3599999999999989E-002    -1.2067954336849135E-013
  -9.2499999999999999E-002    -1.1582161320428767E-013
  -9.1399999999999995E-002    -1.1123127625602254E-013
  -9.0299999999999991E-002    -1.0996725413788179E-013
  -8.9200000000000002E-002    -1.1352540393173458E-013
  -8.8099999999999984E-002    -1.2134116261084251E-013
  -8.6999999999999994E-002    -1.3123958998989808E-013
  -8.5899999999999990E-002    -1.4054943413510537E-013
  -8.4799999999999986E-002    -1.4729504247817056E-013
  -8.3699999999999997E-002    -1.5090281791158460E-013
  -8.2599999999999993E-002    -1.5216407542660594E-013
  -8.1499999999999989E-002    -1.5259474328041803E-013
  -8.0399999999999999E-002    -1.5360118494221017E-013
  -7.9299999999999995E-002    -1.5587789105247984E-013
  -7.8199999999999992E-002    -1.5925845379931867E-013
  -7.7100000000000002E-002    -1.6296647765732496E-013
  -7.5999999999999984E-002    -1.6603165848067692E-013
  -7.4899999999999994E-002    -1.6763079664484239E-013
  -7.3799999999999991E-002    -1.6724371053507345E-013
  -7.2699999999999987E-002    -1.6466493210028451E-013
  -7.1599999999999997E-002    -1.5997877789608553E-013
  -7.0499999999999993E-002    -1.5355965276343504E-013
  -6.9399999999999989E-002    -1.4606244207840150E-013
  -6.8300000000000000E-002    -1.3831376326800094E-013
  -6.7199999999999996E-002    -1.3105927200672920E-013
  -6.6099999999999992E-002    -1.2463850858754651E-013
  -6.5000000000000002E-002    -1.1875917137804817E-013
  -6.3899999999999985E-002    -1.1253958160356625E-013
  -6.2799999999999995E-002    -1.0486235182254564E-013
  -6.1699999999999991E-002    -9.4900538552891917E-014
  -6.0599999999999994E-002    -8.2554033379780042E-014
  -5.9499999999999990E-002    -6.8555404032885245E-014
  -5.8399999999999994E-002    -5.4169441561280394E-014
  -5.7299999999999990E-002    -4.0628083575319569E-014
  -5.6199999999999986E-002    -2.8585325407652554E-014
  -5.5099999999999996E-002    -1.7861046676287993E-014
  -5.3999999999999992E-002    -7.5803151669018318E-015
  -5.2899999999999989E-002     3.3955703491205361E-015
  -5.1799999999999985E-002     1.5985378967346452E-014
  -5.0699999999999995E-002     3.0580204643955508E-014
  -4.9599999999999991E-002     4.7006223712345725E-014
  -4.8499999999999988E-002     6.4690377500332784E-014
  -4.7399999999999998E-002     8.2874345923199574E-014
  -4.6299999999999994E-002     1.0075379899430662E-013
  -4.5199999999999990E-002     1.1752956088871632E-013
  -4.4099999999999986E-002     1.3245325936180764E-013
  -4.2999999999999997E-002     1.4495611681697880E-013
  -4.1899999999999993E-002     1.5486089388926903E-013
  -4.0799999999999989E-002     1.6256122855281693E-013
  -3.9699999999999985E-002     1.6900696883732894E-013
  -3.8599999999999995E-002     1.7540870843158372E-013
  -3.7499999999999992E-002     1.8273893371122414E-013
  -3.6399999999999988E-002     1.9125746987083868E-013
  -3.5299999999999984E-002     2.0032137322686645E-013
  -3.4199999999999994E-002     2.0861448820471923E-013
  -3.3099999999999991E-002     2.1471239849873698E-013
  -3.1999999999999987E-002     2.1771059309169272E-013
  -3.0899999999999997E-002     2.1760348320815095E-013
  -2.9799999999999993E-002     2.1523694441626872E-013
  -2.8699999999999989E-002     2.1189121430670189E-013
  -2.7599999999999986E-002     2.0874282675874274E-013
  -2.6499999999999996E-002     2.0649304042522889E-013
  -2.5399999999999992E-002     2.0531685837292497E-013
  -2.4299999999999988E-002     2.0507431097212998E-013
  -2.3199999999999985E-002     2.0557064648114214E-013
  -2.2099999999999995E-002     2.0665543891530875E-013
  -2.0999999999999991E-002     2.0810162645089284E-013
  -1.9899999999999987E-002     2.0939945310237949E-013
  -1.8799999999999983E-002     2.0969571145106059E-013
  -1.7699999999999994E-002     2.0803278970849074E-013
  -1.6599999999999990E-002     2.0383198790630134E-013
  -1.5499999999999986E-002     1.9735966910092798E-013
  -1.4399999999999996E-002     1.8985673725444582E-013
  -1.3299999999999992E-002     1.8316099457175094E-013
  -1.2199999999999989E-002     1.7893695231274832E-013
  -1.1099999999999985E-002     1.7788103038412492E-013
  -9.9999999999999950E-003     1.7933182070494482E-013
  -8.8999999999999913E-003     1.8153023006755038E-013
  -7.7999999999999875E-003     1.8243437355920949E-013
  -6.6999999999999837E-003     1.8068858256413205E-013
  -5.5999999999999939E-003     1.7625110747426544E-013
  -4.4999999999999901E-003     1.7036087857223849E-013
  -3.3999999999999864E-003     1.6487380270907268E-013
  -2.2999999999999826E-003     1.6132845971510121E-013
  -1.1999999999999927E-003     1.6022772988042167E-013
  -9.9999999999988987E-005     1.6088212330815607E-013
   1.0000000000000148E-003     1.6184317825254133E-013
   2.1000000000000185E-003     1.6164432146724507E-013
   3.2000000000000084E-003     1.5943550620825094E-013
   4.3000000000000121E-003     1.5520476874594633E-013
   5.4000000000000159E-003     1.4954361429435667E-013
   6.5000000000000058E-003     1.4316933907678387E-013
   7.6000000000000234E-003     1.3651825157091144E-013
   8.7000000000000133E-003     1.2962802245941309E-013
   9.8000000000000032E-003     1.2231371708746785E-013
   1.0900000000000021E-002     1.1445502073682275E-013
   1.2000000000000011E-002     1.0616629894464777E-013
   1.3100000000000001E-002     9.7732090313274090E-014
   1.4200000000000018E-002     8.9372399464985130E-014
   1.5300000000000008E-002     8.1026963447497032E-014
   1.6400000000000026E-002     7.2332753027480957E-014
   1.7500000000000016E-002     6.2827459165013021E-014
   1.8600000000000005E-002     5.2243898591936193E-014
   1.9700000000000023E-002     4.0682800795196011E-014
   2.0800000000000013E-002     2.8521362507342533E-014
   2.1900000000000003E-002     1.6090340246472433E-014
   2.3000000000000020E-002     3.3192174579523466E-015
   2.4100000000000010E-002    -1.0405794239994841E-014
   2.5200000000000000E-002    -2.6039660912299354E-014
   2.6300000000000018E-002    -4.4409361730060897E-014
   2.7400000000000008E-002    -6.5730054285303831E-014
   2.8500000000000025E-002    -8.9390185226156788E-014
   2.9600000000000015E-002    -1.1415030847590029E-013
   3.0700000000000005E-002    -1.3866958719934112E-013
   3.1800000000000023E-002    -1.6208661653049252E-013
   3.2900000000000013E-002    -1.8434785026734495E-013
   3.4000000000000002E-002    -2.0611750156397357E-013
   3.5100000000000020E-002    -2.2833480096348613E-013
   3.6200000000000010E-002    -2.5167380999548088E-013
   3.7300000000000028E-002    -2.7619951191017953E-013
   3.8400000000000017E-002    -3.0138871522751847E-013
   3.9500000000000007E-002    -3.2647072627791270E-013
   4.0600000000000025E-002    -3.5087065052468047E-013
   4.1700000000000015E-002    -3.7450078046215229E-013
   4.2800000000000005E-002    -3.9775465853814390E-013
   4.3900000000000022E-002    -4.2124050486371342E-013
   4.5000000000000012E-002    -4.4543370524527365E-013
   4.6100000000000002E-002    -4.7045278217993687E-013
   4.7200000000000020E-002    -4.9606587150427007E-013
   4.8300000000000010E-002    -5.2188568027840876E-013
   4.9400000000000027E-002    -5.4760263870465903E-013
   5.0500000000000017E-002    -5.7310218441342876E-013
   5.1600000000000007E-002    -5.9840476974737371E-013
   5.2700000000000025E-002    -6.2348949458579019E-013
   5.3800000000000014E-002    -6.4813739946327087E-013
   5.4900000000000004E-002    -6.7191055035118767E-013
   5.6000000000000022E-002    -6.9429024534587556E-013
   5.7100000000000012E-002    -7.1489234579050143E-013
   5.8200000000000002E-002    -7.3362604533693097E-013
   5.9300000000000019E-002    -7.5069703370460891E-013
   6.0400000000000009E-002    -7.6644578307608372E-013
   6.1500000000000027E-002    -7.8110543565336602E-013
   6.2600000000000017E-002    -7.9460058012783983E-013
   6.3700000000000007E-002    -8.0647572327448505E-013
   6.4800000000000024E-002    -8.1596669300206082E-013
   6.5900000000000014E-002    -8.2216099863642000E-013
   6.7000000000000004E-002    -8.2417184810867725E-013
   6.8100000000000022E-002    -8.2127755960476700E-013
   6.9200000000000012E-002    -8.1302424238038472E-013
   7.0300000000000029E-002    -7.9931410104323792E-013
   7.1400000000000019E-002    -7.8048517366050285E-013
   7.2500000000000009E-002    -7.5734673700895505E-013
   7.3600000000000027E-002    -7.3110795397530444E-013
   7.4700000000000016E-002    -7.0315588714054121E-013
   7.5800000000000006E-002    -6.7470679472606295E-013
   7.6900000000000024E-002    -6.4643718271313792E-013
   7.8000000000000014E-002    -6.1824399950922925E-013
   7.9100000000000004E-002    -5.8925396350421262E-013
   8.0200000000000021E-002    -5.5810314984817521E-013
   8.1300000000000011E-002    -5.2338870058786855E-013
   8.2400000000000029E-002    -4.8411591187719502E-013
   8.3500000000000019E-002    -4.3997216996653740E-013
   8.4600000000000009E-002    -3.9134627116840112E-013
   8.5700000000000026E-002    -3.3913321389168900E-013
   8.6800000000000016E-002    -2.8445479489914855E-013
   8.7900000000000006E-002    -2.2843934938713496E-013
   8.9000000000000024E-002    -1.7214126484031159E-013
   9.0100000000000013E-002    -1.1658268036686926E-013
   9.1200000000000003E-002    -6.2825429094087129E-014
   9.2300000000000021E-002    -1.1970762245308611E-014
   9.3400000000000011E-002     3.4961595773761224E-014
   9.4500000000000028E-002     7.7241744659018460E-014
   9.5600000000000018E-002     1.1463104458728064E-013
   9.6700000000000008E-002     1.4747584704739619E-013
   9.7800000000000026E-002     1.7663907513333364E-013
   9.8900000000000016E-002     2.0328557646269567E-013
  0.10000000000000001          2.2859145371780549E-013
  0.10110000000000002          2.5346442354891199E-013
  0.10220000000000001          2.7834122458436149E-013
  0.10330000000000003          3.0309289919587223E-013
  0.10440000000000002          3.2704011155847894E-013
  0.10550000000000001          3.4906979399372892E-013
  0.10660000000000003          3.6784118961847221E-013
  0.10770000000000002          3.8205908866067603E-013
  0.10880000000000001          3.9076916222398611E-013
  0.10990000000000003          3.9360476121662260E-013
  0.11100000000000002          3.9090821470644923E-013
  0.11210000000000001          3.8367997356300045E-013
  0.11320000000000002          3.7337108944654715E-013
  0.11430000000000001          3.6160079811732627E-013
  0.11540000000000003          3.4991336223691440E-013
  0.11650000000000002          3.3966330120888814E-013
  0.11760000000000001          3.3204384130672215E-013
  0.11870000000000003          3.2818711163031959E-013
  0.11980000000000002          3.2921803423758776E-013
  0.12090000000000001          3.3616637701377812E-013
  0.12200000000000003          3.4972696885425104E-013
  0.12310000000000001          3.6995960234285756E-013
  0.12420000000000003          3.9608268697333632E-013
  0.12530000000000002          4.2649433714830371E-013
  0.12640000000000001          4.5906242969028649E-013
  0.12750000000000003          4.9160282926033090E-013
  0.12860000000000002          5.2237777195800389E-013
  0.12970000000000001          5.5043874963413284E-013
  0.13080000000000003          5.7571123141683096E-013
  0.13190000000000002          5.9883124523847273E-013
  0.13300000000000001          6.2083715861923691E-013
  0.13410000000000000          6.4285026315929494E-013
  0.13520000000000004          6.6584003651374145E-013
  0.13630000000000003          6.9049599637008615E-013
  0.13740000000000002          7.1716747566658198E-013
  0.13850000000000001          7.4581643912812481E-013
  0.13960000000000000          7.7596024701026998E-013
  0.14070000000000005          8.0662877349790036E-013
  0.14180000000000004          8.3638665558916703E-013
  0.14290000000000003          8.6345804922677235E-013
  0.14400000000000002          8.8594396211164862E-013
  0.14510000000000001          9.0207434053634697E-013
  0.14620000000000000          9.1041948072638435E-013
  0.14730000000000004          9.1001044348280141E-013
  0.14840000000000003          9.0036454502027256E-013
  0.14950000000000002          8.8145554888666177E-013
  0.15060000000000001          8.5367425882375346E-013
  0.15170000000000000          8.1780067660997074E-013
  0.15280000000000005          7.7496835953184074E-013
  0.15390000000000004          7.2658345490761531E-013
  0.15500000000000003          6.7417607455800961E-013
  0.15610000000000002          6.1920546033096810E-013
  0.15720000000000001          5.6287796436241084E-013
  0.15830000000000000          5.0604266222340972E-013
  0.15940000000000004          4.4919226479147833E-013
  0.16050000000000003          3.9253770470000818E-013
  0.16160000000000002          3.3608511591733276E-013
  0.16270000000000001          2.7965119947592606E-013
  0.16380000000000000          2.2280611501195265E-013
  0.16490000000000005          1.6480486878853493E-013
  0.16600000000000004          1.0460496365058453E-013
  0.16710000000000003          4.1044260428289320E-014
  0.16820000000000002         -2.6827703368030125E-014
  0.16930000000000001         -9.9366241877792942E-014
  0.17040000000000000         -1.7604942113972442E-013
  0.17150000000000004         -2.5542715851464692E-013
  0.17260000000000003         -3.3533976098487288E-013
  0.17370000000000002         -4.1333093589828082E-013
  0.17480000000000001         -4.8710529462891105E-013
  0.17590000000000000         -5.5488100814911756E-013
  0.17700000000000005         -6.1555520642860802E-013
  0.17810000000000004         -6.6869555001571040E-013
  0.17920000000000003         -7.1443466307116537E-013
  0.18030000000000002         -7.5335212247013073E-013
  0.18140000000000001         -7.8638388744791302E-013
  0.18250000000000000         -8.1474115261707221E-013
  0.18360000000000004         -8.3979408673852374E-013
  0.18470000000000003         -8.6289509790944387E-013
  0.18580000000000002         -8.8516596928883027E-013
  0.18690000000000001         -9.0731608966896933E-013
  0.18800000000000000         -9.2956074673249477E-013
  0.18910000000000005         -9.5166329325737243E-013
  0.19020000000000004         -9.7306847070739785E-013
  0.19130000000000003         -9.9305032225729555E-013
  0.19240000000000002         -1.0108097214868877E-012
  0.19350000000000001         -1.0255022789651413E-012
  0.19460000000000005         -1.0362343651068385E-012
  0.19570000000000004         -1.0420858134175897E-012
  0.19680000000000003         -1.0421947000870334E-012
  0.19790000000000002         -1.0358870711227775E-012
  0.19900000000000001         -1.0227864872079571E-012
  0.20010000000000000         -1.0028411411694457E-012
  0.20120000000000005         -9.7625007031463419E-013
  0.20230000000000004         -9.4333846230114750E-013
  0.20340000000000003         -9.0446441886230480E-013
  0.20450000000000002         -8.6002385432332319E-013
  0.20560000000000000         -8.1054813644417832E-013
  0.20670000000000005         -7.5680941455933141E-013
  0.20780000000000004         -6.9982337269502585E-013
  0.20890000000000003         -6.4067735913972936E-013
  0.21000000000000002         -5.8021249275284875E-013
  0.21110000000000001         -5.1868692800994781E-013
  0.21220000000000000         -4.5558571120279302E-013
  0.21330000000000005         -3.8969196033242490E-013
  0.21440000000000003         -3.1941751325483759E-013
  0.21550000000000002         -2.4327146505331088E-013
  0.21660000000000001         -1.6028377173851324E-013
  0.21770000000000000         -7.0234592404999625E-014
  0.21880000000000005          2.6357310949156336E-014
  0.21990000000000004          1.2841915741535013E-013
  0.22100000000000003          2.3455042413150447E-013
  0.22210000000000002          3.4317514764997537E-013
  0.22320000000000001          4.5258193635453154E-013
  0.22430000000000000          5.6089888365509894E-013
  0.22540000000000004          6.6609372206152455E-013
  0.22650000000000003          7.6606865761420674E-013
  0.22760000000000002          8.5885448154543998E-013
  0.22870000000000001          9.4284211239462702E-013
  0.22980000000000000          1.0169640348113280E-012
  0.23090000000000005          1.0807599923014031E-012
  0.23200000000000004          1.1343184468462227E-012
  0.23310000000000003          1.1781321253634822E-012
  0.23420000000000002          1.2129244036068190E-012
  0.23530000000000001          1.2394894078450248E-012
  0.23640000000000000          1.2585582225964052E-012
  0.23750000000000004          1.2706883389253315E-012
  0.23860000000000003          1.2761747620811446E-012
  0.23970000000000002          1.2750018079790049E-012
  0.24080000000000001          1.2668598481780677E-012
  0.24190000000000000          1.2512355356244397E-012
  0.24300000000000005          1.2275526322228121E-012
  0.24410000000000004          1.1953072842822877E-012
  0.24520000000000003          1.1541447261201989E-012
  0.24630000000000002          1.1038554581289467E-012
  0.24740000000000001          1.0443250409694637E-012
  0.24850000000000005          9.7550744452531147E-013
  0.24960000000000004          8.9749009558908433E-013
  0.25070000000000003          8.1066474263061785E-013
  0.25180000000000002          7.1595007565212138E-013
  0.25290000000000001          6.1495923040194741E-013
  0.25400000000000000          5.1000705448034935E-013
  0.25510000000000005          4.0390877074907182E-013
  0.25620000000000004          2.9960776501674027E-013
  0.25730000000000003          1.9974052302556483E-013
  0.25840000000000002          1.0627193704653533E-013
  0.25950000000000001          2.0302653979035442E-014
  0.26060000000000005         -5.7916086853571751E-014
  0.26170000000000004         -1.2879229203487395E-013
  0.26280000000000003         -1.9310350034882327E-013
  0.26390000000000002         -2.5169341733144878E-013
  0.26500000000000001         -3.0522492324009843E-013
  0.26610000000000000         -3.5403554135561397E-013
  0.26720000000000005         -3.9811558229872885E-013
  0.26830000000000004         -4.3720329583776164E-013
  0.26940000000000003         -4.7096381432232052E-013
  0.27050000000000002         -4.9918904110315176E-013
  0.27160000000000001         -5.2193934341707133E-013
  0.27270000000000005         -5.3955999249000599E-013
  0.27380000000000004         -5.5254934286203911E-013
  0.27490000000000003         -5.6132116795426047E-013
  0.27600000000000002         -5.6596141392214779E-013
  0.27710000000000001         -5.6609466822014077E-013
  0.27820000000000000         -5.6093939491788036E-013
  0.27930000000000005         -5.4955253494359071E-013
  0.28040000000000004         -5.3118279699791676E-013
  0.28150000000000003         -5.0560656883098468E-013
  0.28260000000000002         -4.7333208810356140E-013
  0.28370000000000001         -4.3561604004363834E-013
  0.28480000000000005         -3.9431069047178434E-013
  0.28590000000000004         -3.5160862326739005E-013
  0.28700000000000003         -3.0976251197805521E-013
  0.28810000000000002         -2.7083035327126614E-013
  0.28920000000000001         -2.3646496766750909E-013
  0.29030000000000000         -2.0775038762734353E-013
  0.29140000000000005         -1.8509696084551014E-013
  0.29250000000000004         -1.6822465217130851E-013
  0.29360000000000003         -1.5626742127765622E-013
  0.29470000000000002         -1.4800344419372004E-013
  0.29580000000000001         -1.4216613550035780E-013
  0.29690000000000005         -1.3774552259308681E-013
  0.29800000000000004         -1.3417987617798942E-013
  0.29910000000000003         -1.3137591980581579E-013
  0.30020000000000002         -1.2956854553928253E-013
  0.30130000000000001         -1.2910048867296614E-013
  0.30240000000000000         -1.3023439711925797E-013
  0.30350000000000005         -1.3308568172448234E-013
  0.30460000000000004         -1.3769909708669944E-013
  0.30570000000000003         -1.4421875873078794E-013
  0.30680000000000002         -1.5305672697653965E-013
  0.30790000000000001         -1.6496820085494475E-013
  0.30900000000000005         -1.8098476077149989E-013
  0.31010000000000004         -2.0221643786903260E-013
  0.31120000000000003         -2.2958145160235456E-013
  0.31230000000000002         -2.6354238135828197E-013
  0.31340000000000001         -3.0392154895157247E-013
  0.31450000000000006         -3.4984335339105476E-013
  0.31560000000000005         -3.9982220366826956E-013
  0.31670000000000004         -4.5198313503176924E-013
  0.31780000000000003         -5.0437235937702216E-013
  0.31890000000000002         -5.5528678904767705E-013
  0.32000000000000001         -6.0353936417516353E-013
  0.32110000000000005         -6.4858306409881744E-013
  0.32220000000000004         -6.9045915180279307E-013
  0.32330000000000003         -7.2959269355702828E-013
  0.32440000000000002         -7.6651814887391031E-013
  0.32550000000000001         -8.0164516958697992E-013
  0.32660000000000006         -8.3515555030179865E-013
  0.32770000000000005         -8.6705981345013299E-013
  0.32880000000000004         -8.9736569143958497E-013
  0.32990000000000003         -9.2625754064937338E-013
  0.33100000000000002         -9.5418001879584662E-013
  0.33210000000000001         -9.8176620122130006E-013
  0.33320000000000005         -1.0096240132846357E-012
  0.33430000000000004         -1.0380626062757430E-012
  0.33540000000000003         -1.0668657730437934E-012
  0.33650000000000002         -1.0952045489796774E-012
  0.33760000000000001         -1.1217263892306396E-012
  0.33870000000000006         -1.1447976423387511E-012
  0.33980000000000005         -1.1628318837243376E-012
  0.34090000000000004         -1.1746163002990890E-012
  0.34200000000000003         -1.1795548583163048E-012
  0.34310000000000002         -1.1777695944564681E-012
  0.34420000000000001         -1.1700361761854677E-012
  0.34530000000000005         -1.1575659055100810E-012
  0.34640000000000004         -1.1416895341954483E-012
  0.34750000000000003         -1.1235303511458127E-012
  0.34860000000000002         -1.1037649695395727E-012
  0.34970000000000001         -1.0825512671502531E-012
  0.35080000000000006         -1.0596472578132012E-012
  0.35190000000000005         -1.0346699522728787E-012
  0.35300000000000004         -1.0073863764114158E-012
  0.35410000000000003         -9.7790649168701399E-013
  0.35520000000000002         -9.4668929392314962E-013
  0.35630000000000001         -9.1435264022314940E-013
  0.35740000000000005         -8.8136613731733273E-013
  0.35850000000000004         -8.4776403813140762E-013
  0.35960000000000003         -8.1300882096221186E-013
  0.36070000000000002         -7.7607484109539103E-013
  0.36180000000000001         -7.3573103268666371E-013
  0.36290000000000006         -6.9092416397663071E-013
  0.36400000000000005         -6.4112912736682012E-013
  0.36510000000000004         -5.8655573410919072E-013
  0.36620000000000003         -5.2815837954376572E-013
  0.36730000000000002         -4.6746368620472444E-013
  0.36840000000000006         -4.0627952245021565E-013
  0.36950000000000005         -3.4636728725296973E-013
  0.37060000000000004         -2.8915089794512054E-013
  0.37170000000000003         -2.3551334563470344E-013
  0.37280000000000002         -1.8570884204121779E-013
  0.37390000000000001         -1.3939824762001936E-013
  0.37500000000000006         -9.5797573021408089E-014
  0.37610000000000005         -5.3908332047952915E-014
  0.37720000000000004         -1.2777470701217797E-014
  0.37830000000000003          2.8279936972360074E-014
  0.37940000000000002          6.9558223139964328E-014
  0.38050000000000006          1.1097506695492440E-013
  0.38160000000000005          1.5221280447408613E-013
  0.38270000000000004          1.9293025425621532E-013
  0.38380000000000003          2.3295758676774136E-013
  0.38490000000000002          2.7238913777556607E-013
  0.38600000000000001          3.1152647047596457E-013
  0.38710000000000000          3.5068394502255606E-013
  0.38819999999999999          3.8992998158053830E-013
  0.38930000000000009          4.2887153061489169E-013
  0.39040000000000008          4.6658409551789758E-013
  0.39150000000000007          5.0174125579429099E-013
  0.39260000000000006          5.3292462729534952E-013
  0.39370000000000005          5.5902447393222820E-013
  0.39480000000000004          5.7959818534773081E-013
  0.39590000000000003          5.9506093642923472E-013
  0.39700000000000002          6.0663394144803660E-013
  0.39810000000000001          6.1605715982109893E-013
  0.39920000000000000          6.2515235511789152E-013
  0.40029999999999999          6.3536962727367114E-013
  0.40140000000000009          6.4745204980675296E-013
  0.40250000000000008          6.6130929603559710E-013
  0.40360000000000007          6.7612132968525843E-013
  0.40470000000000006          6.9062406536943650E-013
  0.40580000000000005          7.0348068610153075E-013
  0.40690000000000004          7.1362957987055326E-013
  0.40800000000000003          7.2051593239735638E-013
  0.40910000000000002          7.2415341412691477E-013
  0.41020000000000001          7.2501148530466428E-013
  0.41130000000000000          7.2376967131177812E-013
  0.41239999999999999          7.2101932867648471E-013
  0.41350000000000009          7.1701081603305213E-013
  0.41460000000000008          7.1153635615323010E-013
  0.41570000000000007          7.0399892847100799E-013
  0.41680000000000006          6.9365371475006162E-013
  0.41790000000000005          6.7994023933243938E-013
  0.41900000000000004          6.6277790599027532E-013
  0.42010000000000003          6.4269835074428780E-013
  0.42120000000000002          6.2074456437469908E-013
  0.42230000000000001          5.9815865572040567E-013
  0.42340000000000000          5.7596838049972315E-013
  0.42449999999999999          5.5463178571594373E-013
  0.42560000000000009          5.3387836218146277E-013
  0.42670000000000008          5.1280780785993617E-013
  0.42780000000000007          4.9020395236574456E-013
  0.42890000000000006          4.6494028333870556E-013
  0.43000000000000005          4.3632533827089578E-013
  0.43110000000000004          4.0427192665414141E-013
  0.43220000000000003          3.6924817705692063E-013
  0.43330000000000002          3.3204889637568245E-013
  0.43440000000000001          2.9348037392954043E-013
  0.43550000000000000          2.5406575315453739E-013
  0.43659999999999999          2.1386021585003915E-013
  0.43770000000000009          1.7242688043483877E-013
  0.43880000000000008          1.2898058630653121E-013
  0.43990000000000007          8.2664172692995251E-014
  0.44100000000000006          3.2883163576845613E-014
  0.44210000000000005         -2.0402618621895436E-014
  0.44320000000000004         -7.6535969347001542E-014
  0.44430000000000003         -1.3424120635979089E-013
  0.44540000000000002         -1.9192930355038394E-013
  0.44650000000000001         -2.4814699666304748E-013
  0.44760000000000000         -3.0201979972927025E-013
  0.44869999999999999         -3.5352401958312303E-013
  0.44980000000000009         -4.0347894142078158E-013
  0.45090000000000008         -4.5325578470030778E-013
  0.45200000000000007         -5.0431156166331841E-013
  0.45310000000000006         -5.5771971039340222E-013
  0.45420000000000005         -6.1385940217234353E-013
  0.45530000000000004         -6.7234845784004801E-013
  0.45640000000000003         -7.3220244790586924E-013
  0.45750000000000002         -7.9212692713910787E-013
  0.45860000000000001         -8.5082724687235594E-013
  0.45970000000000000         -9.0725163132791687E-013
  0.46079999999999999         -9.6073242032278404E-013
  0.46190000000000009         -1.0110301614735208E-012
  0.46300000000000008         -1.0582898552501273E-012
  0.46410000000000007         -1.1029132268408097E-012
  0.46520000000000006         -1.1453508163219143E-012
  0.46630000000000005         -1.1858416655049366E-012
  0.46740000000000004         -1.2241775652148479E-012
  0.46850000000000003         -1.2595940500281609E-012
  0.46960000000000002         -1.2908719573483307E-012
  0.47070000000000001         -1.3166557814884214E-012
  0.47180000000000000         -1.3358876401202175E-012
  0.47289999999999999         -1.3481803069239826E-012
  0.47400000000000009         -1.3539521601875628E-012
  0.47510000000000008         -1.3542401519666393E-012
  0.47620000000000007         -1.3502515371523815E-012
  0.47730000000000006         -1.3428374200061154E-012
  0.47840000000000005         -1.3321162773468861E-012