 -0.12000000000000000          0.0000000000000000     
 -0.11889999999999999          2.3983400246061445E-014
 -0.11780000000000000          6.5024460858076409E-014
 -0.11670000000000000          1.1225947355914202E-013
 -0.11559999999999999          1.5418771804887302E-013
 -0.11449999999999999          1.8202581822830727E-013
 -0.11340000000000000          1.9203155935070370E-013
 -0.11230000000000000          1.8612114659143934E-013
 -0.11119999999999999          1.7071732427654414E-013
 -0.11009999999999999          1.5434836858093066E-013
 -0.10900000000000000          1.4486501191383012E-013
 -0.10790000000000000          1.4716199712175452E-013
 -0.10679999999999999          1.6202058417221808E-013
 -0.10569999999999999          1.8626471278556553E-013
 -0.10460000000000000          2.1401049855548148E-013
 -0.10349999999999999          2.3851487548839406E-013
 -0.10239999999999999          2.5404742529370474E-013
 -0.10130000000000000          2.5729883362328312E-013
 -0.10020000000000000          2.4803491641118707E-013
  -9.9099999999999994E-002     2.2893076558465203E-013
  -9.7999999999999990E-002     2.0471819724537472E-013
  -9.6899999999999986E-002     1.8091681943159312E-013
  -9.5799999999999996E-002     1.6248239103223872E-013
  -9.4699999999999993E-002     1.5269430537647760E-013
  -9.3599999999999989E-002     1.5252376804265904E-013
  -9.2499999999999999E-002     1.6059566431330530E-013
  -9.1399999999999995E-002     1.7370817140246821E-013
  -9.0299999999999991E-002     1.8774362851475915E-013
  -8.9200000000000002E-002     1.9872429716419675E-013
  -8.8099999999999984E-002     2.0375615152111970E-013
  -8.6999999999999994E-002     2.0165558948811638E-013
  -8.5899999999999990E-002     1.9314501904261819E-013
  -8.4799999999999986E-002     1.8060266576524809E-013
  -8.3699999999999997E-002     1.6743844857483382E-013
  -8.2599999999999993E-002     1.5723168734206961E-013
  -8.1499999999999989E-002     1.5281042223634931E-013
  -8.0399999999999999E-002     1.5547615252568332E-013
  -7.9299999999999995E-002     1.6457263186977313E-013
  -7.8199999999999992E-002     1.7754711396712711E-013
  -7.7100000000000002E-002     1.9054670053703297E-013
  -7.5999999999999984E-002     1.9944268748053661E-013
  -7.4899999999999994E-002     2.0102214326050377E-013
  -7.3799999999999991E-002     1.9398986947754050E-013
  -7.2699999999999987E-002     1.7943832319443134E-013
  -7.1599999999999997E-002     1.6058749014042192E-013
  -7.0499999999999993E-002     1.4183501195980411E-013
  -6.9399999999999989E-002     1.2740603277552056E-013
  -6.8300000000000000E-002     1.2005228933839388E-013
  -6.7199999999999996E-002     1.2024968404102241E-013
  -6.6099999999999992E-002     1.2617065838175095E-013
  -6.5000000000000002E-002     1.3442593845978522E-013
  -6.3899999999999985E-002     1.4128688248461772E-013
  -6.2799999999999995E-002     1.4393047698659260E-013
  -6.1699999999999991E-002     1.4125966770961442E-013
  -6.0599999999999994E-002     1.3403593163830665E-013
  -5.9499999999999990E-002     1.2434009964562181E-013
  -5.8399999999999994E-002     1.1463511875580063E-013
  -5.7299999999999990E-002     1.0683625050738164E-013
  -5.6199999999999986E-002     1.0175248177901767E-013
  -5.5099999999999996E-002     9.9073865457142502E-014
  -5.3999999999999992E-002     9.7830277176256724E-014
  -5.2899999999999989E-002     9.7048091136610397E-014
  -5.1799999999999985E-002     9.6266489787590332E-014
  -5.0699999999999995E-002     9.5667505655590617E-014
  -4.9599999999999991E-002     9.5777722814594144E-014
  -4.8499999999999988E-002     9.6918334665349713E-014
  -4.7399999999999998E-002     9.8713217985124120E-014
  -4.6299999999999994E-002     9.9948301639310715E-014
  -4.5199999999999990E-002     9.8914458901303558E-014
  -4.4099999999999986E-002     9.4130934050571532E-014
  -4.2999999999999997E-002     8.5144532266931139E-014
  -4.1899999999999993E-002     7.3027033266733931E-014
  -4.0799999999999989E-002     6.0291203076146716E-014
  -3.9699999999999985E-002     5.0180002880368928E-014
  -3.8599999999999995E-002     4.5556135260321706E-014
  -3.7499999999999992E-002     4.7811792007223605E-014
  -3.6399999999999988E-002     5.6241925506100033E-014
  -3.5299999999999984E-002     6.8161875485947550E-014
  -3.4199999999999994E-002     7.9763868876809862E-014
  -3.3099999999999991E-002     8.7414272985174676E-014
  -3.1999999999999987E-002     8.8915302745077801E-014
  -3.0899999999999997E-002     8.4264510243103979E-014
  -2.9799999999999993E-002     7.5637204774328224E-014
  -2.8699999999999989E-002     6.6611323654537660E-014
  -2.7599999999999986E-002     6.0932004500917907E-014
  -2.6499999999999996E-002     6.1268182805804690E-014
  -2.5399999999999992E-002     6.8392430613423431E-014
  -2.4299999999999988E-002     8.1038989640872215E-014
  -2.3199999999999985E-002     9.6439626478990569E-014
  -2.2099999999999995E-002     1.1130371631829797E-013
  -2.0999999999999991E-002     1.2287889041918308E-013
  -1.9899999999999987E-002     1.2973708339444826E-013
  -1.8799999999999983E-002     1.3205912144649721E-013
  -1.7699999999999994E-002     1.3138156257050703E-013
  -1.6599999999999990E-002     1.2995055453619984E-013
  -1.5499999999999986E-002     1.2993977979204633E-013
  -1.4399999999999996E-002     1.3280335124270913E-013
  -1.3299999999999992E-002     1.3895694035711407E-013
  -1.2199999999999989E-002     1.4784466452827036E-013
  -1.1099999999999985E-002     1.5830831061923337E-013
  -9.9999999999999950E-003     1.6907789193191827E-013
  -8.8999999999999913E-003     1.7918138433788301E-013
  -7.7999999999999875E-003     1.8813118262204407E-013
  -6.6999999999999837E-003     1.9585753997717726E-013
  -5.5999999999999939E-003     2.0247707790535108E-013
  -4.4999999999999901E-003     2.0805366143959030E-013
  -3.3999999999999864E-003     2.1249950531067999E-013
  -2.2999999999999826E-003     2.1567762270500247E-013
  -1.1999999999999927E-003     2.1764531799002073E-013
  -9.9999999999988987E-005     2.1888404408474663E-013
   1.0000000000000148E-003     2.2034530388298262E-013
   2.1000000000000185E-003     2.2322232760578474E-013
   3.2000000000000084E-003     2.2849900516059598E-013
   4.3000000000000121E-003     2.3646293213840612E-013
   5.4000000000000159E-003     2.4642417818046731E-013
   6.5000000000000058E-003     2.5681914802606335E-013
   7.6000000000000234E-003     2.6571555334202153E-013
   8.7000000000000133E-003     2.7154497827653512E-013
   9.8000000000000032E-003     2.7376326670696845E-013
   1.0900000000000021E-002     2.7314347699843511E-013
   1.2000000000000011E-002     2.7154971346370941E-013
   1.3100000000000001E-002     2.7126054812939033E-013
   1.4200000000000018E-002     2.7411156758836142E-013
   1.5300000000000008E-002     2.8080962596670204E-013
   1.6400000000000026E-002     2.9070091597254216E-013
   1.7500000000000016E-002     3.0207869033728131E-013
   1.8600000000000005E-002     3.1288382849777196E-013
   1.9700000000000023E-002     3.2148944578593939E-013
   2.0800000000000013E-002     3.2723753528802829E-013
   2.1900000000000003E-002     3.3051957431945063E-013
   2.3000000000000020E-002     3.3240113140644364E-013
   2.4100000000000010E-002     3.3398898700407674E-013
   2.5200000000000000E-002     3.3583786699082038E-013
   2.6300000000000018E-002     3.3765876836979559E-013
   2.7400000000000008E-002     3.3844049495274101E-013
   2.8500000000000025E-002     3.3690811703134583E-013
   2.9600000000000015E-002     3.3209681349423191E-013
   3.0700000000000005E-002     3.2377942993857904E-013
   3.1800000000000023E-002     3.1256113298379907E-013
   3.2900000000000013E-002     2.9960672893484410E-013
   3.4000000000000002E-002     2.8612613792565855E-013
   3.5100000000000020E-002     2.7284611099338141E-013
   3.6200000000000010E-002     2.5969847763696760E-013
   3.7300000000000028E-002     2.4586309422949161E-013
   3.8400000000000017E-002     2.3015389487478803E-013
   3.9500000000000007E-002     2.1159231245370824E-013
   4.0600000000000025E-002     1.8992988688839000E-013
   4.1700000000000015E-002     1.6589433108093056E-013
   4.2800000000000005E-002     1.4103789100865890E-013
   4.3900000000000022E-002     1.1722359641075158E-013
   4.5000000000000012E-002     9.5935336484790291E-014
   4.6100000000000002E-002     7.7680531452834144E-014
   4.7200000000000020E-002     6.1733664935798267E-014
   4.8300000000000010E-002     4.6347460109171372E-014
   4.9400000000000027E-002     2.9378701900302210E-014
   5.0500000000000017E-002     9.1067850776824433E-015
   5.1600000000000007E-002    -1.5065554792516794E-014
   5.2700000000000025E-002    -4.2307747783179100E-014
   5.3800000000000014E-002    -7.0585594012481815E-014
   5.4900000000000004E-002    -9.7341269157558782E-014
   5.6000000000000022E-002    -1.2037392011394852E-013
   5.7100000000000012E-002    -1.3858234118558083E-013
   5.8200000000000002E-002    -1.5228400147916364E-013
   5.9300000000000019E-002    -1.6299390457994221E-013
   6.0400000000000009E-002    -1.7276410612090251E-013
   6.1500000000000027E-002    -1.8335814753068145E-013
   6.2600000000000017E-002    -1.9559331533472478E-013
   6.3700000000000007E-002    -2.0910309620008644E-013
   6.4800000000000024E-002    -2.2258886234362489E-013
   6.5900000000000014E-002    -2.3442503466851715E-013
   6.7000000000000004E-002    -2.4334136415644097E-013
   6.8100000000000022E-002    -2.4889032225964267E-013
   6.9200000000000012E-002    -2.5151567023121400E-013
   7.0300000000000029E-002    -2.5222211872947570E-013
   7.1400000000000019E-002    -2.5201835666135967E-013
   7.2500000000000009E-002    -2.5139656807419001E-013
   7.3600000000000027E-002    -2.5008063006683743E-013
   7.4700000000000016E-002    -2.4714496815885660E-013
   7.5800000000000006E-002    -2.4143659760600591E-013
   7.6900000000000024E-002    -2.3210035583324223E-013
   7.8000000000000014E-002    -2.1897010261444229E-013
   7.9100000000000004E-002    -2.0265664180299867E-013
   8.0200000000000021E-002    -1.8430406672294820E-013
   8.1300000000000011E-002    -1.6513311829718110E-013
   8.2400000000000029E-002    -1.4598061902099591E-013
   8.3500000000000019E-002    -1.2703899905575862E-013
   8.4600000000000009E-002    -1.0790505084150490E-013
   8.5700000000000026E-002    -8.7907422679515757E-014
   8.6800000000000016E-002    -6.6558382026571331E-014
   8.7900000000000006E-002    -4.3920977154083030E-014
   8.9000000000000024E-002    -2.0720674185526558E-014
   9.0100000000000013E-002     1.8576563099837354E-015
   9.1200000000000003E-002     2.2608119995395446E-014
   9.2300000000000021E-002     4.0792254140623595E-014
   9.3400000000000011E-002     5.6464012069926035E-014
   9.4500000000000028E-002     7.0479065042484695E-014
   9.5600000000000018E-002     8.4163669638150664E-014
   9.6700000000000008E-002     9.8759111424384211E-014
   9.7800000000000026E-002     1.1485504975743910E-013
   9.8900000000000016E-002     1.3203750454331108E-013
  0.10000000000000001          1.4889839321189989E-013
  0.10110000000000002          1.6341450014979500E-013
  0.10220000000000001          1.7355955873220106E-013
  0.10330000000000003          1.7792295491955208E-013
  0.10440000000000002          1.7610825648741356E-013
  0.10550000000000001          1.6877485226429815E-013
  0.10660000000000003          1.5732796740299775E-013
  0.10770000000000002          1.4339694133880775E-013
  0.10880000000000001          1.2831423457402252E-013
  0.10990000000000003          1.1278844279791126E-013
  0.11100000000000002          9.6867294302811380E-014
  0.11210000000000001          8.0154316729393841E-014
  0.11320000000000002          6.2137592926352664E-014
  0.11430000000000001          4.2454244799634257E-014
  0.11540000000000003          2.0964136624207055E-014
  0.11650000000000002         -2.3858752187968949E-015
  0.11760000000000001         -2.7812732439386718E-014
  0.11870000000000003         -5.5903929884191565E-014
  0.11980000000000002         -8.7635930073465689E-014
  0.12090000000000001         -1.2414804007424494E-013
  0.12200000000000003         -1.6633605042043016E-013
  0.12310000000000001         -2.1442736823431342E-013
  0.12420000000000003         -2.6772760595374216E-013
  0.12530000000000002         -3.2467157720458908E-013
  0.12640000000000001         -3.8319262415888162E-013
  0.12750000000000003         -4.4129175461066518E-013
  0.12860000000000002         -4.9760002063526996E-013
  0.12970000000000001         -5.5172072910552549E-013
  0.13080000000000003         -6.0421903278815272E-013
  0.13190000000000002         -6.5626098320993755E-013
  0.13300000000000001         -7.0904221803445277E-013
  0.13410000000000000         -7.6322634028532793E-013
  0.13520000000000004         -8.1860843422082865E-013
  0.13630000000000003         -8.7412700984626093E-013
  0.13740000000000002         -9.2820598087157178E-013
  0.13850000000000001         -9.7927591529311903E-013
  0.13960000000000000         -1.0262529853054451E-012
  0.14070000000000005         -1.0687739510492729E-012
  0.14180000000000004         -1.1070927436503319E-012
  0.14290000000000003         -1.1416864614446588E-012
  0.14400000000000002         -1.1727486198947881E-012
  0.14510000000000001         -1.1997952026457374E-012
  0.14620000000000000         -1.2215694463414782E-012
  0.14730000000000004         -1.2363072605696325E-012
  0.14840000000000003         -1.2422731194654089E-012
  0.14950000000000002         -1.2383634678485332E-012
  0.15060000000000001         -1.2245382347612300E-012
  0.15170000000000000         -1.2019099694680209E-012
  0.15280000000000005         -1.1724522769354316E-012
  0.15390000000000004         -1.1384366071384877E-012
  0.15500000000000003         -1.1018081150817388E-012
  0.15610000000000002         -1.0637236867064950E-012
  0.15720000000000001         -1.0244021736037605E-012
  0.15830000000000000         -9.8330669657293871E-013
  0.15940000000000004         -9.3955421970349366E-013
  0.16050000000000003         -8.9236982178539152E-013
  0.16160000000000002         -8.4141016851677540E-013
  0.16270000000000001         -7.8685182957494156E-013
  0.16380000000000000         -7.2924969843083553E-013
  0.16490000000000005         -6.6926577074117269E-013
  0.16600000000000004         -6.0741098465522500E-013
  0.16710000000000003         -5.4392114593154268E-013
  0.16820000000000002         -4.7881455071118656E-013
  0.16930000000000001         -4.1208755633860518E-013
  0.17040000000000000         -3.4394147268802836E-013
  0.17150000000000004         -2.7491766736828296E-013
  0.17260000000000003         -2.0586364632370475E-013
  0.17370000000000002         -1.3773294969845051E-013
  0.17480000000000001         -7.1302536886694975E-014
  0.17590000000000000         -6.9369148564936774E-015
  0.17700000000000005          5.5486227116923035E-014
  0.17810000000000004          1.1644264662964363E-013
  0.17920000000000003          1.7646872672821953E-013
  0.18030000000000002          2.3583586068397057E-013
  0.18140000000000001          2.9434260688532992E-013
  0.18250000000000000          3.5133104878114899E-013
  0.18360000000000004          4.0593642108091034E-013
  0.18470000000000003          4.5747160942679248E-013
  0.18580000000000002          5.0577845977813393E-013
  0.18690000000000001          5.5138200668303548E-013
  0.18800000000000000          5.9536187087699767E-013
  0.18910000000000005          6.3897752392634022E-013
  0.19020000000000004          6.8319469768020633E-013
  0.19130000000000003          7.2831020314039571E-013
  0.19240000000000002          7.7383771968596310E-013
  0.19350000000000001          8.1871035464415087E-013
  0.19460000000000005          8.6172314322319680E-013
  0.19570000000000004          9.0203874299468236E-013
  0.19680000000000003          9.3955354572214903E-013
  0.19790000000000002          9.7497910811077191E-013
  0.19900000000000001          1.0096096963177793E-012
  0.20010000000000000          1.0448736312633448E-012
  0.20120000000000005          1.0818440228152295E-012
  0.20230000000000004          1.1208973269454491E-012
  0.20340000000000003          1.1616393369956314E-012
  0.20450000000000002          1.2031118464190489E-012
  0.20560000000000000          1.2441863503841049E-012
  0.20670000000000005          1.2839823642723351E-012
  0.20780000000000004          1.3221478133316975E-012
  0.20890000000000003          1.3588960905130611E-012
  0.21000000000000002          1.3947916869773985E-012
  0.21110000000000001          1.4303726722924020E-012
  0.21220000000000000          1.4657577808541579E-012
  0.21330000000000005          1.5003916682472012E-012
  0.21440000000000003          1.5330290041142924E-012
  0.21550000000000002          1.5619645708251489E-012
  0.21660000000000001          1.5854235400972453E-012
  0.21770000000000000          1.6019648206075329E-012
  0.21880000000000005          1.6107491952335508E-012
  0.21990000000000004          1.6115780074508879E-012
  0.22100000000000003          1.6047075910854301E-012
  0.22210000000000002          1.5905338361094592E-012
  0.22320000000000001          1.5692922266776291E-012
  0.22430000000000000          1.5409045207640158E-012
  0.22540000000000004          1.5050305797503359E-012
  0.22650000000000003          1.4612872207740079E-012
  0.22760000000000002          1.4095162053463743E-012
  0.22870000000000001          1.3499628189767152E-012
  0.22980000000000000          1.2832684658103818E-012
  0.23090000000000005          1.2102712886628950E-012
  0.23200000000000004          1.1317000997482923E-012
  0.23310000000000003          1.0479032252659077E-012
  0.23420000000000002          9.5874094968506326E-013
  0.23530000000000001          8.6370303780885228E-013
  0.23640000000000000          7.6221355621666779E-013
  0.23750000000000004          6.5400639526551998E-013
  0.23860000000000003          5.3942373207266795E-013
  0.23970000000000002          4.1952273776346599E-013
  0.24080000000000001          2.9595453793711776E-013
  0.24190000000000000          1.7066725244593546E-013
  0.24300000000000005          4.5550174962803952E-014
  0.24410000000000004         -7.7851760945798802E-014
  0.24520000000000003         -1.9846185701514853E-013
  0.24630000000000002         -3.1561309490334350E-013
  0.24740000000000001         -4.2885804481998194E-013
  0.24850000000000005         -5.3774346373215213E-013
  0.24960000000000004         -6.4164728355710664E-013
  0.25070000000000003         -7.3973826734208987E-013
  0.25180000000000002         -8.3106090255489869E-013
  0.25290000000000001         -9.1469453799924511E-013
  0.25400000000000000         -9.8990942684849001E-013
  0.25510000000000005         -1.0562524145079539E-012
  0.25620000000000004         -1.1135360158890596E-012
  0.25730000000000003         -1.1617493835735802E-012
  0.25840000000000002         -1.2009477590821646E-012
  0.25950000000000001         -1.2311800645609591E-012
  0.26060000000000005         -1.2524869450455526E-012
  0.26170000000000004         -1.2649610265139359E-012
  0.26280000000000003         -1.2688216850082248E-012
  0.26390000000000002         -1.2644486084584908E-012
  0.26500000000000001         -1.2523371480135133E-012
  0.26610000000000000         -1.2329869206186539E-012
  0.26720000000000005         -1.2067752202598046E-012
  0.26830000000000004         -1.1738889322208604E-012
  0.26940000000000003         -1.1343688727801977E-012
  0.27050000000000002         -1.0882727852205507E-012
  0.27160000000000001         -1.0359017348185440E-012
  0.27270000000000005         -9.7799843550310035E-013
  0.27380000000000004         -9.1582148873133536E-013
  0.27490000000000003         -8.5104394308279647E-013
  0.27600000000000002         -7.8549016714622434E-013
  0.27710000000000001         -7.2079299680074268E-013
  0.27820000000000000         -6.5808752078950453E-013
  0.27930000000000005         -5.9785209871224652E-013
  0.28040000000000004         -5.3995471909582918E-013
  0.28150000000000003         -4.8389059554542118E-013
  0.28260000000000002         -4.2912748817633842E-013
  0.28370000000000001         -3.7543412103391388E-013
  0.28480000000000005         -3.2307331519768730E-013
  0.28590000000000004         -2.7278722890021445E-013
  0.28700000000000003         -2.2557859304488581E-013
  0.28810000000000002         -1.8236768718399402E-013
  0.28920000000000001         -1.4365559038525290E-013
  0.29030000000000000         -1.0932772127679993E-013
  0.29140000000000005         -7.8683595695788750E-014
  0.29250000000000004         -5.0693805392567857E-014
  0.29360000000000003         -2.4394377867868630E-014
  0.29470000000000002          7.3267094074467756E-016
  0.29580000000000001          2.4546614630693988E-014
  0.29690000000000005          4.6296672733255989E-014
  0.29800000000000004          6.4922175815509266E-014
  0.29910000000000003          7.9489792217151215E-014
  0.30020000000000002          8.9592344636981232E-014
  0.30130000000000001          9.5545026500571290E-014
  0.30240000000000000          9.8296393271236526E-014
  0.30350000000000005          9.9089913725629621E-014
  0.30460000000000004          9.9016782200555632E-014
  0.30570000000000003          9.8646160602948274E-014
  0.30680000000000002          9.7884710682305366E-014
  0.30790000000000001          9.6118842486355661E-014
  0.30900000000000005          9.2572705604678383E-014
  0.31010000000000004          8.6724689724563658E-014
  0.31120000000000003          7.8602386515097697E-014
  0.31230000000000002          6.8828651664710561E-014
  0.31340000000000001          5.8395134342201955E-014
  0.31450000000000006          4.8250786663466050E-014
  0.31560000000000005          3.8867042696922807E-014
  0.31670000000000004          2.9950989510332168E-014
  0.31780000000000003          2.0422545081810312E-014
  0.31890000000000002          8.6747312967106135E-015
  0.32000000000000001         -6.9653932326615966E-015
  0.32110000000000005         -2.7727676558545013E-014
  0.32220000000000004         -5.4010515033622252E-014
  0.32330000000000003         -8.5241084016191975E-014
  0.32440000000000002         -1.2002969132755474E-013
  0.32550000000000001         -1.5656806146377059E-013
  0.32660000000000006         -1.9314387721061983E-013
  0.32770000000000005         -2.2860849780979998E-013
  0.32880000000000004         -2.6265274474135195E-013
  0.32990000000000003         -2.9581022466118094E-013
  0.33100000000000002         -3.2919525667553499E-013
  0.33210000000000001         -3.6406651419454995E-013
  0.33320000000000005         -4.0135890658540850E-013
  0.33430000000000004         -4.4132946362499112E-013
  0.33540000000000003         -4.8342184671367901E-013
  0.33650000000000002         -5.2638235295487259E-013
  0.33760000000000001         -5.6858278117965348E-013
  0.33870000000000006         -6.0844971967459641E-013
  0.33980000000000005         -6.4487265080260458E-013
  0.34090000000000004         -6.7747745543519661E-013
  0.34200000000000003         -7.0669032355717727E-013
  0.34310000000000002         -7.3357570184878152E-013
  0.34420000000000001         -7.5948759384808699E-013
  0.34530000000000005         -7.8562425115693908E-013
  0.34640000000000004         -8.1260144106900718E-013
  0.34750000000000003         -8.4016487651695464E-013
  0.34860000000000002         -8.6713175926728332E-013
  0.34970000000000001         -8.9159828661418537E-013
  0.35080000000000006         -9.1137636673117789E-013
  0.35190000000000005         -9.2455325468064430E-013
  0.35300000000000004         -9.3001842408356830E-013
  0.35410000000000003         -9.2779823823475119E-013
  0.35520000000000002         -9.1908147938723046E-013
  0.35630000000000001         -9.0590737815186764E-013
  0.35740000000000005         -8.9059018317457792E-013
  0.35850000000000004         -8.7504377018105834E-013
  0.35960000000000003         -8.6021145974069356E-013
  0.36070000000000002         -8.4578499188751794E-013
  0.36180000000000001         -8.3031436770086136E-013
  0.36290000000000006         -8.1168857950429331E-013
  0.36400000000000005         -7.8784782524950217E-013
  0.36510000000000004         -7.5750511652310305E-013
  0.36620000000000003         -7.2064360929859435E-013
  0.36730000000000002         -6.7861874646324709E-013
  0.36840000000000006         -6.3381892748623018E-013
  0.36950000000000005         -5.8898183916296789E-013
  0.37060000000000004         -5.4638441001618287E-013
  0.37170000000000003         -5.0717230925139645E-013
  0.37280000000000002         -4.7105792801475489E-013
  0.37390000000000001         -4.3649554071288265E-013
  0.37500000000000006         -4.0128286904642078E-013
  0.37610000000000005         -3.6339098423708575E-013
  0.37720000000000004         -3.2174270794460873E-013
  0.37830000000000003         -2.7667468703088060E-013
  0.37940000000000002         -2.2992425130349071E-013
  0.38050000000000006         -1.8414446802441017E-013
  0.38160000000000005         -1.4211073550208572E-013
  0.38270000000000004         -1.0588460461915179E-013
  0.38380000000000003         -7.6210089553692016E-014
  0.38490000000000002         -5.2333017071650389E-014
  0.38600000000000001         -3.2287371254593769E-014
  0.38710000000000000         -1.3536315719953860E-014
  0.38819999999999999          6.2564983405375670E-015
  0.38930000000000009          2.8580996215322102E-014
  0.39040000000000008          5.3759704342570603E-014
  0.39150000000000007          8.1031088049938798E-014
  0.39260000000000006          1.0897639401761536E-013
  0.39370000000000005          1.3611793373793744E-013
  0.39480000000000004          1.6147112499018961E-013
  0.39590000000000003          1.8486485547155366E-013
  0.39700000000000002          2.0693855597477133E-013
  0.39810000000000001          2.2884446311668118E-013
  0.39920000000000000          2.5178460854563284E-013
  0.40029999999999999          2.7656045560807977E-013
  0.40140000000000009          3.0329489780271801E-013
  0.40250000000000008          3.3141168834898010E-013
  0.40360000000000007          3.5986060008331642E-013
  0.40470000000000006          3.8749095491261227E-013
  0.40580000000000005          4.1343478547670024E-013
  0.40690000000000004          4.3737063766430223E-013
  0.40800000000000003          4.5959202466230364E-013
  0.40910000000000002          4.8087781855060577E-013
  0.41020000000000001          5.0222227005817357E-013
  0.41130000000000000          5.2452087175405318E-013
  0.41239999999999999          5.4830725062054504E-013
  0.41350000000000009          5.7361229462916397E-013
  0.41460000000000008          5.9997353536783468E-013
  0.41570000000000007          6.2658177467328623E-013
  0.41680000000000006          6.5251761810754599E-013
  0.41790000000000005          6.7700990137985540E-013
  0.41900000000000004          6.9964395119166868E-013
  0.42010000000000003          7.2046116004809763E-013
  0.42120000000000002          7.3992000508871551E-013
  0.42230000000000001          7.5872713873394446E-013
  0.42340000000000000          7.7758792941922033E-013
  0.42449999999999999          7.9695471013955262E-013
  0.42560000000000009          8.1685496201895826E-013
  0.42670000000000008          8.3686097336163247E-013
  0.42780000000000007          8.5621534535318720E-013
  0.42890000000000006          8.7407367655298003E-013
  0.43000000000000005          8.8978231395067082E-013
  0.43110000000000004          9.0309184600723675E-013
  0.43220000000000003          9.1422524474802503E-013
  0.43330000000000002          9.2376869209166106E-013
  0.43440000000000001          9.3241144779782821E-013
  0.43550000000000000          9.4061985775688821E-013
  0.43659999999999999          9.4835559986100386E-013
  0.43770000000000009          9.5494430516592814E-013
  0.43880000000000008          9.5915306675748363E-013
  0.43990000000000007          9.5946993145982469E-013
  0.44100000000000006          9.5450449201830586E-013
  0.44210000000000005          9.4338033946158022E-013
  0.44320000000000004          9.2598211424617955E-013
  0.44430000000000003          9.0295971222756340E-013
  0.44540000000000002          8.7547045450731318E-013
  0.44650000000000001          8.4473381627512545E-013
  0.44760000000000000          8.1154750579713334E-013
  0.44869999999999999          7.7593833978492062E-013
  0.44980000000000009          7.3708382698582085E-013
  0.45090000000000008          6.9355164031757330E-013
  0.45200000000000007          6.4378929661336740E-013
  0.45310000000000006          5.8670367920466257E-013
  0.45420000000000005          5.2212838352759698E-013
  0.45530000000000004          4.5100810283254322E-013
  0.45640000000000003          3.7522251831983905E-013
  0.45750000000000002          2.9709419906170334E-013
  0.45860000000000001          2.1873737665710079E-013
  0.45970000000000000          1.4146313264983065E-013
  0.46079999999999999          6.5444827956046297E-014
  0.46190000000000009         -1.0233902910995950E-014
  0.46300000000000008         -8.7151316425515589E-014
  0.46410000000000007         -1.6687040759390756E-013
  0.46520000000000006         -2.5023135431406972E-013
  0.46630000000000005         -3.3685089497737829E-013
  0.46740000000000004         -4.2500532881545681E-013
  0.46850000000000003         -5.1194947831363238E-013
  0.46960000000000002         -5.9457836212629686E-013
  0.47070000000000001         -6.7021781182525376E-013
  0.47180000000000000         -7.3728188395213404E-013
  0.47289999999999999         -7.9557728450887247E-013
  0.47400000000000009         -8.4615595354894197E-013
  0.47510000000000008         -8.9077511376964588E-013
  0.47620000000000007         -9.3115877792416217E-013
  0.47730000000000006         -9.6832027751432272E-013
  0.47840000000000005         -1.0021713700207129E-012