  -48.000000000000000          0.0000000000000000     
  -47.939999999999998          0.0000000000000000     
  -47.880000000000003          0.0000000000000000     
  -47.820000000000000          0.0000000000000000     
  -47.759999999999998          0.0000000000000000     
  -47.700000000000003          0.0000000000000000     
  -47.640000000000001          0.0000000000000000     
  -47.579999999999998          0.0000000000000000     
  -47.520000000000003          0.0000000000000000     
  -47.460000000000001          0.0000000000000000     
  -47.399999999999999          0.0000000000000000     
  -47.340000000000003          0.0000000000000000     
  -47.280000000000001          0.0000000000000000     
  -47.219999999999999          0.0000000000000000     
  -47.159999999999997          0.0000000000000000     
  -47.100000000000001          0.0000000000000000     
  -47.039999999999999          0.0000000000000000     
  -46.979999999999997          0.0000000000000000     
  -46.920000000000002          0.0000000000000000     
  -46.859999999999999          0.0000000000000000     
  -46.799999999999997          0.0000000000000000     
  -46.740000000000002          0.0000000000000000     
  -46.680000000000000          0.0000000000000000     
  -46.619999999999997          0.0000000000000000     
  -46.560000000000002          0.0000000000000000     
  -46.500000000000000          0.0000000000000000     
  -46.439999999999998          0.0000000000000000     
  -46.380000000000003          0.0000000000000000     
  -46.320000000000000          0.0000000000000000     
  -46.259999999999998          0.0000000000000000     
  -46.200000000000003          0.0000000000000000     
  -46.140000000000001          0.0000000000000000     
  -46.079999999999998          0.0000000000000000     
  -46.020000000000003          0.0000000000000000     
  -45.960000000000001          0.0000000000000000     
  -45.899999999999999          0.0000000000000000     
  -45.840000000000003          0.0000000000000000     
  -45.780000000000001          0.0000000000000000     
  -45.719999999999999          0.0000000000000000     
  -45.659999999999997          0.0000000000000000     
  -45.600000000000001          0.0000000000000000     
  -45.539999999999999          0.0000000000000000     
  -45.479999999999997          0.0000000000000000     
  -45.420000000000002          0.0000000000000000     
  -45.359999999999999          0.0000000000000000     
  -45.299999999999997          0.0000000000000000     
  -45.240000000000002          0.0000000000000000     
  -45.180000000000000          0.0000000000000000     
  -45.119999999999997          0.0000000000000000     
  -45.060000000000002          0.0000000000000000     
  -45.000000000000000          0.0000000000000000     
  -44.939999999999998          0.0000000000000000     
  -44.880000000000003          0.0000000000000000     
  -44.820000000000000          0.0000000000000000     
  -44.759999999999998          0.0000000000000000     
  -44.700000000000003          0.0000000000000000     
  -44.640000000000001          0.0000000000000000     
  -44.579999999999998          0.0000000000000000     
  -44.520000000000003          0.0000000000000000     
  -44.460000000000001          0.0000000000000000     
  -44.399999999999999          0.0000000000000000     
  -44.340000000000003          0.0000000000000000     
  -44.280000000000001          0.0000000000000000     
  -44.219999999999999          0.0000000000000000     
  -44.159999999999997          0.0000000000000000     
  -44.100000000000001          0.0000000000000000     
  -44.039999999999999          0.0000000000000000     
  -43.980000000000004          0.0000000000000000     
  -43.920000000000002          0.0000000000000000     
  -43.859999999999999          0.0000000000000000     
  -43.799999999999997          0.0000000000000000     
  -43.740000000000002          0.0000000000000000     
  -43.680000000000000          0.0000000000000000     
  -43.619999999999997          0.0000000000000000     
  -43.560000000000002          0.0000000000000000     
  -43.500000000000000          0.0000000000000000     
  -43.439999999999998          0.0000000000000000     
  -43.380000000000003          0.0000000000000000     
  -43.320000000000000          0.0000000000000000     
  -43.259999999999998          0.0000000000000000     
  -43.200000000000003          0.0000000000000000     
  -43.140000000000001          0.0000000000000000     
  -43.079999999999998          0.0000000000000000     
  -43.020000000000003          0.0000000000000000     
  -42.960000000000001          0.0000000000000000     
  -42.899999999999999          0.0000000000000000     
  -42.840000000000003          0.0000000000000000     
  -42.780000000000001          0.0000000000000000     
  -42.719999999999999          0.0000000000000000     
  -42.659999999999997          0.0000000000000000     
  -42.600000000000001          0.0000000000000000     
  -42.539999999999999          0.0000000000000000     
  -42.480000000000004          0.0000000000000000     
  -42.420000000000002          0.0000000000000000     
  -42.359999999999999          0.0000000000000000     
  -42.299999999999997          0.0000000000000000     
  -42.240000000000002          0.0000000000000000     
  -42.180000000000000          0.0000000000000000     
  -42.119999999999997          0.0000000000000000     
  -42.060000000000002          0.0000000000000000     
  -42.000000000000000          0.0000000000000000     
  -41.939999999999998          0.0000000000000000     
  -41.880000000000003          0.0000000000000000     
  -41.820000000000000          0.0000000000000000     
  -41.759999999999998          0.0000000000000000     
  -41.700000000000003          0.0000000000000000     
  -41.640000000000001          0.0000000000000000     
  -41.579999999999998          0.0000000000000000     
  -41.520000000000003          0.0000000000000000     
  -41.460000000000001          0.0000000000000000     
  -41.399999999999999          0.0000000000000000     
  -41.340000000000003          0.0000000000000000     
  -41.280000000000001          0.0000000000000000     
  -41.219999999999999          0.0000000000000000     
  -41.159999999999997          0.0000000000000000     
  -41.100000000000001          0.0000000000000000     
  -41.039999999999999          0.0000000000000000     
  -40.980000000000004          0.0000000000000000     
  -40.920000000000002          0.0000000000000000     
  -40.859999999999999          0.0000000000000000     
  -40.799999999999997          0.0000000000000000     
  -40.740000000000002          0.0000000000000000     
  -40.680000000000000          0.0000000000000000     
  -40.619999999999997          0.0000000000000000     
  -40.560000000000002          0.0000000000000000     
  -40.500000000000000          0.0000000000000000     
  -40.439999999999998          0.0000000000000000     
  -40.380000000000003          0.0000000000000000     
  -40.320000000000000          0.0000000000000000     
  -40.259999999999998          0.0000000000000000     
  -40.200000000000003          0.0000000000000000     
  -40.140000000000001          0.0000000000000000     
  -40.079999999999998          0.0000000000000000     
  -40.020000000000003          0.0000000000000000     
  -39.960000000000001          0.0000000000000000     
  -39.899999999999999          0.0000000000000000     
  -39.840000000000003          0.0000000000000000     
  -39.780000000000001          0.0000000000000000     
  -39.719999999999999          0.0000000000000000     
  -39.659999999999997          0.0000000000000000     
  -39.600000000000001          0.0000000000000000     
  -39.539999999999999          0.0000000000000000     
  -39.480000000000004          0.0000000000000000     
  -39.420000000000002          0.0000000000000000     
  -39.359999999999999          0.0000000000000000     
  -39.299999999999997          0.0000000000000000     
  -39.240000000000002          0.0000000000000000     
  -39.180000000000000          0.0000000000000000     
  -39.120000000000005          0.0000000000000000     
  -39.060000000000002          0.0000000000000000     
  -39.000000000000000          0.0000000000000000     
  -38.939999999999998          0.0000000000000000     
  -38.880000000000003          0.0000000000000000     
  -38.820000000000000          0.0000000000000000     
  -38.759999999999998          0.0000000000000000     
  -38.700000000000003          0.0000000000000000     
  -38.640000000000001          0.0000000000000000     
  -38.579999999999998          0.0000000000000000     
  -38.519999999999996          0.0000000000000000     
  -38.460000000000001          0.0000000000000000     
  -38.399999999999999          0.0000000000000000     
  -38.340000000000003          0.0000000000000000     
  -38.280000000000001          0.0000000000000000     
  -38.219999999999999          0.0000000000000000     
  -38.159999999999997          0.0000000000000000     
  -38.100000000000001          0.0000000000000000     
  -38.039999999999999          0.0000000000000000     
  -37.980000000000004          0.0000000000000000     
  -37.920000000000002          0.0000000000000000     
  -37.859999999999999          0.0000000000000000     
  -37.799999999999997          0.0000000000000000     
  -37.740000000000002          0.0000000000000000     
  -37.680000000000000          0.0000000000000000     
  -37.620000000000005          0.0000000000000000     
  -37.560000000000002          0.0000000000000000     
  -37.500000000000000          0.0000000000000000     
  -37.439999999999998          0.0000000000000000     
  -37.380000000000003          0.0000000000000000     
  -37.320000000000000          0.0000000000000000     
  -37.259999999999998          0.0000000000000000     
  -37.200000000000003          0.0000000000000000     
  -37.140000000000001          0.0000000000000000     
  -37.079999999999998          0.0000000000000000     
  -37.019999999999996          0.0000000000000000     
  -36.960000000000001          0.0000000000000000     
  -36.899999999999999          0.0000000000000000     
  -36.840000000000003          0.0000000000000000     
  -36.780000000000001          0.0000000000000000     
  -36.719999999999999          0.0000000000000000     
  -36.659999999999997          0.0000000000000000     
  -36.600000000000001          0.0000000000000000     
  -36.539999999999999          0.0000000000000000     
  -36.480000000000004          0.0000000000000000     
  -36.420000000000002          0.0000000000000000     
  -36.359999999999999          0.0000000000000000     
  -36.299999999999997          0.0000000000000000     
  -36.240000000000002          0.0000000000000000     
  -36.180000000000000          0.0000000000000000     
  -36.120000000000005          0.0000000000000000     
  -36.060000000000002          0.0000000000000000     
  -36.000000000000000          0.0000000000000000     
  -35.939999999999998          0.0000000000000000     
  -35.880000000000003          0.0000000000000000     
  -35.820000000000000          0.0000000000000000     
  -35.759999999999998          0.0000000000000000     
  -35.700000000000003          0.0000000000000000     
  -35.640000000000001          0.0000000000000000     
  -35.579999999999998          0.0000000000000000     
  -35.519999999999996          0.0000000000000000     
  -35.460000000000001          0.0000000000000000     
  -35.399999999999999          0.0000000000000000     
  -35.340000000000003          0.0000000000000000     
  -35.280000000000001          0.0000000000000000     
  -35.219999999999999          0.0000000000000000     
  -35.159999999999997          0.0000000000000000     
  -35.100000000000001          0.0000000000000000     
  -35.039999999999999          0.0000000000000000     
  -34.980000000000004          0.0000000000000000     
  -34.920000000000002          0.0000000000000000     
  -34.859999999999999          0.0000000000000000     
  -34.799999999999997          0.0000000000000000     
  -34.740000000000002          0.0000000000000000     
  -34.680000000000000          0.0000000000000000     
  -34.620000000000005          0.0000000000000000     
  -34.560000000000002          0.0000000000000000     
  -34.500000000000000          0.0000000000000000     
  -34.439999999999998          0.0000000000000000     
  -34.380000000000003          0.0000000000000000     
  -34.320000000000000          0.0000000000000000     
  -34.259999999999998          0.0000000000000000     
  -34.200000000000003          0.0000000000000000     
  -34.140000000000001          0.0000000000000000     
  -34.079999999999998          0.0000000000000000     
  -34.020000000000003          0.0000000000000000     
  -33.960000000000001          0.0000000000000000     
  -33.899999999999999          0.0000000000000000     
  -33.840000000000003          0.0000000000000000     
  -33.780000000000001          0.0000000000000000     
  -33.719999999999999          0.0000000000000000     
  -33.659999999999997          0.0000000000000000     
  -33.600000000000001          0.0000000000000000     
  -33.539999999999999          0.0000000000000000     
  -33.480000000000004          0.0000000000000000     
  -33.420000000000002          0.0000000000000000     
  -33.359999999999999          0.0000000000000000     
  -33.299999999999997          0.0000000000000000     
  -33.240000000000002          0.0000000000000000     
  -33.180000000000000          0.0000000000000000     
  -33.120000000000005          0.0000000000000000     
  -33.060000000000002          0.0000000000000000     
  -33.000000000000000          0.0000000000000000     
  -32.939999999999998          0.0000000000000000     
  -32.880000000000003          0.0000000000000000     
  -32.820000000000000          0.0000000000000000     
  -32.759999999999998          0.0000000000000000     
  -32.700000000000003          0.0000000000000000     
  -32.640000000000001          0.0000000000000000     
  -32.579999999999998          0.0000000000000000     
  -32.520000000000003          0.0000000000000000     
  -32.460000000000001          0.0000000000000000     
  -32.399999999999999          0.0000000000000000     
  -32.340000000000003          0.0000000000000000     
  -32.280000000000001          0.0000000000000000     
  -32.219999999999999          0.0000000000000000     
  -32.159999999999997          0.0000000000000000     
  -32.100000000000001          0.0000000000000000     
  -32.039999999999999          0.0000000000000000     
  -31.980000000000000          0.0000000000000000     
  -31.920000000000002          0.0000000000000000     
  -31.859999999999999          0.0000000000000000     
  -31.800000000000001          0.0000000000000000     
  -31.740000000000002          0.0000000000000000     
  -31.680000000000000          0.0000000000000000     
  -31.620000000000001          0.0000000000000000     
  -31.560000000000002          0.0000000000000000     
  -31.500000000000000          0.0000000000000000     
  -31.440000000000001          0.0000000000000000     
  -31.379999999999999          0.0000000000000000     
  -31.320000000000000          0.0000000000000000     
  -31.260000000000002          0.0000000000000000     
  -31.199999999999999          0.0000000000000000     
  -31.140000000000001          0.0000000000000000     
  -31.080000000000002          0.0000000000000000     
  -31.020000000000000          0.0000000000000000     
  -30.960000000000001          0.0000000000000000     
  -30.900000000000002          0.0000000000000000     
  -30.840000000000000          0.0000000000000000     
  -30.780000000000001          0.0000000000000000     
  -30.719999999999999          0.0000000000000000     
  -30.660000000000000          0.0000000000000000     
  -30.600000000000001          0.0000000000000000     
  -30.539999999999999          0.0000000000000000     
  -30.480000000000000          0.0000000000000000     
  -30.420000000000002          0.0000000000000000     
  -30.359999999999999          0.0000000000000000     
  -30.300000000000001          0.0000000000000000     
  -30.240000000000002          0.0000000000000000     
  -30.180000000000000          0.0000000000000000     
  -30.120000000000001          0.0000000000000000     
  -30.060000000000002          0.0000000000000000     
  -30.000000000000000          0.0000000000000000     
  -29.940000000000001          0.0000000000000000     
  -29.879999999999999          0.0000000000000000     
  -29.820000000000000          0.0000000000000000     
  -29.760000000000002          0.0000000000000000     
  -29.699999999999999          0.0000000000000000     
  -29.640000000000001          0.0000000000000000     
  -29.580000000000002          0.0000000000000000     
  -29.520000000000000          0.0000000000000000     
  -29.460000000000001          0.0000000000000000     
  -29.400000000000002          0.0000000000000000     
  -29.340000000000000          0.0000000000000000     
  -29.280000000000001          0.0000000000000000     
  -29.220000000000002          0.0000000000000000     
  -29.160000000000000          0.0000000000000000     
  -29.100000000000001          0.0000000000000000     
  -29.039999999999999          0.0000000000000000     
  -28.980000000000000          0.0000000000000000     
  -28.920000000000002          0.0000000000000000     
  -28.859999999999999          0.0000000000000000     
  -28.800000000000001          0.0000000000000000     
  -28.740000000000002          0.0000000000000000     
  -28.680000000000000          0.0000000000000000     
  -28.620000000000001          0.0000000000000000     
  -28.560000000000002          0.0000000000000000     
  -28.500000000000000          0.0000000000000000     
  -28.440000000000001          0.0000000000000000     
  -28.379999999999999          0.0000000000000000     
  -28.320000000000000          0.0000000000000000     
  -28.260000000000002          0.0000000000000000     
  -28.199999999999999          0.0000000000000000     
  -28.140000000000001          0.0000000000000000     
  -28.080000000000002          0.0000000000000000     
  -28.020000000000000          0.0000000000000000     
  -27.960000000000001          0.0000000000000000     
  -27.900000000000002          0.0000000000000000     
  -27.840000000000000          0.0000000000000000     
  -27.780000000000001          0.0000000000000000     
  -27.720000000000002          0.0000000000000000     
  -27.660000000000000          0.0000000000000000     
  -27.600000000000001          0.0000000000000000     
  -27.539999999999999          0.0000000000000000     
  -27.480000000000000          0.0000000000000000     
  -27.420000000000002          0.0000000000000000     
  -27.359999999999999          0.0000000000000000     
  -27.300000000000001          0.0000000000000000     
  -27.240000000000002          0.0000000000000000     
  -27.180000000000000          0.0000000000000000     
  -27.120000000000001          0.0000000000000000     
  -27.060000000000002          0.0000000000000000     
  -27.000000000000000          0.0000000000000000     
  -26.940000000000001          0.0000000000000000     
  -26.880000000000003          0.0000000000000000     
  -26.820000000000000          0.0000000000000000     
  -26.760000000000002          0.0000000000000000     
  -26.699999999999999          0.0000000000000000     
  -26.640000000000001          0.0000000000000000     
  -26.580000000000002          0.0000000000000000     
  -26.520000000000000          0.0000000000000000     
  -26.460000000000001          0.0000000000000000     
  -26.400000000000002          0.0000000000000000     
  -26.340000000000000          0.0000000000000000     
  -26.280000000000001          0.0000000000000000     
  -26.220000000000002          0.0000000000000000     
  -26.160000000000000          0.0000000000000000     
  -26.100000000000001          0.0000000000000000     
  -26.039999999999999          0.0000000000000000     
  -25.980000000000000          0.0000000000000000     
  -25.920000000000002          0.0000000000000000     
  -25.859999999999999          0.0000000000000000     
  -25.800000000000001          0.0000000000000000     
  -25.740000000000002          0.0000000000000000     
  -25.680000000000000          0.0000000000000000     
  -25.620000000000001          0.0000000000000000     
  -25.560000000000002          0.0000000000000000     
  -25.500000000000000          0.0000000000000000     
  -25.440000000000001          0.0000000000000000     
  -25.380000000000003          0.0000000000000000     
  -25.320000000000000          0.0000000000000000     
  -25.260000000000002         -4.4516423371712863E-040
  -25.199999999999999         -1.4673305749460744E-039
  -25.140000000000001         -3.2142794344964366E-039
  -25.080000000000002         -6.2082986335271575E-039
  -25.020000000000000         -1.0740982036688409E-038
  -24.960000000000001         -1.7135892302769678E-038
  -24.900000000000002         -2.4705426178512994E-038
  -24.840000000000000         -3.2710159137406219E-038
  -24.780000000000001         -4.1184052381125956E-038
  -24.720000000000002         -5.0175129468370469E-038
  -24.660000000000000         -5.6812749973501741E-038
  -24.600000000000001         -6.0544140029011169E-038
  -24.539999999999999         -5.8685808754599513E-038
  -24.480000000000000         -5.0179253673050183E-038
  -24.420000000000002         -3.3818299081765925E-038
  -24.359999999999999         -6.9770050610189659E-039
  -24.300000000000001          3.1510131279859506E-038
  -24.240000000000002          7.3582619924275239E-038
  -24.180000000000000          1.1858961612888294E-037
  -24.120000000000001          1.6780672877209834E-037
  -24.060000000000002          2.1985525223984548E-037
  -24.000000000000000          2.7219577024781234E-037
  -23.940000000000001          3.2291019980666263E-037
  -23.880000000000003          3.7014825916165406E-037
  -23.820000000000000          4.1225330531799690E-037
  -23.760000000000002          4.3035291394141800E-037
  -23.699999999999999          4.1944167691761444E-037
  -23.640000000000001          3.7049559665610970E-037
  -23.580000000000002          2.9132102816848315E-037
  -23.520000000000000          1.6120593543463735E-037
  -23.460000000000001          7.9665735556946918E-039
  -23.400000000000002         -1.6633747078014112E-037
  -23.340000000000000         -3.5991474179872344E-037
  -23.280000000000001         -5.4291106612409130E-037
  -23.220000000000002         -7.1001338140579703E-037
  -23.160000000000000         -8.5808660695423156E-037
  -23.100000000000001         -9.7229189987529677E-037
  -23.039999999999999         -1.0382102115401784E-036
  -22.980000000000000         -1.0577099412369253E-036
  -22.920000000000002         -1.0347894471055887E-036
  -22.859999999999999         -9.7790280444469621E-037
  -22.800000000000001         -9.9062141667808015E-037
  -22.740000000000002         -1.1052699861068454E-036
  -22.680000000000000         -1.3343999680026819E-036
  -22.620000000000001         -1.7083327422826160E-036
  -22.560000000000002         -2.2522438206635465E-036
  -22.500000000000000         -2.9712908448878332E-036
  -22.440000000000001         -4.0187088833487892E-036
  -22.380000000000003         -5.3284183861586639E-036
  -22.320000000000000         -6.9438497102077028E-036
  -22.260000000000002         -8.9389833893228704E-036
  -22.199999999999999         -1.1396607633051600E-035
  -22.140000000000001         -1.4392983312772564E-035
  -22.080000000000002         -1.8047470395759302E-035
  -22.020000000000000         -2.2509907059053030E-035
  -21.960000000000001         -2.7962338360813683E-035
  -21.900000000000002         -3.4621220618999453E-035
  -21.840000000000000         -4.2647554267611520E-035
  -21.780000000000001         -5.2320163473601757E-035
  -21.720000000000002         -6.3947109742583307E-035
  -21.660000000000000         -7.7867023356083570E-035
  -21.600000000000001         -9.4526728078406451E-035
  -21.540000000000003         -1.1441409410979893E-034
  -21.480000000000000         -1.3813063891154351E-034
  -21.420000000000002         -1.6644790753692459E-034
  -21.359999999999999         -2.0024705078722077E-034
  -21.300000000000001         -2.4066207844431264E-034
  -21.240000000000002         -2.8905414894809866E-034
  -21.180000000000000         -3.4715231239634161E-034
  -21.120000000000001         -4.1700277087145520E-034
  -21.060000000000002         -5.0105851824358855E-034
  -21.000000000000000         -6.0224209554971616E-034
  -20.940000000000001         -7.2407232819606165E-034
  -20.880000000000003         -8.7074682356988481E-034
  -20.820000000000000         -1.0472906623761137E-033
  -20.760000000000002         -1.2595716627826282E-033
  -20.699999999999999         -1.5146969458662877E-033
  -20.640000000000001         -1.8211057955991741E-033
  -20.580000000000002         -2.1888730764145839E-033
  -20.520000000000000         -2.6299919714052434E-033
  -20.460000000000001         -3.1587590156797576E-033
  -20.400000000000002         -3.7921945269775471E-033
  -20.340000000000000         -4.5505326108092867E-033
  -20.280000000000001         -5.4578622226908210E-033
  -20.220000000000002         -6.5428061426574443E-033
  -20.160000000000000         -7.8393802613718456E-033
  -20.100000000000001         -9.3879906197162806E-033
  -20.040000000000003         -1.1236597699877017E-032
  -19.980000000000000         -1.3442102179583191E-032
  -19.920000000000002         -1.6071987169231530E-032
  -19.859999999999999         -1.9206259675577119E-032
  -19.800000000000001         -2.2939744762487868E-032
  -19.740000000000002         -2.7384807702781957E-032
  -19.680000000000000         -3.2674526774126696E-032
  -19.620000000000001         -3.8966428718635305E-032
  -19.560000000000002         -4.6446925048078797E-032
  -19.500000000000000         -5.5336417972756415E-032
  -19.440000000000001         -6.5895322817061207E-032
  -19.380000000000003         -7.8431107222503047E-032
  -19.320000000000000         -9.3306516118691265E-032
  -19.260000000000002         -1.1094908114229030E-031
  -19.200000000000003         -1.3186230941459998E-031
  -19.140000000000001         -1.5663866470282216E-031
  -19.080000000000002         -1.8597491499446090E-031
  -19.020000000000000         -2.2068983302870899E-031
  -18.960000000000001         -2.6174537220369596E-031
  -18.900000000000002         -3.1027118850674032E-031
  -18.840000000000000         -3.6759381299459102E-031
  -18.780000000000001         -4.3527082897445877E-031
  -18.720000000000002         -5.1513040952337163E-031
  -18.660000000000000         -6.0931853834897929E-031
  -18.600000000000001         -7.2035392206412771E-031
  -18.540000000000003         -8.5119060297599002E-031
  -18.480000000000000         -1.0052917616664080E-030
  -18.420000000000002         -1.1867147016504253E-030
  -18.359999999999999         -1.4002073170822940E-030
  -18.300000000000001         -1.6513201802958955E-030
  -18.240000000000002         -1.9465350935944511E-030
  -18.180000000000000         -2.2934111735291349E-030
  -18.120000000000001         -2.7007560561926248E-030
  -18.060000000000002         -3.1788227509154919E-030
  -18.000000000000000         -3.7395373615369445E-030
  -17.940000000000001         -4.3967688016056078E-030
  -17.880000000000003         -5.1666412071446451E-030
  -17.820000000000000         -6.0679095346703922E-030
  -17.760000000000002         -7.1223937850670756E-030
  -17.700000000000003         -8.3554877556983745E-030
  -17.640000000000001         -9.7967585669964996E-030
  -17.580000000000002         -1.1480631970744250E-029
  -17.520000000000000         -1.3447184335405630E-029
  -17.460000000000001         -1.5743038947881936E-029
  -17.400000000000002         -1.8422398651989590E-029
  -17.340000000000000         -2.1548178956111838E-029
  -17.280000000000001         -2.5193287742047811E-029
  -17.220000000000002         -2.9442095547247219E-029
  -17.160000000000000         -3.4392017674792902E-029
  -17.100000000000001         -4.0155364761031253E-029
  -17.040000000000003         -4.6861435975098592E-029
  -16.980000000000000         -5.4658935724672827E-029
  -16.920000000000002         -6.3718819156383122E-029
  -16.859999999999999         -7.4237598404848463E-029
  -16.800000000000001         -8.6441261980360427E-029
  -16.740000000000002         -1.0058993952716520E-028
  -16.680000000000000         -1.1698344793155274E-028
  -16.620000000000001         -1.3596763401359965E-028
  -16.560000000000002         -1.5794196061637152E-028
  -16.500000000000000         -1.8336810074866522E-028
  -16.440000000000001         -2.1277988527361157E-028
  -16.380000000000003         -2.4679426174257261E-028
  -16.320000000000000         -2.8612351677662791E-028
  -16.260000000000002         -3.3158880372074508E-028
  -16.200000000000003         -3.8413466733091366E-028
  -16.140000000000001         -4.4484472146609283E-028
  -16.080000000000002         -5.1495870071908926E-028
  -16.020000000000000         -5.9589092362915668E-028
  -15.960000000000001         -6.8925069601717843E-028
  -15.899999999999999         -7.9686508386726203E-028
  -15.840000000000003         -9.2080597446572875E-028
  -15.780000000000001         -1.0634213429541984E-027
  -15.719999999999999         -1.2273740980816153E-027
  -15.660000000000004         -1.4156877871550181E-027
  -15.600000000000001         -1.6318036479895654E-027
  -15.539999999999999         -1.8796496216745113E-027
  -15.480000000000004         -2.1637211597795296E-027
  -15.420000000000002         -2.4891772379339383E-027
  -15.359999999999999         -2.8619478497600652E-027