  -48.000000000000000          0.0000000000000000     
  -47.939999999999998          0.0000000000000000     
  -47.880000000000003          0.0000000000000000     
  -47.820000000000000          0.0000000000000000     
  -47.759999999999998          0.0000000000000000     
  -47.700000000000003          0.0000000000000000     
  -47.640000000000001          0.0000000000000000     
  -47.579999999999998          0.0000000000000000     
  -47.520000000000003          0.0000000000000000     
  -47.460000000000001          0.0000000000000000     
  -47.399999999999999          0.0000000000000000     
  -47.340000000000003          0.0000000000000000     
  -47.280000000000001          0.0000000000000000     
  -47.219999999999999          0.0000000000000000     
  -47.159999999999997          0.0000000000000000     
  -47.100000000000001          0.0000000000000000     
  -47.039999999999999          0.0000000000000000     
  -46.979999999999997          0.0000000000000000     
  -46.920000000000002          0.0000000000000000     
  -46.859999999999999          0.0000000000000000     
  -46.799999999999997          0.0000000000000000     
  -46.740000000000002          0.0000000000000000     
  -46.680000000000000          0.0000000000000000     
  -46.619999999999997          0.0000000000000000     
  -46.560000000000002          0.0000000000000000     
  -46.500000000000000          0.0000000000000000     
  -46.439999999999998          0.0000000000000000     
  -46.380000000000003          0.0000000000000000     
  -46.320000000000000          0.0000000000000000     
  -46.259999999999998          0.0000000000000000     
  -46.200000000000003          0.0000000000000000     
  -46.140000000000001          0.0000000000000000     
  -46.079999999999998          0.0000000000000000     
  -46.020000000000003          0.0000000000000000     
  -45.960000000000001          0.0000000000000000     
  -45.899999999999999          0.0000000000000000     
  -45.840000000000003          0.0000000000000000     
  -45.780000000000001          0.0000000000000000     
  -45.719999999999999          0.0000000000000000     
  -45.659999999999997          0.0000000000000000     
  -45.600000000000001          0.0000000000000000     
  -45.539999999999999          0.0000000000000000     
  -45.479999999999997          0.0000000000000000     
  -45.420000000000002          0.0000000000000000     
  -45.359999999999999          0.0000000000000000     
  -45.299999999999997          0.0000000000000000     
  -45.240000000000002          0.0000000000000000     
  -45.180000000000000          0.0000000000000000     
  -45.119999999999997          0.0000000000000000     
  -45.060000000000002          0.0000000000000000     
  -45.000000000000000          0.0000000000000000     
  -44.939999999999998          0.0000000000000000     
  -44.880000000000003          0.0000000000000000     
  -44.820000000000000          0.0000000000000000     
  -44.759999999999998          0.0000000000000000     
  -44.700000000000003          0.0000000000000000     
  -44.640000000000001          0.0000000000000000     
  -44.579999999999998          0.0000000000000000     
  -44.520000000000003          0.0000000000000000     
  -44.460000000000001          0.0000000000000000     
  -44.399999999999999          0.0000000000000000     
  -44.340000000000003          0.0000000000000000     
  -44.280000000000001          0.0000000000000000     
  -44.219999999999999          0.0000000000000000     
  -44.159999999999997          0.0000000000000000     
  -44.100000000000001          0.0000000000000000     
  -44.039999999999999          0.0000000000000000     
  -43.980000000000004          0.0000000000000000     
  -43.920000000000002          0.0000000000000000     
  -43.859999999999999          0.0000000000000000     
  -43.799999999999997          0.0000000000000000     
  -43.740000000000002          0.0000000000000000     
  -43.680000000000000          0.0000000000000000     
  -43.619999999999997          0.0000000000000000     
  -43.560000000000002          0.0000000000000000     
  -43.500000000000000          0.0000000000000000     
  -43.439999999999998          0.0000000000000000     
  -43.380000000000003          0.0000000000000000     
  -43.320000000000000          0.0000000000000000     
  -43.259999999999998          0.0000000000000000     
  -43.200000000000003          0.0000000000000000     
  -43.140000000000001          0.0000000000000000     
  -43.079999999999998          0.0000000000000000     
  -43.020000000000003          0.0000000000000000     
  -42.960000000000001          0.0000000000000000     
  -42.899999999999999          0.0000000000000000     
  -42.840000000000003          0.0000000000000000     
  -42.780000000000001          0.0000000000000000     
  -42.719999999999999          0.0000000000000000     
  -42.659999999999997          0.0000000000000000     
  -42.600000000000001          0.0000000000000000     
  -42.539999999999999          0.0000000000000000     
  -42.480000000000004          0.0000000000000000     
  -42.420000000000002          0.0000000000000000     
  -42.359999999999999          0.0000000000000000     
  -42.299999999999997          0.0000000000000000     
  -42.240000000000002          0.0000000000000000     
  -42.180000000000000          0.0000000000000000     
  -42.119999999999997          0.0000000000000000     
  -42.060000000000002          0.0000000000000000     
  -42.000000000000000          0.0000000000000000     
  -41.939999999999998          0.0000000000000000     
  -41.880000000000003          0.0000000000000000     
  -41.820000000000000          0.0000000000000000     
  -41.759999999999998          0.0000000000000000     
  -41.700000000000003          0.0000000000000000     
  -41.640000000000001          0.0000000000000000     
  -41.579999999999998          0.0000000000000000     
  -41.520000000000003          0.0000000000000000     
  -41.460000000000001          0.0000000000000000     
  -41.399999999999999          0.0000000000000000     
  -41.340000000000003          0.0000000000000000     
  -41.280000000000001          0.0000000000000000     
  -41.219999999999999          0.0000000000000000     
  -41.159999999999997          0.0000000000000000     
  -41.100000000000001          0.0000000000000000     
  -41.039999999999999          0.0000000000000000     
  -40.980000000000004          0.0000000000000000     
  -40.920000000000002          0.0000000000000000     
  -40.859999999999999          0.0000000000000000     
  -40.799999999999997          0.0000000000000000     
  -40.740000000000002          0.0000000000000000     
  -40.680000000000000          0.0000000000000000     
  -40.619999999999997          0.0000000000000000     
  -40.560000000000002          0.0000000000000000     
  -40.500000000000000          0.0000000000000000     
  -40.439999999999998          0.0000000000000000     
  -40.380000000000003          0.0000000000000000     
  -40.320000000000000          0.0000000000000000     
  -40.259999999999998          0.0000000000000000     
  -40.200000000000003          0.0000000000000000     
  -40.140000000000001          0.0000000000000000     
  -40.079999999999998          0.0000000000000000     
  -40.020000000000003          0.0000000000000000     
  -39.960000000000001          0.0000000000000000     
  -39.899999999999999          0.0000000000000000     
  -39.840000000000003          0.0000000000000000     
  -39.780000000000001          0.0000000000000000     
  -39.719999999999999          0.0000000000000000     
  -39.659999999999997          0.0000000000000000     
  -39.600000000000001          0.0000000000000000     
  -39.539999999999999          0.0000000000000000     
  -39.480000000000004          0.0000000000000000     
  -39.420000000000002          0.0000000000000000     
  -39.359999999999999          0.0000000000000000     
  -39.299999999999997          0.0000000000000000     
  -39.240000000000002          0.0000000000000000     
  -39.180000000000000          0.0000000000000000     
  -39.120000000000005          0.0000000000000000     
  -39.060000000000002          0.0000000000000000     
  -39.000000000000000          0.0000000000000000     
  -38.939999999999998          0.0000000000000000     
  -38.880000000000003          0.0000000000000000     
  -38.820000000000000          0.0000000000000000     
  -38.759999999999998          0.0000000000000000     
  -38.700000000000003          0.0000000000000000     
  -38.640000000000001          0.0000000000000000     
  -38.579999999999998          0.0000000000000000     
  -38.519999999999996          0.0000000000000000     
  -38.460000000000001          0.0000000000000000     
  -38.399999999999999          0.0000000000000000     
  -38.340000000000003          0.0000000000000000     
  -38.280000000000001          0.0000000000000000     
  -38.219999999999999          0.0000000000000000     
  -38.159999999999997          0.0000000000000000     
  -38.100000000000001          0.0000000000000000     
  -38.039999999999999          0.0000000000000000     
  -37.980000000000004          0.0000000000000000     
  -37.920000000000002          0.0000000000000000     
  -37.859999999999999          0.0000000000000000     
  -37.799999999999997          0.0000000000000000     
  -37.740000000000002          0.0000000000000000     
  -37.680000000000000          0.0000000000000000     
  -37.620000000000005          0.0000000000000000     
  -37.560000000000002          0.0000000000000000     
  -37.500000000000000          0.0000000000000000     
  -37.439999999999998          0.0000000000000000     
  -37.380000000000003          0.0000000000000000     
  -37.320000000000000          0.0000000000000000     
  -37.259999999999998          0.0000000000000000     
  -37.200000000000003          0.0000000000000000     
  -37.140000000000001          0.0000000000000000     
  -37.079999999999998          0.0000000000000000     
  -37.019999999999996          0.0000000000000000     
  -36.960000000000001          0.0000000000000000     
  -36.899999999999999          0.0000000000000000     
  -36.840000000000003          0.0000000000000000     
  -36.780000000000001          0.0000000000000000     
  -36.719999999999999          0.0000000000000000     
  -36.659999999999997          0.0000000000000000     
  -36.600000000000001          0.0000000000000000     
  -36.539999999999999          0.0000000000000000     
  -36.480000000000004          0.0000000000000000     
  -36.420000000000002          0.0000000000000000     
  -36.359999999999999          0.0000000000000000     
  -36.299999999999997          0.0000000000000000     
  -36.240000000000002          0.0000000000000000     
  -36.180000000000000          0.0000000000000000     
  -36.120000000000005          0.0000000000000000     
  -36.060000000000002          0.0000000000000000     
  -36.000000000000000          0.0000000000000000     
  -35.939999999999998          0.0000000000000000     
  -35.880000000000003          0.0000000000000000     
  -35.820000000000000          0.0000000000000000     
  -35.759999999999998          0.0000000000000000     
  -35.700000000000003          0.0000000000000000     
  -35.640000000000001          0.0000000000000000     
  -35.579999999999998          0.0000000000000000     
  -35.519999999999996          0.0000000000000000     
  -35.460000000000001          0.0000000000000000     
  -35.399999999999999          0.0000000000000000     
  -35.340000000000003          0.0000000000000000     
  -35.280000000000001          0.0000000000000000     
  -35.219999999999999          0.0000000000000000     
  -35.159999999999997          0.0000000000000000     
  -35.100000000000001          0.0000000000000000     
  -35.039999999999999          0.0000000000000000     
  -34.980000000000004          0.0000000000000000     
  -34.920000000000002          0.0000000000000000     
  -34.859999999999999          0.0000000000000000     
  -34.799999999999997          0.0000000000000000     
  -34.740000000000002          0.0000000000000000     
  -34.680000000000000          0.0000000000000000     
  -34.620000000000005          0.0000000000000000     
  -34.560000000000002          0.0000000000000000     
  -34.500000000000000          0.0000000000000000     
  -34.439999999999998          0.0000000000000000     
  -34.380000000000003          0.0000000000000000     
  -34.320000000000000          0.0000000000000000     
  -34.259999999999998          0.0000000000000000     
  -34.200000000000003          0.0000000000000000     
  -34.140000000000001          0.0000000000000000     
  -34.079999999999998          0.0000000000000000     
  -34.020000000000003          0.0000000000000000     
  -33.960000000000001          0.0000000000000000     
  -33.899999999999999          0.0000000000000000     
  -33.840000000000003          0.0000000000000000     
  -33.780000000000001          0.0000000000000000     
  -33.719999999999999          0.0000000000000000     
  -33.659999999999997          0.0000000000000000     
  -33.600000000000001          0.0000000000000000     
  -33.539999999999999          0.0000000000000000     
  -33.480000000000004          0.0000000000000000     
  -33.420000000000002          0.0000000000000000     
  -33.359999999999999          0.0000000000000000     
  -33.299999999999997          0.0000000000000000     
  -33.240000000000002          0.0000000000000000     
  -33.180000000000000          0.0000000000000000     
  -33.120000000000005          0.0000000000000000     
  -33.060000000000002          0.0000000000000000     
  -33.000000000000000          0.0000000000000000     
  -32.939999999999998          0.0000000000000000     
  -32.880000000000003          0.0000000000000000     
  -32.820000000000000          0.0000000000000000     
  -32.759999999999998          0.0000000000000000     
  -32.700000000000003          0.0000000000000000     
  -32.640000000000001          0.0000000000000000     
  -32.579999999999998          0.0000000000000000     
  -32.520000000000003          0.0000000000000000     
  -32.460000000000001          0.0000000000000000     
  -32.399999999999999          0.0000000000000000     
  -32.340000000000003          0.0000000000000000     
  -32.280000000000001          0.0000000000000000     
  -32.219999999999999          0.0000000000000000     
  -32.159999999999997          0.0000000000000000     
  -32.100000000000001          0.0000000000000000     
  -32.039999999999999          0.0000000000000000     
  -31.980000000000000          0.0000000000000000     
  -31.920000000000002          0.0000000000000000     
  -31.859999999999999          0.0000000000000000     
  -31.800000000000001          0.0000000000000000     
  -31.740000000000002          0.0000000000000000     
  -31.680000000000000          0.0000000000000000     
  -31.620000000000001          0.0000000000000000     
  -31.560000000000002          0.0000000000000000     
  -31.500000000000000          0.0000000000000000     
  -31.440000000000001          0.0000000000000000     
  -31.379999999999999          0.0000000000000000     
  -31.320000000000000          0.0000000000000000     
  -31.260000000000002          0.0000000000000000     
  -31.199999999999999          0.0000000000000000     
  -31.140000000000001          0.0000000000000000     
  -31.080000000000002          0.0000000000000000     
  -31.020000000000000          0.0000000000000000     
  -30.960000000000001          0.0000000000000000     
  -30.900000000000002          0.0000000000000000     
  -30.840000000000000          0.0000000000000000     
  -30.780000000000001          0.0000000000000000     
  -30.719999999999999          0.0000000000000000     
  -30.660000000000000          0.0000000000000000     
  -30.600000000000001          0.0000000000000000     
  -30.539999999999999          0.0000000000000000     
  -30.480000000000000          0.0000000000000000     
  -30.420000000000002          0.0000000000000000     
  -30.359999999999999          0.0000000000000000     
  -30.300000000000001          0.0000000000000000     
  -30.240000000000002          0.0000000000000000     
  -30.180000000000000          0.0000000000000000     
  -30.120000000000001          0.0000000000000000     
  -30.060000000000002          0.0000000000000000     
  -30.000000000000000          0.0000000000000000     
  -29.940000000000001          0.0000000000000000     
  -29.879999999999999          0.0000000000000000     
  -29.820000000000000          0.0000000000000000     
  -29.760000000000002          0.0000000000000000     
  -29.699999999999999          0.0000000000000000     
  -29.640000000000001          0.0000000000000000     
  -29.580000000000002          0.0000000000000000     
  -29.520000000000000          0.0000000000000000     
  -29.460000000000001          0.0000000000000000     
  -29.400000000000002          0.0000000000000000     
  -29.340000000000000          0.0000000000000000     
  -29.280000000000001          0.0000000000000000     
  -29.220000000000002          0.0000000000000000     
  -29.160000000000000          0.0000000000000000     
  -29.100000000000001          0.0000000000000000     
  -29.039999999999999          0.0000000000000000     
  -28.980000000000000          0.0000000000000000     
  -28.920000000000002          0.0000000000000000     
  -28.859999999999999          0.0000000000000000     
  -28.800000000000001          0.0000000000000000     
  -28.740000000000002          0.0000000000000000     
  -28.680000000000000          0.0000000000000000     
  -28.620000000000001          0.0000000000000000     
  -28.560000000000002          0.0000000000000000     
  -28.500000000000000          0.0000000000000000     
  -28.440000000000001          0.0000000000000000     
  -28.379999999999999          0.0000000000000000     
  -28.320000000000000          0.0000000000000000     
  -28.260000000000002         -2.2041481686006999E-039
  -28.199999999999999         -7.2872728285538134E-039
  -28.140000000000001         -1.6039541921491083E-038
  -28.080000000000002         -2.9364068892689598E-038
  -28.020000000000000         -4.8306545169978403E-038
  -27.960000000000001         -7.6078744688883393E-038
  -27.900000000000002         -1.0900365611745210E-037
  -27.840000000000000         -1.4792193400402154E-037
  -27.780000000000001         -1.9383095638528963E-037
  -27.720000000000002         -2.4267050265435291E-037
  -27.660000000000000         -2.8276491099980055E-037
  -27.600000000000001         -3.0184877678343221E-037
  -27.539999999999999         -2.9566109828960621E-037
  -27.480000000000000         -2.5591923282376852E-037
  -27.420000000000002         -1.7968506259423142E-037
  -27.359999999999999         -6.2681403530498240E-038
  -27.300000000000001          6.4947412015696098E-038
  -27.240000000000002          1.9875072421613997E-037
  -27.180000000000000          3.3386840437004464E-037
  -27.120000000000001          4.6532076881426881E-037
  -27.060000000000002          5.8892271998879728E-037
  -27.000000000000000          7.1141657148521663E-037
  -26.940000000000001          8.2284343989999490E-037
  -26.880000000000003          8.9529433408436803E-037
  -26.820000000000000          1.0403349507729863E-036
  -26.760000000000002          1.1073471259990183E-036
  -26.699999999999999          1.0718240304519746E-036
  -26.640000000000001          9.4079284779054067E-037
  -26.580000000000002          7.7027356774160159E-037
  -26.520000000000000          5.6155582988061340E-037
  -26.460000000000001          3.1373627809250618E-037
  -26.400000000000002          2.7494151441656236E-038
  -26.340000000000000         -2.7615034290896482E-037
  -26.280000000000001         -6.0257880625646038E-037
  -26.220000000000002         -8.6447184888614261E-037
  -26.160000000000000         -1.0569291550852083E-036
  -26.100000000000001         -1.1855283894003521E-036
  -26.039999999999999         -1.3142583929940528E-036
  -25.980000000000000         -1.4583951190582980E-036
  -25.920000000000002         -1.6150000415775158E-036
  -25.859999999999999         -1.7887002646883735E-036
  -25.800000000000001         -1.9754084384913556E-036
  -25.740000000000002         -2.1176929839417327E-036
  -25.680000000000000         -2.3671677124549823E-036
  -25.620000000000001         -2.7221610396028145E-036
  -25.560000000000002         -3.1983920300134380E-036
  -25.500000000000000         -3.8130055027953886E-036
  -25.440000000000001         -4.5913703239044736E-036
  -25.380000000000003         -5.5709157309814086E-036
  -25.320000000000000         -6.7676016496068845E-036
  -25.260000000000002         -8.3067918690197999E-036
  -25.199999999999999         -1.0281853617743684E-035
  -25.140000000000001         -1.2881823242651877E-035
  -25.080000000000002         -1.6245517114166427E-035
  -25.020000000000000         -2.0467979258344622E-035
  -24.960000000000001         -2.5708519221057141E-035
  -24.900000000000002         -3.2169196343641091E-035
  -24.840000000000000         -4.0083331682814040E-035
  -24.780000000000001         -4.9714687751492074E-035
  -24.720000000000002         -6.1329364796723751E-035
  -24.660000000000000         -7.5273622725652129E-035
  -24.600000000000001         -9.1979014390039562E-035
  -24.539999999999999         -1.1195787099377899E-034
  -24.480000000000000         -1.3584076161339387E-034
  -24.420000000000002         -1.6438051327427696E-034
  -24.359999999999999         -1.9849206423079935E-034
  -24.300000000000001         -2.3928544640521928E-034
  -24.240000000000002         -2.8809737624245968E-034
  -24.180000000000000         -3.4651168562567561E-034
  -24.120000000000001         -4.1640760561439967E-034
  -24.060000000000002         -4.9999900339171695E-034
  -24.000000000000000         -5.9992258835961596E-034
  -23.940000000000001         -7.1924482035300504E-034
  -23.880000000000003         -8.6154638758478502E-034
  -23.820000000000000         -1.0309932417217712E-033
  -23.760000000000002         -1.2324056352747947E-033
  -23.699999999999999         -1.4713967327174458E-033
  -23.640000000000001         -1.7544164111691121E-033
  -23.580000000000002         -2.0888891797123457E-033
  -23.520000000000000         -2.4833718094285056E-033
  -23.460000000000001         -2.9476478023223006E-033
  -23.400000000000002         -3.4928745303897088E-033
  -23.340000000000000         -4.1316996123676545E-033
  -23.280000000000001         -4.8784631916643131E-033
  -23.220000000000002         -5.7491965855472183E-033
  -23.160000000000000         -6.7618545514939704E-033
  -23.100000000000001         -7.9362956716076046E-033
  -23.039999999999999         -9.2943310817542647E-033
  -22.980000000000000         -1.0859356710959463E-032
  -22.920000000000002         -1.2656338208875613E-032
  -22.859999999999999         -1.4711461667649117E-032
  -22.800000000000001         -1.7051324225114739E-032
  -22.740000000000002         -1.9702322354767697E-032
  -22.680000000000000         -2.2689147692860744E-032
  -22.620000000000001         -2.6032761999368617E-032
  -22.560000000000002         -2.9748052793596368E-032
  -22.500000000000000         -3.3841028206497595E-032
  -22.440000000000001         -3.8303007750477843E-032
  -22.380000000000003         -4.3105626388403827E-032
  -22.320000000000000         -4.8189570200913730E-032
  -22.260000000000002         -5.3457920423520890E-032
  -22.199999999999999         -5.8758842203830738E-032
  -22.140000000000001         -6.3871253496681400E-032
  -22.080000000000002         -6.8479832017180089E-032
  -22.020000000000000         -7.2148038767781296E-032
  -21.960000000000001         -7.4280769989167904E-032
  -21.900000000000002         -7.4085848329072207E-032
  -21.840000000000000         -7.0516596694151187E-032
  -21.780000000000001         -6.2189596023023480E-032
  -21.720000000000002         -4.7315698323187070E-032
  -21.660000000000000         -2.3591630455886739E-032
  -21.600000000000001          1.1934395128314417E-032
  -21.540000000000003          6.3019096633852568E-032
  -21.480000000000000          1.3445082054912940E-031
  -21.420000000000002          2.3227591292863168E-031
  -21.359999999999999          3.6412325156405689E-031
  -21.300000000000001          5.3960155096105838E-031
  -21.240000000000002          7.7080449321528064E-031
  -21.180000000000000          1.0728769506097474E-030
  -21.120000000000001          1.4647299281138928E-030
  -21.060000000000002          1.9698903956105472E-030
  -21.000000000000000          2.6175771378468647E-030
  -20.940000000000001          3.4440331894670310E-030
  -20.880000000000003          4.4939438528988842E-030
  -20.820000000000000          5.8224641835825466E-030
  -20.760000000000002          7.4974446839324711E-030
  -20.699999999999999          9.6022333150342124E-030
  -20.640000000000001          1.2238754899339747E-029
  -20.580000000000002          1.5532223945370161E-029
  -20.520000000000000          1.9635317808523443E-029
  -20.460000000000001          2.4734837313975893E-029
  -20.400000000000002          3.1058383789915885E-029
  -20.340000000000000          3.8883407140897802E-029
  -20.280000000000001          4.8548066705179314E-029
  -20.220000000000002          6.0463546644493106E-029
  -20.160000000000000          7.5129575419792235E-029
  -20.100000000000001          9.3151872850376103E-029
  -20.040000000000003          1.1526437076913855E-028
  -19.980000000000000          1.4235466167993008E-028
  -19.920000000000002          1.7549466902581586E-028
  -19.859999999999999          2.1597662964187901E-028
  -19.800000000000001          2.6535368869697720E-028
  -19.740000000000002          3.2549659060413341E-028
  -19.680000000000000          3.9865239744633944E-028
  -19.620000000000001          4.8752182875506641E-028
  -19.560000000000002          5.9534705517124285E-028
  -19.500000000000000          7.2601377632704704E-028
  -19.440000000000001          8.8418747665220535E-028
  -19.380000000000003          1.0754611521153882E-027
  -19.320000000000000          1.3065364907963353E-027
  -19.260000000000002          1.5854307641088354E-027
  -19.200000000000003          1.9217300047220765E-027
  -19.140000000000001          2.3268902571533471E-027
  -19.080000000000002          2.8145709335704912E-027
  -19.020000000000000          3.4010364620485093E-027
  -18.960000000000001          4.1056369644063715E-027
  -18.900000000000002          4.9513395799009934E-027
  -18.840000000000000          5.9654507481098692E-027
  -18.780000000000001          7.1803740081238937E-027
  -18.720000000000002          8.6345301909379604E-027
  -18.660000000000000          1.0373530323228450E-026
  -18.600000000000001          1.2451414508400405E-026
  -18.540000000000003          1.4932326404259880E-026
  -18.480000000000000          1.7892224841848887E-026
  -18.420000000000002          2.1421051211159069E-026
  -18.359999999999999          2.5625090278268829E-026
  -18.300000000000001          3.0629843943427004E-026
  -18.240000000000002          3.6583512380744111E-026
  -18.180000000000000          4.3660958820476609E-026
  -18.120000000000001          5.2067931403732681E-026
  -18.060000000000002          6.2046780416314560E-026
  -18.000000000000000          7.3882191154622191E-026
  -17.940000000000001          8.7908921911775558E-026
  -17.880000000000003          1.0452067052017623E-025
  -17.820000000000000          1.2417981456653423E-025
  -17.760000000000002          1.4742958258069249E-025
  -17.700000000000003          1.7490862076482072E-025
  -17.640000000000001          2.0736683253139441E-025
  -17.580000000000002          2.4568468560420722E-025
  -17.520000000000000          2.9089501944270112E-025
  -17.460000000000001          3.4420807700272159E-025
  -17.400000000000002          4.0704040939460431E-025
  -17.340000000000000          4.8105031909419164E-025
  -17.280000000000001          5.6817504208207413E-025
  -17.220000000000002          6.7067498085776832E-025
  -17.160000000000000          7.9118775620658011E-025
  -17.100000000000001          9.3278774824076069E-025
  -17.040000000000003          1.0990600105085268E-024
  -16.980000000000000          1.2941834264687777E-024
  -16.920000000000002          1.5230241728756449E-024
  -16.859999999999999          1.7912606905015881E-024
  -16.800000000000001          2.1055095802301823E-024
  -16.740000000000002          2.4734871095264060E-024
  -16.680000000000000          2.9041869149248262E-024
  -16.620000000000001          3.4080963572837535E-024
  -16.560000000000002          3.9974294092241897E-024
  -16.500000000000000          4.6863860407689620E-024
  -16.440000000000001          5.4915043727467041E-024
  -16.380000000000003          6.4319752930722204E-024
  -16.320000000000000          7.5300725861017509E-024
  -16.260000000000002          8.8116043956994662E-024
  -16.200000000000003          1.0306498276683680E-023
  -16.140000000000001          1.2049445145561620E-023
  -16.080000000000002          1.4080644216968566E-023
  -16.020000000000000          1.6446715551218129E-023
  -15.960000000000001          1.9201749680149015E-023
  -15.899999999999999          2.2408550412830714E-023
  -15.840000000000003          2.6140052665176908E-023
  -15.780000000000001          3.0481009170807994E-023
  -15.719999999999999          3.5529910096820672E-023
  -15.660000000000004          4.1401181388986380E-023
  -15.600000000000001          4.8227769801139727E-023
  -15.539999999999999          5.6164023832614371E-023
  -15.480000000000004          6.5388976437492128E-023
  -15.420000000000002          7.6110199816020856E-023
  -15.359999999999999          8.8568344679192094E-023