  -48.000000000000000          0.0000000000000000     
  -47.939999999999998          0.0000000000000000     
  -47.880000000000003          0.0000000000000000     
  -47.820000000000000          0.0000000000000000     
  -47.759999999999998          0.0000000000000000     
  -47.700000000000003          0.0000000000000000     
  -47.640000000000001          0.0000000000000000     
  -47.579999999999998          0.0000000000000000     
  -47.520000000000003          0.0000000000000000     
  -47.460000000000001          0.0000000000000000     
  -47.399999999999999          0.0000000000000000     
  -47.340000000000003          0.0000000000000000     
  -47.280000000000001          0.0000000000000000     
  -47.219999999999999          0.0000000000000000     
  -47.159999999999997          0.0000000000000000     
  -47.100000000000001          0.0000000000000000     
  -47.039999999999999          0.0000000000000000     
  -46.979999999999997          0.0000000000000000     
  -46.920000000000002          0.0000000000000000     
  -46.859999999999999          0.0000000000000000     
  -46.799999999999997          0.0000000000000000     
  -46.740000000000002          0.0000000000000000     
  -46.680000000000000          0.0000000000000000     
  -46.619999999999997          0.0000000000000000     
  -46.560000000000002          0.0000000000000000     
  -46.500000000000000          0.0000000000000000     
  -46.439999999999998          0.0000000000000000     
  -46.380000000000003          0.0000000000000000     
  -46.320000000000000          0.0000000000000000     
  -46.259999999999998          0.0000000000000000     
  -46.200000000000003          0.0000000000000000     
  -46.140000000000001          0.0000000000000000     
  -46.079999999999998          0.0000000000000000     
  -46.020000000000003          0.0000000000000000     
  -45.960000000000001          0.0000000000000000     
  -45.899999999999999          0.0000000000000000     
  -45.840000000000003          0.0000000000000000     
  -45.780000000000001          0.0000000000000000     
  -45.719999999999999          0.0000000000000000     
  -45.659999999999997          0.0000000000000000     
  -45.600000000000001          0.0000000000000000     
  -45.539999999999999          0.0000000000000000     
  -45.479999999999997          0.0000000000000000     
  -45.420000000000002          0.0000000000000000     
  -45.359999999999999          0.0000000000000000     
  -45.299999999999997          0.0000000000000000     
  -45.240000000000002          0.0000000000000000     
  -45.180000000000000          0.0000000000000000     
  -45.119999999999997          0.0000000000000000     
  -45.060000000000002          0.0000000000000000     
  -45.000000000000000          0.0000000000000000     
  -44.939999999999998          0.0000000000000000     
  -44.880000000000003          0.0000000000000000     
  -44.820000000000000          0.0000000000000000     
  -44.759999999999998          0.0000000000000000     
  -44.700000000000003          0.0000000000000000     
  -44.640000000000001          0.0000000000000000     
  -44.579999999999998          0.0000000000000000     
  -44.520000000000003          0.0000000000000000     
  -44.460000000000001          0.0000000000000000     
  -44.399999999999999          0.0000000000000000     
  -44.340000000000003          0.0000000000000000     
  -44.280000000000001          0.0000000000000000     
  -44.219999999999999          0.0000000000000000     
  -44.159999999999997          0.0000000000000000     
  -44.100000000000001          0.0000000000000000     
  -44.039999999999999          0.0000000000000000     
  -43.980000000000004          0.0000000000000000     
  -43.920000000000002          0.0000000000000000     
  -43.859999999999999          0.0000000000000000     
  -43.799999999999997          0.0000000000000000     
  -43.740000000000002          0.0000000000000000     
  -43.680000000000000          0.0000000000000000     
  -43.619999999999997          0.0000000000000000     
  -43.560000000000002          0.0000000000000000     
  -43.500000000000000          0.0000000000000000     
  -43.439999999999998          0.0000000000000000     
  -43.380000000000003          0.0000000000000000     
  -43.320000000000000          0.0000000000000000     
  -43.259999999999998          0.0000000000000000     
  -43.200000000000003          0.0000000000000000     
  -43.140000000000001          0.0000000000000000     
  -43.079999999999998          0.0000000000000000     
  -43.020000000000003          0.0000000000000000     
  -42.960000000000001          0.0000000000000000     
  -42.899999999999999          0.0000000000000000     
  -42.840000000000003          0.0000000000000000     
  -42.780000000000001          0.0000000000000000     
  -42.719999999999999          0.0000000000000000     
  -42.659999999999997          0.0000000000000000     
  -42.600000000000001          0.0000000000000000     
  -42.539999999999999          0.0000000000000000     
  -42.480000000000004          0.0000000000000000     
  -42.420000000000002          0.0000000000000000     
  -42.359999999999999          0.0000000000000000     
  -42.299999999999997          0.0000000000000000     
  -42.240000000000002          0.0000000000000000     
  -42.180000000000000          0.0000000000000000     
  -42.119999999999997          0.0000000000000000     
  -42.060000000000002          0.0000000000000000     
  -42.000000000000000          0.0000000000000000     
  -41.939999999999998          0.0000000000000000     
  -41.880000000000003          0.0000000000000000     
  -41.820000000000000          0.0000000000000000     
  -41.759999999999998          0.0000000000000000     
  -41.700000000000003          0.0000000000000000     
  -41.640000000000001          0.0000000000000000     
  -41.579999999999998          0.0000000000000000     
  -41.520000000000003          0.0000000000000000     
  -41.460000000000001          0.0000000000000000     
  -41.399999999999999          0.0000000000000000     
  -41.340000000000003          0.0000000000000000     
  -41.280000000000001          0.0000000000000000     
  -41.219999999999999          0.0000000000000000     
  -41.159999999999997          0.0000000000000000     
  -41.100000000000001          0.0000000000000000     
  -41.039999999999999          0.0000000000000000     
  -40.980000000000004          0.0000000000000000     
  -40.920000000000002          0.0000000000000000     
  -40.859999999999999          0.0000000000000000     
  -40.799999999999997          0.0000000000000000     
  -40.740000000000002          0.0000000000000000     
  -40.680000000000000          0.0000000000000000     
  -40.619999999999997          0.0000000000000000     
  -40.560000000000002          0.0000000000000000     
  -40.500000000000000          0.0000000000000000     
  -40.439999999999998          0.0000000000000000     
  -40.380000000000003          0.0000000000000000     
  -40.320000000000000          0.0000000000000000     
  -40.259999999999998          0.0000000000000000     
  -40.200000000000003          0.0000000000000000     
  -40.140000000000001          0.0000000000000000     
  -40.079999999999998          0.0000000000000000     
  -40.020000000000003          0.0000000000000000     
  -39.960000000000001          0.0000000000000000     
  -39.899999999999999          0.0000000000000000     
  -39.840000000000003          0.0000000000000000     
  -39.780000000000001          0.0000000000000000     
  -39.719999999999999          0.0000000000000000     
  -39.659999999999997          0.0000000000000000     
  -39.600000000000001          0.0000000000000000     
  -39.539999999999999          0.0000000000000000     
  -39.480000000000004          0.0000000000000000     
  -39.420000000000002          0.0000000000000000     
  -39.359999999999999          0.0000000000000000     
  -39.299999999999997          0.0000000000000000     
  -39.240000000000002          0.0000000000000000     
  -39.180000000000000          0.0000000000000000     
  -39.120000000000005          0.0000000000000000     
  -39.060000000000002          0.0000000000000000     
  -39.000000000000000          0.0000000000000000     
  -38.939999999999998          0.0000000000000000     
  -38.880000000000003          0.0000000000000000     
  -38.820000000000000          0.0000000000000000     
  -38.759999999999998          0.0000000000000000     
  -38.700000000000003          0.0000000000000000     
  -38.640000000000001          0.0000000000000000     
  -38.579999999999998          0.0000000000000000     
  -38.519999999999996          0.0000000000000000     
  -38.460000000000001          0.0000000000000000     
  -38.399999999999999          0.0000000000000000     
  -38.340000000000003          0.0000000000000000     
  -38.280000000000001          0.0000000000000000     
  -38.219999999999999          0.0000000000000000     
  -38.159999999999997          0.0000000000000000     
  -38.100000000000001          0.0000000000000000     
  -38.039999999999999          0.0000000000000000     
  -37.980000000000004          0.0000000000000000     
  -37.920000000000002          0.0000000000000000     
  -37.859999999999999          0.0000000000000000     
  -37.799999999999997          0.0000000000000000     
  -37.740000000000002          0.0000000000000000     
  -37.680000000000000          0.0000000000000000     
  -37.620000000000005          0.0000000000000000     
  -37.560000000000002          0.0000000000000000     
  -37.500000000000000          0.0000000000000000     
  -37.439999999999998          0.0000000000000000     
  -37.380000000000003          0.0000000000000000     
  -37.320000000000000          0.0000000000000000     
  -37.259999999999998          0.0000000000000000     
  -37.200000000000003          0.0000000000000000     
  -37.140000000000001          0.0000000000000000     
  -37.079999999999998          0.0000000000000000     
  -37.019999999999996          0.0000000000000000     
  -36.960000000000001          0.0000000000000000     
  -36.899999999999999          0.0000000000000000     
  -36.840000000000003          0.0000000000000000     
  -36.780000000000001          0.0000000000000000     
  -36.719999999999999          0.0000000000000000     
  -36.659999999999997          0.0000000000000000     
  -36.600000000000001          0.0000000000000000     
  -36.539999999999999          0.0000000000000000     
  -36.480000000000004          0.0000000000000000     
  -36.420000000000002          0.0000000000000000     
  -36.359999999999999          0.0000000000000000     
  -36.299999999999997          0.0000000000000000     
  -36.240000000000002          0.0000000000000000     
  -36.180000000000000          0.0000000000000000     
  -36.120000000000005          0.0000000000000000     
  -36.060000000000002          0.0000000000000000     
  -36.000000000000000          0.0000000000000000     
  -35.939999999999998          0.0000000000000000     
  -35.880000000000003          0.0000000000000000     
  -35.820000000000000          0.0000000000000000     
  -35.759999999999998          0.0000000000000000     
  -35.700000000000003          0.0000000000000000     
  -35.640000000000001          0.0000000000000000     
  -35.579999999999998          0.0000000000000000     
  -35.519999999999996          0.0000000000000000     
  -35.460000000000001          0.0000000000000000     
  -35.399999999999999          0.0000000000000000     
  -35.340000000000003          0.0000000000000000     
  -35.280000000000001          0.0000000000000000     
  -35.219999999999999          0.0000000000000000     
  -35.159999999999997          0.0000000000000000     
  -35.100000000000001          0.0000000000000000     
  -35.039999999999999          0.0000000000000000     
  -34.980000000000004          0.0000000000000000     
  -34.920000000000002          0.0000000000000000     
  -34.859999999999999          0.0000000000000000     
  -34.799999999999997          0.0000000000000000     
  -34.740000000000002          0.0000000000000000     
  -34.680000000000000          0.0000000000000000     
  -34.620000000000005          0.0000000000000000     
  -34.560000000000002          0.0000000000000000     
  -34.500000000000000          0.0000000000000000     
  -34.439999999999998          0.0000000000000000     
  -34.380000000000003          0.0000000000000000     
  -34.320000000000000          0.0000000000000000     
  -34.259999999999998          0.0000000000000000     
  -34.200000000000003          0.0000000000000000     
  -34.140000000000001          0.0000000000000000     
  -34.079999999999998          0.0000000000000000     
  -34.020000000000003          0.0000000000000000     
  -33.960000000000001          0.0000000000000000     
  -33.899999999999999          0.0000000000000000     
  -33.840000000000003          0.0000000000000000     
  -33.780000000000001          0.0000000000000000     
  -33.719999999999999          0.0000000000000000     
  -33.659999999999997          0.0000000000000000     
  -33.600000000000001          0.0000000000000000     
  -33.539999999999999          0.0000000000000000     
  -33.480000000000004          0.0000000000000000     
  -33.420000000000002          0.0000000000000000     
  -33.359999999999999          0.0000000000000000     
  -33.299999999999997          0.0000000000000000     
  -33.240000000000002          0.0000000000000000     
  -33.180000000000000          0.0000000000000000     
  -33.120000000000005          0.0000000000000000     
  -33.060000000000002          0.0000000000000000     
  -33.000000000000000          0.0000000000000000     
  -32.939999999999998          0.0000000000000000     
  -32.880000000000003          0.0000000000000000     
  -32.820000000000000          0.0000000000000000     
  -32.759999999999998          0.0000000000000000     
  -32.700000000000003          0.0000000000000000     
  -32.640000000000001          0.0000000000000000     
  -32.579999999999998          0.0000000000000000     
  -32.520000000000003          0.0000000000000000     
  -32.460000000000001          0.0000000000000000     
  -32.399999999999999          0.0000000000000000     
  -32.340000000000003          0.0000000000000000     
  -32.280000000000001          0.0000000000000000     
  -32.219999999999999          0.0000000000000000     
  -32.159999999999997          0.0000000000000000     
  -32.100000000000001          0.0000000000000000     
  -32.039999999999999          0.0000000000000000     
  -31.980000000000000          0.0000000000000000     
  -31.920000000000002          0.0000000000000000     
  -31.859999999999999          0.0000000000000000     
  -31.800000000000001          0.0000000000000000     
  -31.740000000000002          0.0000000000000000     
  -31.680000000000000          0.0000000000000000     
  -31.620000000000001          0.0000000000000000     
  -31.560000000000002          0.0000000000000000     
  -31.500000000000000          0.0000000000000000     
  -31.440000000000001          0.0000000000000000     
  -31.379999999999999          0.0000000000000000     
  -31.320000000000000          0.0000000000000000     
  -31.260000000000002          0.0000000000000000     
  -31.199999999999999          0.0000000000000000     
  -31.140000000000001          0.0000000000000000     
  -31.080000000000002          0.0000000000000000     
  -31.020000000000000          0.0000000000000000     
  -30.960000000000001          0.0000000000000000     
  -30.900000000000002          0.0000000000000000     
  -30.840000000000000          0.0000000000000000     
  -30.780000000000001          0.0000000000000000     
  -30.719999999999999          0.0000000000000000     
  -30.660000000000000          0.0000000000000000     
  -30.600000000000001          0.0000000000000000     
  -30.539999999999999          0.0000000000000000     
  -30.480000000000000          0.0000000000000000     
  -30.420000000000002          0.0000000000000000     
  -30.359999999999999          0.0000000000000000     
  -30.300000000000001          0.0000000000000000     
  -30.240000000000002          0.0000000000000000     
  -30.180000000000000          0.0000000000000000     
  -30.120000000000001          0.0000000000000000     
  -30.060000000000002          0.0000000000000000     
  -30.000000000000000          0.0000000000000000     
  -29.940000000000001          0.0000000000000000     
  -29.879999999999999          0.0000000000000000     
  -29.820000000000000          0.0000000000000000     
  -29.760000000000002          0.0000000000000000     
  -29.699999999999999          0.0000000000000000     
  -29.640000000000001          0.0000000000000000     
  -29.580000000000002          0.0000000000000000     
  -29.520000000000000          0.0000000000000000     
  -29.460000000000001          0.0000000000000000     
  -29.400000000000002          0.0000000000000000     
  -29.340000000000000          0.0000000000000000     
  -29.280000000000001          0.0000000000000000     
  -29.220000000000002          0.0000000000000000     
  -29.160000000000000          0.0000000000000000     
  -29.100000000000001          0.0000000000000000     
  -29.039999999999999          0.0000000000000000     
  -28.980000000000000          0.0000000000000000     
  -28.920000000000002          0.0000000000000000     
  -28.859999999999999          0.0000000000000000     
  -28.800000000000001          0.0000000000000000     
  -28.740000000000002          0.0000000000000000     
  -28.680000000000000          0.0000000000000000     
  -28.620000000000001          0.0000000000000000     
  -28.560000000000002          0.0000000000000000     
  -28.500000000000000          0.0000000000000000     
  -28.440000000000001          0.0000000000000000     
  -28.379999999999999          0.0000000000000000     
  -28.320000000000000          0.0000000000000000     
  -28.260000000000002          0.0000000000000000     
  -28.199999999999999          0.0000000000000000     
  -28.140000000000001          0.0000000000000000     
  -28.080000000000002          0.0000000000000000     
  -28.020000000000000          0.0000000000000000     
  -27.960000000000001          0.0000000000000000     
  -27.900000000000002          0.0000000000000000     
  -27.840000000000000          0.0000000000000000     
  -27.780000000000001          0.0000000000000000     
  -27.720000000000002          0.0000000000000000     
  -27.660000000000000          0.0000000000000000     
  -27.600000000000001          0.0000000000000000     
  -27.539999999999999          0.0000000000000000     
  -27.480000000000000          0.0000000000000000     
  -27.420000000000002          0.0000000000000000     
  -27.359999999999999          0.0000000000000000     
  -27.300000000000001          0.0000000000000000     
  -27.240000000000002          0.0000000000000000     
  -27.180000000000000          0.0000000000000000     
  -27.120000000000001          0.0000000000000000     
  -27.060000000000002          0.0000000000000000     
  -27.000000000000000          0.0000000000000000     
  -26.940000000000001          0.0000000000000000     
  -26.880000000000003          0.0000000000000000     
  -26.820000000000000          0.0000000000000000     
  -26.760000000000002          0.0000000000000000     
  -26.699999999999999          0.0000000000000000     
  -26.640000000000001          0.0000000000000000     
  -26.580000000000002          0.0000000000000000     
  -26.520000000000000          0.0000000000000000     
  -26.460000000000001          0.0000000000000000     
  -26.400000000000002          0.0000000000000000     
  -26.340000000000000          0.0000000000000000     
  -26.280000000000001          0.0000000000000000     
  -26.220000000000002          0.0000000000000000     
  -26.160000000000000          0.0000000000000000     
  -26.100000000000001          0.0000000000000000     
  -26.039999999999999          0.0000000000000000     
  -25.980000000000000          0.0000000000000000     
  -25.920000000000002          0.0000000000000000     
  -25.859999999999999          0.0000000000000000     
  -25.800000000000001         -4.4512552750212295E-040
  -25.740000000000002         -1.4694940270906247E-039
  -25.680000000000000         -3.2253878314903628E-039
  -25.620000000000001         -6.2077527325392256E-039
  -25.560000000000002         -1.0704834609686788E-038
  -25.500000000000000         -1.7040483489769605E-038
  -25.440000000000001         -2.4507693369770160E-038
  -25.380000000000003         -3.3279600057494853E-038
  -25.320000000000000         -4.2484956061697452E-038
  -25.260000000000002         -5.2171771834209765E-038
  -25.199999999999999         -5.9312142053927422E-038
  -25.140000000000001         -6.3321652642214812E-038
  -25.080000000000002         -6.1419555181377525E-038
  -25.020000000000000         -5.2480529838871433E-038
  -24.960000000000001         -3.0408401265131966E-038
  -24.900000000000002          2.6537473523556106E-039
  -24.840000000000000          3.9754498674813260E-038
  -24.780000000000001          8.0299216818128169E-038
  -24.720000000000002          1.2352731899414158E-037
  -24.660000000000000          1.6866177004313062E-037
  -24.600000000000001          2.1524844246193381E-037
  -24.539999999999999          2.6060299453846535E-037
  -24.480000000000000          3.0273759279543955E-037
  -24.420000000000002          3.3979358784901284E-037
  -24.359999999999999          3.5468126154112103E-037
  -24.300000000000001          3.4276606602825803E-037
  -24.240000000000002          2.9705955347032382E-037
  -24.180000000000000          2.2475346254340798E-037
  -24.120000000000001          1.0750251304558966E-037
  -24.060000000000002         -4.7584009536473896E-038
  -24.000000000000000         -2.1264758107238724E-037
  -23.940000000000001         -3.9043313440498166E-037
  -23.880000000000003         -5.5982275109962695E-037
  -23.820000000000000         -7.0856496584787817E-037
  -23.760000000000002         -8.3510262456540391E-037
  -23.699999999999999         -9.5118099959805534E-037
  -23.640000000000001         -1.0232089377612315E-036
  -23.580000000000002         -1.0556533441040363E-036
  -23.520000000000000         -1.0555615893976812E-036
  -23.460000000000001         -1.0332500250972739E-036
  -23.400000000000002         -1.0907453817719617E-036
  -23.340000000000000         -1.2543222826559658E-036
  -23.280000000000001         -1.5368098669554540E-036
  -23.220000000000002         -1.9626853968762082E-036
  -23.160000000000000         -2.5573879012886360E-036
  -23.100000000000001         -3.3117658040666000E-036
  -23.039999999999999         -4.2484311202518993E-036
  -22.980000000000000         -5.4230938717344852E-036
  -22.920000000000002         -6.8616087273317818E-036
  -22.859999999999999         -8.6225172460064290E-036
  -22.800000000000001         -1.0787186834228697E-035
  -22.740000000000002         -1.3451951122391494E-035
  -22.680000000000000         -1.6755339489513576E-035
  -22.620000000000001         -2.0870259553930510E-035
  -22.560000000000002         -2.6004793460316961E-035
  -22.500000000000000         -3.2577550763334168E-035
  -22.440000000000001         -4.0635774020347088E-035
  -22.380000000000003         -5.0477974329905369E-035
  -22.320000000000000         -6.2471598698211431E-035
  -22.260000000000002         -7.6995287793685561E-035
  -22.199999999999999         -9.4540562621783809E-035
  -22.140000000000001         -1.1564427161406782E-034
  -22.080000000000002         -1.4096812000162584E-034
  -22.020000000000000         -1.7134929354630058E-034
  -21.960000000000001         -2.0776511958174724E-034
  -21.900000000000002         -2.5147064400107233E-034
  -21.840000000000000         -3.0398565104638428E-034
  -21.780000000000001         -3.6719351223666550E-034
  -21.720000000000002         -4.4338924133459255E-034
  -21.660000000000000         -5.3536438368330646E-034
  -21.600000000000001         -6.4647489282483768E-034
  -21.540000000000003         -7.8079222978409129E-034
  -21.480000000000000         -9.4329406799229965E-034
  -21.420000000000002         -1.1399012830405356E-033
  -21.359999999999999         -1.3775750542320020E-033
  -21.300000000000001         -1.6647598953426021E-033
  -21.240000000000002         -2.0115306907437002E-033
  -21.180000000000000         -2.4299471759776759E-033
  -21.120000000000001         -2.9344558604354782E-033
  -21.060000000000002         -3.5423647852794476E-033
  -21.000000000000000         -4.2743701079407983E-033
  -20.940000000000001         -5.1552069420143804E-033
  -20.880000000000003         -6.2145179370025433E-033
  -20.820000000000000         -7.4877589630323724E-033
  -20.760000000000002         -9.0173470154987309E-033
  -20.699999999999999         -1.0853967258570628E-032
  -20.640000000000001         -1.3058154792280438E-032
  -20.580000000000002         -1.5702128864842723E-032
  -20.520000000000000         -1.8871989331213444E-032
  -20.460000000000001         -2.2670319199849860E-032
  -20.400000000000002         -2.7219237725621193E-032
  -20.340000000000000         -3.2664080217023796E-032
  -20.280000000000001         -3.9177662404483351E-032
  -20.220000000000002         -4.6965447402134913E-032
  -20.160000000000000         -5.6271569058932636E-032
  -20.100000000000001         -6.7386034135623672E-032
  -20.040000000000003         -8.0653307604991888E-032
  -19.980000000000000         -9.6482250108881775E-032
  -19.920000000000002         -1.1535799828389189E-031
  -19.859999999999999         -1.3785604468563140E-031
  -19.800000000000001         -1.6465861113241701E-031
  -19.740000000000002         -1.9657408674586226E-031
  -19.680000000000000         -2.3455968523662125E-031
  -19.620000000000001         -2.7974826907225002E-031
  -19.560000000000002         -3.3347946849643977E-031
  -19.500000000000000         -3.9733637763027555E-031
  -19.440000000000001         -4.7318854810234096E-031
  -19.380000000000003         -5.6324191223325293E-031
  -19.320000000000000         -6.7009759559644368E-031
  -19.260000000000002         -7.9682034338497221E-031
  -19.200000000000003         -9.4701933069474800E-031
  -19.140000000000001         -1.1249417357286904E-030
  -19.080000000000002         -1.3355825084364243E-030
  -19.020000000000000         -1.5848140520764155E-030
  -18.960000000000001         -1.8795361674444588E-030
  -18.900000000000002         -2.2278537729419640E-030
  -18.840000000000000         -2.6392878356911115E-030
  -18.780000000000001         -3.1250192826881515E-030
  -18.720000000000002         -3.6981761002284129E-030
  -18.660000000000000         -4.3741703801519892E-030
  -18.600000000000001         -5.1710923458655047E-030
  -18.540000000000003         -6.1101664612407218E-030
  -18.480000000000000         -7.2162772538812834E-030
  -18.420000000000002         -8.5185789306839216E-030
  -18.359999999999999         -1.0051196158465808E-029
  -18.300000000000001         -1.1854023055500628E-029
  -18.240000000000002         -1.3973645986795325E-029
  -18.180000000000000         -1.6464397295619721E-029
  -18.120000000000001         -1.9389579340371902E-029
  -18.060000000000002         -2.2822890380378208E-029
  -18.000000000000000         -2.6850056969013976E-029
  -17.940000000000001         -3.1570767852278905E-029
  -17.880000000000003         -3.7100928878343273E-029
  -17.820000000000000         -4.3575296744511060E-029
  -17.760000000000002         -5.1150569793011231E-029
  -17.700000000000003         -6.0008978693750402E-029
  -17.640000000000001         -7.0362515835998467E-029
  -17.580000000000002         -8.2457720059397969E-029
  -17.520000000000000         -9.6581293951769830E-029
  -17.460000000000001         -1.1306655550452029E-028
  -17.400000000000002         -1.3230063952297498E-028
  -17.340000000000000         -1.5473282940705999E-028
  -17.280000000000001         -1.8088406409066099E-028
  -17.220000000000002         -2.1135775675863922E-028
  -17.160000000000000         -2.4685184732762896E-028
  -17.100000000000001         -2.8817289889108296E-028
  -17.040000000000003         -3.3625187315917603E-028
  -16.980000000000000         -3.9216232147383179E-028
  -16.920000000000002         -4.5714153142846003E-028
  -16.859999999999999         -5.3261463935713268E-028
  -16.800000000000001         -6.2022236859490078E-028
  -16.740000000000002         -7.2185376956575421E-028
  -16.680000000000000         -8.3968334950823183E-028
  -16.620000000000001         -9.7621453108107594E-028
  -16.560000000000002         -1.1343286378848239E-027
  -16.500000000000000         -1.3173428123451929E-027
  -16.440000000000001         -1.5290735930767028E-027
  -16.380000000000003         -1.7739116389375896E-027
  -16.320000000000000         -2.0569050627009031E-027
  -16.260000000000002         -2.3838519388501608E-027
  -16.200000000000003         -2.7614077351616568E-027
  -16.140000000000001         -3.1972022607672687E-027
  -16.080000000000002         -3.6999763566023372E-027
  -16.020000000000000         -4.2797330836634742E-027
  -15.960000000000001         -4.9479120481941123E-027
  -15.899999999999999         -5.7175923297004228E-027
  -15.840000000000003         -6.6037199437670634E-027
  -15.780000000000001         -7.6233729573859589E-027
  -15.719999999999999         -8.7960714635921648E-027
  -15.660000000000004         -1.0144122503056424E-026
  -15.600000000000001         -1.1693022552501828E-026
  -15.539999999999999         -1.3471906983968703E-026
  -15.480000000000004         -1.5514054370626352E-026
  -15.420000000000002         -1.7857447539016211E-026
  -15.359999999999999         -2.0545378715299161E-026