  -48.000000000000000          0.0000000000000000     
  -47.939999999999998          0.0000000000000000     
  -47.880000000000003          0.0000000000000000     
  -47.820000000000000          0.0000000000000000     
  -47.759999999999998          0.0000000000000000     
  -47.700000000000003          0.0000000000000000     
  -47.640000000000001          0.0000000000000000     
  -47.579999999999998          0.0000000000000000     
  -47.520000000000003          0.0000000000000000     
  -47.460000000000001          0.0000000000000000     
  -47.399999999999999          0.0000000000000000     
  -47.340000000000003          0.0000000000000000     
  -47.280000000000001          0.0000000000000000     
  -47.219999999999999          0.0000000000000000     
  -47.159999999999997          0.0000000000000000     
  -47.100000000000001          0.0000000000000000     
  -47.039999999999999          0.0000000000000000     
  -46.979999999999997          0.0000000000000000     
  -46.920000000000002          0.0000000000000000     
  -46.859999999999999          0.0000000000000000     
  -46.799999999999997          0.0000000000000000     
  -46.740000000000002          0.0000000000000000     
  -46.680000000000000          0.0000000000000000     
  -46.619999999999997          0.0000000000000000     
  -46.560000000000002          0.0000000000000000     
  -46.500000000000000          0.0000000000000000     
  -46.439999999999998          0.0000000000000000     
  -46.380000000000003          0.0000000000000000     
  -46.320000000000000          0.0000000000000000     
  -46.259999999999998          0.0000000000000000     
  -46.200000000000003          0.0000000000000000     
  -46.140000000000001          0.0000000000000000     
  -46.079999999999998          0.0000000000000000     
  -46.020000000000003          0.0000000000000000     
  -45.960000000000001          0.0000000000000000     
  -45.899999999999999          0.0000000000000000     
  -45.840000000000003          0.0000000000000000     
  -45.780000000000001          0.0000000000000000     
  -45.719999999999999          0.0000000000000000     
  -45.659999999999997          0.0000000000000000     
  -45.600000000000001          0.0000000000000000     
  -45.539999999999999          0.0000000000000000     
  -45.479999999999997          0.0000000000000000     
  -45.420000000000002          0.0000000000000000     
  -45.359999999999999          0.0000000000000000     
  -45.299999999999997          0.0000000000000000     
  -45.240000000000002          0.0000000000000000     
  -45.180000000000000          0.0000000000000000     
  -45.119999999999997          0.0000000000000000     
  -45.060000000000002          0.0000000000000000     
  -45.000000000000000          0.0000000000000000     
  -44.939999999999998          0.0000000000000000     
  -44.880000000000003          0.0000000000000000     
  -44.820000000000000          0.0000000000000000     
  -44.759999999999998          0.0000000000000000     
  -44.700000000000003          0.0000000000000000     
  -44.640000000000001          0.0000000000000000     
  -44.579999999999998          0.0000000000000000     
  -44.520000000000003          0.0000000000000000     
  -44.460000000000001          0.0000000000000000     
  -44.399999999999999          0.0000000000000000     
  -44.340000000000003          0.0000000000000000     
  -44.280000000000001          0.0000000000000000     
  -44.219999999999999          0.0000000000000000     
  -44.159999999999997          0.0000000000000000     
  -44.100000000000001          0.0000000000000000     
  -44.039999999999999          0.0000000000000000     
  -43.980000000000004          0.0000000000000000     
  -43.920000000000002          0.0000000000000000     
  -43.859999999999999          0.0000000000000000     
  -43.799999999999997          0.0000000000000000     
  -43.740000000000002          0.0000000000000000     
  -43.680000000000000          0.0000000000000000     
  -43.619999999999997          0.0000000000000000     
  -43.560000000000002          0.0000000000000000     
  -43.500000000000000          0.0000000000000000     
  -43.439999999999998          0.0000000000000000     
  -43.380000000000003          0.0000000000000000     
  -43.320000000000000          0.0000000000000000     
  -43.259999999999998          0.0000000000000000     
  -43.200000000000003          0.0000000000000000     
  -43.140000000000001          0.0000000000000000     
  -43.079999999999998          0.0000000000000000     
  -43.020000000000003          0.0000000000000000     
  -42.960000000000001          0.0000000000000000     
  -42.899999999999999          0.0000000000000000     
  -42.840000000000003          0.0000000000000000     
  -42.780000000000001          0.0000000000000000     
  -42.719999999999999          0.0000000000000000     
  -42.659999999999997          0.0000000000000000     
  -42.600000000000001          0.0000000000000000     
  -42.539999999999999          0.0000000000000000     
  -42.480000000000004          0.0000000000000000     
  -42.420000000000002          0.0000000000000000     
  -42.359999999999999          0.0000000000000000     
  -42.299999999999997          0.0000000000000000     
  -42.240000000000002          0.0000000000000000     
  -42.180000000000000          0.0000000000000000     
  -42.119999999999997          0.0000000000000000     
  -42.060000000000002          0.0000000000000000     
  -42.000000000000000          0.0000000000000000     
  -41.939999999999998          0.0000000000000000     
  -41.880000000000003          0.0000000000000000     
  -41.820000000000000          0.0000000000000000     
  -41.759999999999998          0.0000000000000000     
  -41.700000000000003          0.0000000000000000     
  -41.640000000000001          0.0000000000000000     
  -41.579999999999998          0.0000000000000000     
  -41.520000000000003          0.0000000000000000     
  -41.460000000000001          0.0000000000000000     
  -41.399999999999999          0.0000000000000000     
  -41.340000000000003          0.0000000000000000     
  -41.280000000000001          0.0000000000000000     
  -41.219999999999999          0.0000000000000000     
  -41.159999999999997          0.0000000000000000     
  -41.100000000000001          0.0000000000000000     
  -41.039999999999999          0.0000000000000000     
  -40.980000000000004          0.0000000000000000     
  -40.920000000000002          0.0000000000000000     
  -40.859999999999999          0.0000000000000000     
  -40.799999999999997          0.0000000000000000     
  -40.740000000000002          0.0000000000000000     
  -40.680000000000000          0.0000000000000000     
  -40.619999999999997          0.0000000000000000     
  -40.560000000000002          0.0000000000000000     
  -40.500000000000000          0.0000000000000000     
  -40.439999999999998          0.0000000000000000     
  -40.380000000000003          0.0000000000000000     
  -40.320000000000000          0.0000000000000000     
  -40.259999999999998          0.0000000000000000     
  -40.200000000000003          0.0000000000000000     
  -40.140000000000001          0.0000000000000000     
  -40.079999999999998          0.0000000000000000     
  -40.020000000000003          0.0000000000000000     
  -39.960000000000001          0.0000000000000000     
  -39.899999999999999          0.0000000000000000     
  -39.840000000000003          0.0000000000000000     
  -39.780000000000001          0.0000000000000000     
  -39.719999999999999          0.0000000000000000     
  -39.659999999999997          0.0000000000000000     
  -39.600000000000001          0.0000000000000000     
  -39.539999999999999          0.0000000000000000     
  -39.480000000000004          0.0000000000000000     
  -39.420000000000002          0.0000000000000000     
  -39.359999999999999          0.0000000000000000     
  -39.299999999999997          0.0000000000000000     
  -39.240000000000002          0.0000000000000000     
  -39.180000000000000          0.0000000000000000     
  -39.120000000000005          0.0000000000000000     
  -39.060000000000002          0.0000000000000000     
  -39.000000000000000          0.0000000000000000     
  -38.939999999999998          0.0000000000000000     
  -38.880000000000003          0.0000000000000000     
  -38.820000000000000          0.0000000000000000     
  -38.759999999999998          0.0000000000000000     
  -38.700000000000003          0.0000000000000000     
  -38.640000000000001          0.0000000000000000     
  -38.579999999999998          0.0000000000000000     
  -38.519999999999996          0.0000000000000000     
  -38.460000000000001          0.0000000000000000     
  -38.399999999999999          0.0000000000000000     
  -38.340000000000003          0.0000000000000000     
  -38.280000000000001          0.0000000000000000     
  -38.219999999999999          0.0000000000000000     
  -38.159999999999997          0.0000000000000000     
  -38.100000000000001          0.0000000000000000     
  -38.039999999999999          0.0000000000000000     
  -37.980000000000004          0.0000000000000000     
  -37.920000000000002          0.0000000000000000     
  -37.859999999999999          0.0000000000000000     
  -37.799999999999997          0.0000000000000000     
  -37.740000000000002          0.0000000000000000     
  -37.680000000000000          0.0000000000000000     
  -37.620000000000005          0.0000000000000000     
  -37.560000000000002          0.0000000000000000     
  -37.500000000000000          0.0000000000000000     
  -37.439999999999998          0.0000000000000000     
  -37.380000000000003          0.0000000000000000     
  -37.320000000000000          0.0000000000000000     
  -37.259999999999998          0.0000000000000000     
  -37.200000000000003          0.0000000000000000     
  -37.140000000000001          0.0000000000000000     
  -37.079999999999998          0.0000000000000000     
  -37.019999999999996          0.0000000000000000     
  -36.960000000000001          0.0000000000000000     
  -36.899999999999999          0.0000000000000000     
  -36.840000000000003          0.0000000000000000     
  -36.780000000000001          0.0000000000000000     
  -36.719999999999999          0.0000000000000000     
  -36.659999999999997          0.0000000000000000     
  -36.600000000000001          0.0000000000000000     
  -36.539999999999999          0.0000000000000000     
  -36.480000000000004          0.0000000000000000     
  -36.420000000000002          0.0000000000000000     
  -36.359999999999999          0.0000000000000000     
  -36.299999999999997          0.0000000000000000     
  -36.240000000000002          0.0000000000000000     
  -36.180000000000000          0.0000000000000000     
  -36.120000000000005          0.0000000000000000     
  -36.060000000000002          0.0000000000000000     
  -36.000000000000000          0.0000000000000000     
  -35.939999999999998          0.0000000000000000     
  -35.880000000000003          0.0000000000000000     
  -35.820000000000000          0.0000000000000000     
  -35.759999999999998          0.0000000000000000     
  -35.700000000000003          0.0000000000000000     
  -35.640000000000001          0.0000000000000000     
  -35.579999999999998          0.0000000000000000     
  -35.519999999999996          0.0000000000000000     
  -35.460000000000001          0.0000000000000000     
  -35.399999999999999          0.0000000000000000     
  -35.340000000000003          0.0000000000000000     
  -35.280000000000001          0.0000000000000000     
  -35.219999999999999          0.0000000000000000     
  -35.159999999999997          0.0000000000000000     
  -35.100000000000001          0.0000000000000000     
  -35.039999999999999          0.0000000000000000     
  -34.980000000000004          0.0000000000000000     
  -34.920000000000002          0.0000000000000000     
  -34.859999999999999          0.0000000000000000     
  -34.799999999999997          0.0000000000000000     
  -34.740000000000002          0.0000000000000000     
  -34.680000000000000          0.0000000000000000     
  -34.620000000000005          0.0000000000000000     
  -34.560000000000002          0.0000000000000000     
  -34.500000000000000          0.0000000000000000     
  -34.439999999999998          0.0000000000000000     
  -34.380000000000003          0.0000000000000000     
  -34.320000000000000          0.0000000000000000     
  -34.259999999999998          0.0000000000000000     
  -34.200000000000003          0.0000000000000000     
  -34.140000000000001          0.0000000000000000     
  -34.079999999999998          0.0000000000000000     
  -34.020000000000003          0.0000000000000000     
  -33.960000000000001          0.0000000000000000     
  -33.899999999999999          0.0000000000000000     
  -33.840000000000003          0.0000000000000000     
  -33.780000000000001          0.0000000000000000     
  -33.719999999999999          0.0000000000000000     
  -33.659999999999997          0.0000000000000000     
  -33.600000000000001          0.0000000000000000     
  -33.539999999999999          0.0000000000000000     
  -33.480000000000004          0.0000000000000000     
  -33.420000000000002          0.0000000000000000     
  -33.359999999999999          0.0000000000000000     
  -33.299999999999997          0.0000000000000000     
  -33.240000000000002          0.0000000000000000     
  -33.180000000000000          0.0000000000000000     
  -33.120000000000005          0.0000000000000000     
  -33.060000000000002          0.0000000000000000     
  -33.000000000000000          0.0000000000000000     
  -32.939999999999998          0.0000000000000000     
  -32.880000000000003          0.0000000000000000     
  -32.820000000000000          0.0000000000000000     
  -32.759999999999998          0.0000000000000000     
  -32.700000000000003          0.0000000000000000     
  -32.640000000000001          0.0000000000000000     
  -32.579999999999998          0.0000000000000000     
  -32.520000000000003          0.0000000000000000     
  -32.460000000000001          0.0000000000000000     
  -32.399999999999999          0.0000000000000000     
  -32.340000000000003          0.0000000000000000     
  -32.280000000000001          0.0000000000000000     
  -32.219999999999999          0.0000000000000000     
  -32.159999999999997          0.0000000000000000     
  -32.100000000000001          0.0000000000000000     
  -32.039999999999999          0.0000000000000000     
  -31.980000000000000          0.0000000000000000     
  -31.920000000000002          0.0000000000000000     
  -31.859999999999999          0.0000000000000000     
  -31.800000000000001          0.0000000000000000     
  -31.740000000000002          0.0000000000000000     
  -31.680000000000000          0.0000000000000000     
  -31.620000000000001          0.0000000000000000     
  -31.560000000000002          0.0000000000000000     
  -31.500000000000000          0.0000000000000000     
  -31.440000000000001          0.0000000000000000     
  -31.379999999999999          0.0000000000000000     
  -31.320000000000000          0.0000000000000000     
  -31.260000000000002          0.0000000000000000     
  -31.199999999999999          0.0000000000000000     
  -31.140000000000001          0.0000000000000000     
  -31.080000000000002          0.0000000000000000     
  -31.020000000000000          0.0000000000000000     
  -30.960000000000001          0.0000000000000000     
  -30.900000000000002          0.0000000000000000     
  -30.840000000000000          0.0000000000000000     
  -30.780000000000001          0.0000000000000000     
  -30.719999999999999          0.0000000000000000     
  -30.660000000000000          0.0000000000000000     
  -30.600000000000001          0.0000000000000000     
  -30.539999999999999          0.0000000000000000     
  -30.480000000000000          0.0000000000000000     
  -30.420000000000002          0.0000000000000000     
  -30.359999999999999          0.0000000000000000     
  -30.300000000000001          0.0000000000000000     
  -30.240000000000002          0.0000000000000000     
  -30.180000000000000          0.0000000000000000     
  -30.120000000000001          0.0000000000000000     
  -30.060000000000002          0.0000000000000000     
  -30.000000000000000          0.0000000000000000     
  -29.940000000000001          0.0000000000000000     
  -29.879999999999999          0.0000000000000000     
  -29.820000000000000          0.0000000000000000     
  -29.760000000000002          0.0000000000000000     
  -29.699999999999999          0.0000000000000000     
  -29.640000000000001          0.0000000000000000     
  -29.580000000000002          0.0000000000000000     
  -29.520000000000000          0.0000000000000000     
  -29.460000000000001          0.0000000000000000     
  -29.400000000000002          0.0000000000000000     
  -29.340000000000000          0.0000000000000000     
  -29.280000000000001          0.0000000000000000     
  -29.220000000000002          0.0000000000000000     
  -29.160000000000000          0.0000000000000000     
  -29.100000000000001          0.0000000000000000     
  -29.039999999999999          0.0000000000000000     
  -28.980000000000000          0.0000000000000000     
  -28.920000000000002          0.0000000000000000     
  -28.859999999999999          0.0000000000000000     
  -28.800000000000001          0.0000000000000000     
  -28.740000000000002          0.0000000000000000     
  -28.680000000000000          0.0000000000000000     
  -28.620000000000001          0.0000000000000000     
  -28.560000000000002          0.0000000000000000     
  -28.500000000000000          0.0000000000000000     
  -28.440000000000001          0.0000000000000000     
  -28.379999999999999          0.0000000000000000     
  -28.320000000000000          0.0000000000000000     
  -28.260000000000002          0.0000000000000000     
  -28.199999999999999          0.0000000000000000     
  -28.140000000000001          0.0000000000000000     
  -28.080000000000002          0.0000000000000000     
  -28.020000000000000          0.0000000000000000     
  -27.960000000000001          0.0000000000000000     
  -27.900000000000002          0.0000000000000000     
  -27.840000000000000          0.0000000000000000     
  -27.780000000000001          0.0000000000000000     
  -27.720000000000002          0.0000000000000000     
  -27.660000000000000          0.0000000000000000     
  -27.600000000000001          0.0000000000000000     
  -27.539999999999999          0.0000000000000000     
  -27.480000000000000          0.0000000000000000     
  -27.420000000000002          0.0000000000000000     
  -27.359999999999999          0.0000000000000000     
  -27.300000000000001          0.0000000000000000     
  -27.240000000000002          0.0000000000000000     
  -27.180000000000000          0.0000000000000000     
  -27.120000000000001          0.0000000000000000     
  -27.060000000000002          0.0000000000000000     
  -27.000000000000000          0.0000000000000000     
  -26.940000000000001          0.0000000000000000     
  -26.880000000000003          0.0000000000000000     
  -26.820000000000000          0.0000000000000000     
  -26.760000000000002          0.0000000000000000     
  -26.699999999999999          0.0000000000000000     
  -26.640000000000001          0.0000000000000000     
  -26.580000000000002          0.0000000000000000     
  -26.520000000000000          0.0000000000000000     
  -26.460000000000001          0.0000000000000000     
  -26.400000000000002          0.0000000000000000     
  -26.340000000000000          0.0000000000000000     
  -26.280000000000001          0.0000000000000000     
  -26.220000000000002          0.0000000000000000     
  -26.160000000000000          0.0000000000000000     
  -26.100000000000001          0.0000000000000000     
  -26.039999999999999          0.0000000000000000     
  -25.980000000000000          0.0000000000000000     
  -25.920000000000002          0.0000000000000000     
  -25.859999999999999          0.0000000000000000     
  -25.800000000000001         -4.2946015975381908E-040
  -25.740000000000002         -1.4098802302203114E-039
  -25.680000000000000         -3.0810753337094418E-039
  -25.620000000000001         -5.9869950914914687E-039
  -25.560000000000002         -1.0402422501298880E-038
  -25.500000000000000         -1.6633200721486352E-038
  -25.440000000000001         -2.3989167383120193E-038
  -25.380000000000003         -3.2630946479286998E-038
  -25.320000000000000         -4.1661705915416571E-038
  -25.260000000000002         -5.1122698242995516E-038
  -25.199999999999999         -5.8178012294316625E-038
  -25.140000000000001         -6.2217908864298678E-038
  -25.080000000000002         -6.0466496142660893E-038
  -25.020000000000000         -5.1763794604375179E-038
  -24.960000000000001         -3.3457320472900706E-038
  -24.900000000000002         -4.3544234507099872E-039
  -24.840000000000000          2.7994381759484346E-038
  -24.780000000000001          6.3924043436346540E-038
  -24.720000000000002          1.0067971474754737E-037
  -24.660000000000000          1.3913365458819923E-037
  -24.600000000000001          1.8135068139941408E-037
  -24.539999999999999          2.2439635743266567E-037
  -24.480000000000000          2.6460665106576638E-037
  -24.420000000000002          3.0085231634156888E-037
  -24.359999999999999          3.1533692895354651E-037
  -24.300000000000001          3.3264333453655253E-037
  -24.240000000000002          3.1408125899382739E-037
  -24.180000000000000          2.6744782652626004E-037
  -24.120000000000001          1.9232949313961109E-037
  -24.060000000000002          7.6718708440870178E-038
  -24.000000000000000         -5.4256534932289120E-038
  -23.940000000000001         -1.9990338554976499E-037
  -23.880000000000003         -3.5521131592957689E-037
  -23.820000000000000         -4.9919679009208445E-037
  -23.760000000000002         -6.3353687060492682E-037
  -23.699999999999999         -7.6756874802343082E-037
  -23.640000000000001         -8.6748848143105673E-037
  -23.580000000000002         -9.3244138351360499E-037
  -23.520000000000000         -9.6526582509003151E-037
  -23.460000000000001         -9.7110056708089495E-037
  -23.400000000000002         -1.0433023014772884E-036
  -23.340000000000000         -1.2066894838638603E-036
  -23.280000000000001         -1.4674693830942247E-036
  -23.220000000000002         -1.8506646504911740E-036
  -23.160000000000000         -2.3821212275291261E-036
  -23.100000000000001         -3.0587902110822011E-036
  -23.039999999999999         -3.9382152298408734E-036
  -22.980000000000000         -5.0517989043513684E-036
  -22.920000000000002         -6.4312299830042649E-036
  -22.859999999999999         -8.1385625313641977E-036
  -22.800000000000001         -1.0276835532979831E-035
  -22.740000000000002         -1.2924641078668218E-035
  -22.680000000000000         -1.6215364361930243E-035
  -22.620000000000001         -2.0308958375481714E-035
  -22.560000000000002         -2.5400039316701626E-035
  -22.500000000000000         -3.1831489734248979E-035
  -22.440000000000001         -3.9702327616444143E-035
  -22.380000000000003         -4.9282900764283260E-035
  -22.320000000000000         -6.0923918231001155E-035
  -22.260000000000002         -7.4989489251916424E-035
  -22.199999999999999         -9.1961074611817440E-035
  -22.140000000000001         -1.1236689631783145E-034
  -22.080000000000002         -1.3679834991234380E-034
  -22.020000000000000         -1.6608573983999395E-034
  -21.960000000000001         -2.0118109749483244E-034
  -21.900000000000002         -2.4331733969197490E-034
  -21.840000000000000         -2.9398698513461384E-034
  -21.780000000000001         -3.5503501113823556E-034
  -21.720000000000002         -4.2870498449163952E-034
  -21.660000000000000         -5.1770249282368627E-034
  -21.600000000000001         -6.2531927879082092E-034
  -21.540000000000003         -7.5552300365024385E-034
  -21.480000000000000         -9.1309187589685538E-034
  -21.420000000000002         -1.1037604667968377E-033
  -21.359999999999999         -1.3343971887715438E-033
  -21.300000000000001         -1.6131254374910643E-033
  -21.240000000000002         -1.9497809535949475E-033
  -21.180000000000000         -2.3560939395341332E-033
  -21.120000000000001         -2.8461463992466516E-033
  -21.060000000000002         -3.4368114563251612E-033
  -21.000000000000000         -4.1482605246149084E-033
  -20.940000000000001         -5.0046250058645579E-033
  -20.880000000000003         -6.0347339681354753E-033
  -20.820000000000000         -7.2730928819247681E-033
  -20.760000000000002         -8.7609645279424708E-033
  -20.699999999999999         -1.0547674592171809E-032
  -20.640000000000001         -1.2692152878280605E-032
  -20.580000000000002         -1.5264759902971808E-032
  -20.520000000000000         -1.8349478932863123E-032
  -20.460000000000001         -2.2046485325654065E-032
  -20.400000000000002         -2.6475216228423234E-032
  -20.340000000000000         -3.1777963508358325E-032
  -20.280000000000001         -3.8124125122705794E-032
  -20.220000000000002         -4.5715243829466110E-032
  -20.160000000000000         -5.4790892992140180E-032
  -20.100000000000001         -6.5635699522807617E-032
  -20.040000000000003         -7.8587630871202942E-032
  -19.980000000000000         -9.4047716992488186E-032
  -19.920000000000002         -1.1249145403132454E-031
  -19.859999999999999         -1.3448256985133597E-031
  -19.800000000000001         -1.6068895059399487E-031
  -19.740000000000002         -1.9190159635575771E-031
  -19.680000000000000         -2.2905710050847546E-031
  -19.620000000000001         -2.7326394309798448E-031
  -19.560000000000002         -3.2583323537277267E-031
  -19.500000000000000         -3.8831542161261524E-031
  -19.440000000000001         -4.6254297274592114E-031
  -19.380000000000003         -5.5067977228665045E-031
  -19.320000000000000         -6.5528010836804302E-031
  -19.260000000000002         -7.7935625920945639E-031
  -19.200000000000003         -9.2645793895300278E-031
  -19.140000000000001         -1.1007661891948193E-030
  -19.080000000000002         -1.3072000756539846E-030
  -19.020000000000000         -1.5515444841532160E-030
  -18.960000000000001         -1.8405983654490288E-030
  -18.900000000000002         -2.1823512631494450E-030
  -18.840000000000000         -2.5861856401986451E-030
  -18.780000000000001         -3.0631211049618148E-030
  -18.720000000000002         -3.6260953247171978E-030
  -18.660000000000000         -4.2902953963557207E-030
  -18.600000000000001         -5.0735417291151739E-030
  -18.540000000000003         -5.9967402278454362E-030
  -18.480000000000000         -7.0843971669155923E-030
  -18.420000000000002         -8.3652281358181020E-030
  -18.359999999999999         -9.8728356438439125E-030
  -18.300000000000001         -1.1646511794523455E-029
  -18.240000000000002         -1.3732153701349746E-029
  -18.180000000000000         -1.6183313310045288E-029
  -18.120000000000001         -1.9062406052259690E-029
  -18.060000000000002         -2.2442138041889208E-029
  -18.000000000000000         -2.6407128683851147E-029
  -17.940000000000001         -3.1055836534166490E-029
  -17.880000000000003         -3.6502780681406471E-029
  -17.820000000000000         -4.2881178557348713E-029
  -17.760000000000002         -5.0345977410477598E-029
  -17.700000000000003         -5.9077468942619497E-029
  -17.640000000000001         -6.9285391900390759E-029
  -17.580000000000002         -8.1213773403453896E-029
  -17.520000000000000         -9.5146436906489440E-029
  -17.460000000000001         -1.1141335025954407E-028
  -17.400000000000002         -1.3039782907550567E-028
  -17.340000000000000         -1.5254480052367106E-028
  -17.280000000000001         -1.7837001930133500E-028
  -17.220000000000002         -2.0847075999171490E-028
  -17.160000000000000         -2.4353785081681557E-028
  -17.100000000000001         -2.8436938451027133E-028
  -17.040000000000003         -3.3188648461100593E-028
  -16.980000000000000         -3.8715120494724791E-028
  -16.920000000000002         -4.5138727557696386E-028
  -16.859999999999999         -5.2600417225960657E-028
  -16.800000000000001         -6.1262519420741542E-028
  -16.740000000000002         -7.1311885033820414E-028
  -16.680000000000000         -8.2963633569169592E-028
  -16.620000000000001         -9.6465460111373324E-028
  -16.560000000000002         -1.1210246075688950E-027
  -16.500000000000000         -1.3020275832637679E-027
  -16.440000000000001         -1.5114391539476093E-027
  -16.380000000000003         -1.7536024798854678E-027
  -16.320000000000000         -2.0335106971537755E-027
  -16.260000000000002         -2.3569026294983578E-027
  -16.200000000000003         -2.7303690607671351E-027
  -16.140000000000001         -3.1614766537171994E-027
  -16.080000000000002         -3.6589026509102494E-027
  -16.020000000000000         -4.2325923314370238E-027
  -15.960000000000001         -4.8939374839757853E-027
  -15.899999999999999         -5.6559716883626451E-027
  -15.840000000000003         -6.5335933727256629E-027
  -15.780000000000001         -7.5438164565220505E-027
  -15.719999999999999         -8.7060614732255676E-027
  -15.660000000000004         -1.0042466094307092E-026
  -15.600000000000001         -1.1578246382079711E-026
  -15.539999999999999         -1.3342110057721227E-026
  -15.480000000000004         -1.5366722865943598E-026
  -15.420000000000002         -1.7689238153477765E-026
  -15.359999999999999         -2.0351908441173145E-026