  -48.000000000000000          0.0000000000000000     
  -47.939999999999998          0.0000000000000000     
  -47.880000000000003          0.0000000000000000     
  -47.820000000000000          0.0000000000000000     
  -47.759999999999998          0.0000000000000000     
  -47.700000000000003          0.0000000000000000     
  -47.640000000000001          0.0000000000000000     
  -47.579999999999998          0.0000000000000000     
  -47.520000000000003          0.0000000000000000     
  -47.460000000000001          0.0000000000000000     
  -47.399999999999999          0.0000000000000000     
  -47.340000000000003          0.0000000000000000     
  -47.280000000000001          0.0000000000000000     
  -47.219999999999999          0.0000000000000000     
  -47.159999999999997          0.0000000000000000     
  -47.100000000000001          0.0000000000000000     
  -47.039999999999999          0.0000000000000000     
  -46.979999999999997          0.0000000000000000     
  -46.920000000000002          0.0000000000000000     
  -46.859999999999999          0.0000000000000000     
  -46.799999999999997          0.0000000000000000     
  -46.740000000000002          0.0000000000000000     
  -46.680000000000000          0.0000000000000000     
  -46.619999999999997          0.0000000000000000     
  -46.560000000000002          0.0000000000000000     
  -46.500000000000000          0.0000000000000000     
  -46.439999999999998          0.0000000000000000     
  -46.380000000000003          0.0000000000000000     
  -46.320000000000000          0.0000000000000000     
  -46.259999999999998          0.0000000000000000     
  -46.200000000000003          0.0000000000000000     
  -46.140000000000001          0.0000000000000000     
  -46.079999999999998          0.0000000000000000     
  -46.020000000000003          0.0000000000000000     
  -45.960000000000001          0.0000000000000000     
  -45.899999999999999          0.0000000000000000     
  -45.840000000000003          0.0000000000000000     
  -45.780000000000001          0.0000000000000000     
  -45.719999999999999          0.0000000000000000     
  -45.659999999999997          0.0000000000000000     
  -45.600000000000001          0.0000000000000000     
  -45.539999999999999          0.0000000000000000     
  -45.479999999999997          0.0000000000000000     
  -45.420000000000002          0.0000000000000000     
  -45.359999999999999          0.0000000000000000     
  -45.299999999999997          0.0000000000000000     
  -45.240000000000002          0.0000000000000000     
  -45.180000000000000          0.0000000000000000     
  -45.119999999999997          0.0000000000000000     
  -45.060000000000002          0.0000000000000000     
  -45.000000000000000          0.0000000000000000     
  -44.939999999999998          0.0000000000000000     
  -44.880000000000003          0.0000000000000000     
  -44.820000000000000          0.0000000000000000     
  -44.759999999999998          0.0000000000000000     
  -44.700000000000003          0.0000000000000000     
  -44.640000000000001          0.0000000000000000     
  -44.579999999999998          0.0000000000000000     
  -44.520000000000003          0.0000000000000000     
  -44.460000000000001          0.0000000000000000     
  -44.399999999999999          0.0000000000000000     
  -44.340000000000003          0.0000000000000000     
  -44.280000000000001          0.0000000000000000     
  -44.219999999999999          0.0000000000000000     
  -44.159999999999997          0.0000000000000000     
  -44.100000000000001          0.0000000000000000     
  -44.039999999999999          0.0000000000000000     
  -43.980000000000004          0.0000000000000000     
  -43.920000000000002          0.0000000000000000     
  -43.859999999999999          0.0000000000000000     
  -43.799999999999997          0.0000000000000000     
  -43.740000000000002          0.0000000000000000     
  -43.680000000000000          0.0000000000000000     
  -43.619999999999997          0.0000000000000000     
  -43.560000000000002          0.0000000000000000     
  -43.500000000000000          0.0000000000000000     
  -43.439999999999998          0.0000000000000000     
  -43.380000000000003          0.0000000000000000     
  -43.320000000000000          0.0000000000000000     
  -43.259999999999998          0.0000000000000000     
  -43.200000000000003          0.0000000000000000     
  -43.140000000000001          0.0000000000000000     
  -43.079999999999998          0.0000000000000000     
  -43.020000000000003          0.0000000000000000     
  -42.960000000000001          0.0000000000000000     
  -42.899999999999999          0.0000000000000000     
  -42.840000000000003          0.0000000000000000     
  -42.780000000000001          0.0000000000000000     
  -42.719999999999999          0.0000000000000000     
  -42.659999999999997          0.0000000000000000     
  -42.600000000000001          0.0000000000000000     
  -42.539999999999999          0.0000000000000000     
  -42.480000000000004          0.0000000000000000     
  -42.420000000000002          0.0000000000000000     
  -42.359999999999999          0.0000000000000000     
  -42.299999999999997          0.0000000000000000     
  -42.240000000000002          0.0000000000000000     
  -42.180000000000000          0.0000000000000000     
  -42.119999999999997          0.0000000000000000     
  -42.060000000000002          0.0000000000000000     
  -42.000000000000000          0.0000000000000000     
  -41.939999999999998          0.0000000000000000     
  -41.880000000000003          0.0000000000000000     
  -41.820000000000000          0.0000000000000000     
  -41.759999999999998          0.0000000000000000     
  -41.700000000000003          0.0000000000000000     
  -41.640000000000001          0.0000000000000000     
  -41.579999999999998          0.0000000000000000     
  -41.520000000000003          0.0000000000000000     
  -41.460000000000001          0.0000000000000000     
  -41.399999999999999          0.0000000000000000     
  -41.340000000000003          0.0000000000000000     
  -41.280000000000001          0.0000000000000000     
  -41.219999999999999          0.0000000000000000     
  -41.159999999999997          0.0000000000000000     
  -41.100000000000001          0.0000000000000000     
  -41.039999999999999          0.0000000000000000     
  -40.980000000000004          0.0000000000000000     
  -40.920000000000002          0.0000000000000000     
  -40.859999999999999          0.0000000000000000     
  -40.799999999999997          0.0000000000000000     
  -40.740000000000002          0.0000000000000000     
  -40.680000000000000          0.0000000000000000     
  -40.619999999999997          0.0000000000000000     
  -40.560000000000002          0.0000000000000000     
  -40.500000000000000          0.0000000000000000     
  -40.439999999999998          0.0000000000000000     
  -40.380000000000003          0.0000000000000000     
  -40.320000000000000          0.0000000000000000     
  -40.259999999999998          0.0000000000000000     
  -40.200000000000003          0.0000000000000000     
  -40.140000000000001          0.0000000000000000     
  -40.079999999999998          0.0000000000000000     
  -40.020000000000003          0.0000000000000000     
  -39.960000000000001          0.0000000000000000     
  -39.899999999999999          0.0000000000000000     
  -39.840000000000003          0.0000000000000000     
  -39.780000000000001          0.0000000000000000     
  -39.719999999999999          0.0000000000000000     
  -39.659999999999997          0.0000000000000000     
  -39.600000000000001          0.0000000000000000     
  -39.539999999999999          0.0000000000000000     
  -39.480000000000004          0.0000000000000000     
  -39.420000000000002          0.0000000000000000     
  -39.359999999999999          0.0000000000000000     
  -39.299999999999997          0.0000000000000000     
  -39.240000000000002          0.0000000000000000     
  -39.180000000000000          0.0000000000000000     
  -39.120000000000005          0.0000000000000000     
  -39.060000000000002          0.0000000000000000     
  -39.000000000000000          0.0000000000000000     
  -38.939999999999998          0.0000000000000000     
  -38.880000000000003          0.0000000000000000     
  -38.820000000000000          0.0000000000000000     
  -38.759999999999998          0.0000000000000000     
  -38.700000000000003          0.0000000000000000     
  -38.640000000000001          0.0000000000000000     
  -38.579999999999998          0.0000000000000000     
  -38.519999999999996          0.0000000000000000     
  -38.460000000000001          0.0000000000000000     
  -38.399999999999999          0.0000000000000000     
  -38.340000000000003          0.0000000000000000     
  -38.280000000000001          0.0000000000000000     
  -38.219999999999999          0.0000000000000000     
  -38.159999999999997          0.0000000000000000     
  -38.100000000000001          0.0000000000000000     
  -38.039999999999999          0.0000000000000000     
  -37.980000000000004          0.0000000000000000     
  -37.920000000000002          0.0000000000000000     
  -37.859999999999999          0.0000000000000000     
  -37.799999999999997          0.0000000000000000     
  -37.740000000000002          0.0000000000000000     
  -37.680000000000000          0.0000000000000000     
  -37.620000000000005          0.0000000000000000     
  -37.560000000000002          0.0000000000000000     
  -37.500000000000000          0.0000000000000000     
  -37.439999999999998          0.0000000000000000     
  -37.380000000000003          0.0000000000000000     
  -37.320000000000000          0.0000000000000000     
  -37.259999999999998          0.0000000000000000     
  -37.200000000000003          0.0000000000000000     
  -37.140000000000001          0.0000000000000000     
  -37.079999999999998          0.0000000000000000     
  -37.019999999999996          0.0000000000000000     
  -36.960000000000001          0.0000000000000000     
  -36.899999999999999          0.0000000000000000     
  -36.840000000000003          0.0000000000000000     
  -36.780000000000001          0.0000000000000000     
  -36.719999999999999          0.0000000000000000     
  -36.659999999999997          0.0000000000000000     
  -36.600000000000001          0.0000000000000000     
  -36.539999999999999          0.0000000000000000     
  -36.480000000000004          0.0000000000000000     
  -36.420000000000002          0.0000000000000000     
  -36.359999999999999          0.0000000000000000     
  -36.299999999999997          0.0000000000000000     
  -36.240000000000002          0.0000000000000000     
  -36.180000000000000          0.0000000000000000     
  -36.120000000000005          0.0000000000000000     
  -36.060000000000002          0.0000000000000000     
  -36.000000000000000          0.0000000000000000     
  -35.939999999999998          0.0000000000000000     
  -35.880000000000003          0.0000000000000000     
  -35.820000000000000          0.0000000000000000     
  -35.759999999999998          0.0000000000000000     
  -35.700000000000003          0.0000000000000000     
  -35.640000000000001          0.0000000000000000     
  -35.579999999999998          0.0000000000000000     
  -35.519999999999996          0.0000000000000000     
  -35.460000000000001          0.0000000000000000     
  -35.399999999999999          0.0000000000000000     
  -35.340000000000003          0.0000000000000000     
  -35.280000000000001          0.0000000000000000     
  -35.219999999999999          0.0000000000000000     
  -35.159999999999997          0.0000000000000000     
  -35.100000000000001          0.0000000000000000     
  -35.039999999999999          0.0000000000000000     
  -34.980000000000004          0.0000000000000000     
  -34.920000000000002          0.0000000000000000     
  -34.859999999999999          0.0000000000000000     
  -34.799999999999997          0.0000000000000000     
  -34.740000000000002          0.0000000000000000     
  -34.680000000000000          0.0000000000000000     
  -34.620000000000005          0.0000000000000000     
  -34.560000000000002          0.0000000000000000     
  -34.500000000000000          0.0000000000000000     
  -34.439999999999998          0.0000000000000000     
  -34.380000000000003          0.0000000000000000     
  -34.320000000000000          0.0000000000000000     
  -34.259999999999998          0.0000000000000000     
  -34.200000000000003          0.0000000000000000     
  -34.140000000000001          0.0000000000000000     
  -34.079999999999998          0.0000000000000000     
  -34.020000000000003          0.0000000000000000     
  -33.960000000000001          0.0000000000000000     
  -33.899999999999999          0.0000000000000000     
  -33.840000000000003          0.0000000000000000     
  -33.780000000000001          0.0000000000000000     
  -33.719999999999999          0.0000000000000000     
  -33.659999999999997          0.0000000000000000     
  -33.600000000000001          0.0000000000000000     
  -33.539999999999999          0.0000000000000000     
  -33.480000000000004          0.0000000000000000     
  -33.420000000000002          0.0000000000000000     
  -33.359999999999999          0.0000000000000000     
  -33.299999999999997          0.0000000000000000     
  -33.240000000000002          0.0000000000000000     
  -33.180000000000000          0.0000000000000000     
  -33.120000000000005          0.0000000000000000     
  -33.060000000000002          0.0000000000000000     
  -33.000000000000000          0.0000000000000000     
  -32.939999999999998          0.0000000000000000     
  -32.880000000000003          0.0000000000000000     
  -32.820000000000000          0.0000000000000000     
  -32.759999999999998          0.0000000000000000     
  -32.700000000000003          0.0000000000000000     
  -32.640000000000001          0.0000000000000000     
  -32.579999999999998          0.0000000000000000     
  -32.520000000000003          0.0000000000000000     
  -32.460000000000001          0.0000000000000000     
  -32.399999999999999          0.0000000000000000     
  -32.340000000000003          0.0000000000000000     
  -32.280000000000001          0.0000000000000000     
  -32.219999999999999          0.0000000000000000     
  -32.159999999999997          0.0000000000000000     
  -32.100000000000001          0.0000000000000000     
  -32.039999999999999          0.0000000000000000     
  -31.980000000000000          0.0000000000000000     
  -31.920000000000002          0.0000000000000000     
  -31.859999999999999          0.0000000000000000     
  -31.800000000000001          0.0000000000000000     
  -31.740000000000002          0.0000000000000000     
  -31.680000000000000          0.0000000000000000     
  -31.620000000000001          0.0000000000000000     
  -31.560000000000002          0.0000000000000000     
  -31.500000000000000          0.0000000000000000     
  -31.440000000000001          0.0000000000000000     
  -31.379999999999999          0.0000000000000000     
  -31.320000000000000          0.0000000000000000     
  -31.260000000000002          0.0000000000000000     
  -31.199999999999999          0.0000000000000000     
  -31.140000000000001          0.0000000000000000     
  -31.080000000000002          0.0000000000000000     
  -31.020000000000000          0.0000000000000000     
  -30.960000000000001          0.0000000000000000     
  -30.900000000000002          0.0000000000000000     
  -30.840000000000000          0.0000000000000000     
  -30.780000000000001          0.0000000000000000     
  -30.719999999999999          0.0000000000000000     
  -30.660000000000000          0.0000000000000000     
  -30.600000000000001          0.0000000000000000     
  -30.539999999999999          0.0000000000000000     
  -30.480000000000000          0.0000000000000000     
  -30.420000000000002          0.0000000000000000     
  -30.359999999999999          0.0000000000000000     
  -30.300000000000001         -3.1559411715969534E-041
  -30.240000000000002         -1.0465969441813601E-040
  -30.180000000000000         -2.6721518964696846E-040
  -30.120000000000001         -5.4620583367818379E-040
  -30.060000000000002         -9.7272526363808408E-040
  -30.000000000000000         -1.4887663646955643E-039
  -29.940000000000001         -2.0150450275018869E-039
  -29.879999999999999         -2.5643327083996687E-039
  -29.820000000000000         -3.1591553713651099E-039
  -29.760000000000002         -3.7982245551262092E-039
  -29.699999999999999         -4.3060378819533072E-039
  -29.640000000000001         -4.5973092822020592E-039
  -29.580000000000002         -4.9315518778095499E-039
  -29.520000000000000         -4.9366738075564965E-039
  -29.460000000000001         -4.5948155819869651E-039
  -29.400000000000002         -3.9863411044508382E-039
  -29.340000000000000         -3.1299391350971139E-039
  -29.280000000000001         -2.1714357772540088E-039
  -29.220000000000002         -1.3012687951259407E-039
  -29.160000000000000         -7.5075196906459397E-040
  -29.100000000000001         -7.8829118713390803E-040
  -29.039999999999999         -1.6684316032171341E-039
  -28.980000000000000         -3.0576412416147681E-039
  -28.920000000000002         -5.2189745451855110E-039
  -28.859999999999999         -8.6251815120059974E-039
  -28.800000000000001         -1.2324029393885766E-038
  -28.740000000000002         -1.6982474372014280E-038
  -28.680000000000000         -2.2800094831109997E-038
  -28.620000000000001         -2.9464476685156723E-038
  -28.560000000000002         -3.6797243594912636E-038
  -28.500000000000000         -4.7610498083655876E-038
  -28.440000000000001         -6.0810151334990278E-038
  -28.379999999999999         -7.5157556175389204E-038
  -28.320000000000000         -9.1345989715991493E-038
  -28.260000000000002         -1.0865273384187974E-037
  -28.199999999999999         -1.2444981166267201E-037
  -28.140000000000001         -1.3828520690901849E-037
  -28.080000000000002         -1.5443800232388589E-037
  -28.020000000000000         -1.7526419973975349E-037
  -27.960000000000001         -2.1530742343076983E-037
  -27.900000000000002         -2.8300290506071486E-037
  -27.840000000000000         -3.8078626426370481E-037
  -27.780000000000001         -5.2799243329357278E-037
  -27.720000000000002         -7.3280964896907412E-037
  -27.660000000000000         -1.0022049359086481E-036
  -27.600000000000001         -1.3530194679556458E-036
  -27.539999999999999         -1.8034025221469012E-036
  -27.480000000000000         -2.3741621053391928E-036
  -27.420000000000002         -3.0936693122597381E-036
  -27.359999999999999         -4.0004079094742196E-036
  -27.300000000000001         -5.1262793607458445E-036
  -27.240000000000002         -6.5364961070088505E-036
  -27.180000000000000         -8.2740703889488886E-036
  -27.120000000000001         -1.0390740579838821E-035
  -27.060000000000002         -1.2974514052319976E-035
  -27.000000000000000         -1.6194935894503534E-035
  -26.940000000000001         -2.0206840851123726E-035
  -26.880000000000003         -2.5357526175148947E-035
  -26.820000000000000         -3.1942538728012709E-035
  -26.760000000000002         -4.0273170796747994E-035
  -26.699999999999999         -5.0779238590362946E-035
  -26.640000000000001         -6.4006590329299483E-035
  -26.580000000000002         -8.0687282748833849E-035
  -26.520000000000000         -1.0169301164880070E-034
  -26.460000000000001         -1.2806143971787352E-034
  -26.400000000000002         -1.6096141651246686E-034
  -26.340000000000000         -2.0198070368128563E-034
  -26.280000000000001         -2.5312806801721585E-034
  -26.220000000000002         -3.1686179777921223E-034
  -26.160000000000000         -3.9622051822441226E-034
  -26.100000000000001         -4.9495484396643153E-034
  -26.039999999999999         -6.1772508670425267E-034
  -25.980000000000000         -7.7024103590665641E-034
  -25.920000000000002         -9.5962092142598803E-034
  -25.859999999999999         -1.1946657175980626E-033
  -25.800000000000001         -1.4862678157916207E-033
  -25.740000000000002         -1.8478931057378034E-033
  -25.680000000000000         -2.2961144912176414E-033
  -25.620000000000001         -2.8514659291304397E-033
  -25.560000000000002         -3.5392712168217919E-033
  -25.500000000000000         -4.3907446693015971E-033
  -25.440000000000001         -5.4443715004113263E-033
  -25.380000000000003         -6.7474685012427249E-033
  -25.320000000000000         -8.3583678692116919E-033
  -25.260000000000002         -1.0348844870915938E-032
  -25.199999999999999         -1.2807146992237479E-032
  -25.140000000000001         -1.5841708921419577E-032
  -25.080000000000002         -1.9585716152310454E-032
  -25.020000000000000         -2.4202683245607748E-032
  -24.960000000000001         -2.9893226321731139E-032
  -24.900000000000002         -3.6903350252232421E-032
  -24.840000000000000         -4.5534579040134603E-032
  -24.780000000000001         -5.6156274136815384E-032
  -24.720000000000002         -6.9220657466475130E-032
  -24.660000000000000         -8.5281079184339521E-032
  -24.600000000000001         -1.0501435063705715E-031
  -24.539999999999999         -1.2924775688213923E-031
  -24.480000000000000         -1.5899203561875240E-031
  -24.420000000000002         -1.9548135794588281E-031
  -24.359999999999999         -2.4022191581280735E-031
  -24.300000000000001         -2.9505080011402339E-031
  -24.240000000000002         -3.6220777718078320E-031
  -24.180000000000000         -4.4442159341180577E-031
  -24.120000000000001         -5.4501525759893914E-031
  -24.060000000000002         -6.6803364204819164E-031
  -24.000000000000000         -8.1839692214544573E-031
  -23.940000000000001         -1.0020874550129395E-030
  -23.880000000000003         -1.2263747585897992E-030
  -23.820000000000000         -1.5000883108004235E-030
  -23.760000000000002         -1.8339458557753771E-030
  -23.699999999999999         -2.2409507361318372E-030
  -23.640000000000001         -2.7368697311512890E-030
  -23.580000000000002         -3.3408103024274275E-030
  -23.520000000000000         -4.0759177041652057E-030
  -23.460000000000001         -4.9702120439587943E-030
  -23.400000000000002         -6.0575935919592680E-030
  -23.340000000000000         -7.3790608597669710E-030
  -23.280000000000001         -8.9841614923392305E-030
  -23.220000000000002         -1.0932746231596088E-029
  -23.160000000000000         -1.3297077853318442E-029
  -23.100000000000001         -1.6164349256809110E-029
  -23.039999999999999         -1.9639718726142309E-029
  -22.980000000000000         -2.3849931670758408E-029
  -22.920000000000002         -2.8947688740107688E-029
  -22.859999999999999         -3.5116851796706602E-029
  -22.800000000000001         -4.2578678483581106E-029
  -22.740000000000002         -5.1599284905125672E-029
  -22.680000000000000         -6.2498545055059916E-029
  -22.620000000000001         -7.5660785498885053E-029
  -22.560000000000002         -9.1547502444668241E-029
  -22.500000000000000         -1.1071253036190050E-028
  -22.440000000000001         -1.3382020274460516E-028
  -22.380000000000003         -1.6166685483583910E-028
  -22.320000000000000         -1.9520666311030378E-028
  -22.260000000000002         -2.3558218666044034E-028
  -22.199999999999999         -2.8416106091449866E-028
  -22.140000000000001         -3.4257906477541086E-028
  -22.080000000000002         -4.1279165724999838E-028
  -22.020000000000000         -4.9713544906944039E-028
  -21.960000000000001         -5.9840097675989790E-028
  -21.900000000000002         -7.1991856257162974E-028
  -21.840000000000000         -8.6566089965537305E-028
  -21.780000000000001         -1.0403646138361859E-027
  -21.720000000000002         -1.2496737809467799E-027
  -21.660000000000000         -1.5003105329569109E-027
  -21.600000000000001         -1.8002763525580476E-027
  -21.540000000000003         -2.1590888425784876E-027
  -21.480000000000000         -2.5880657131216166E-027
  -21.420000000000002         -3.1006554873667346E-027
  -21.359999999999999         -3.7128292471417198E-027
  -21.300000000000001         -4.4435449422585176E-027
  -21.240000000000002         -5.3152906831221840E-027
  -21.180000000000000         -6.3547310093072387E-027
  -21.120000000000001         -7.5934608885138188E-027
  -21.060000000000002         -9.0689017402942263E-027
  -21.000000000000000         -1.0825345000163595E-026
  -20.940000000000001         -1.2915197146104057E-026
  -20.880000000000003         -1.5400417203551852E-026
  -20.820000000000000         -1.8354226828990972E-026
  -20.760000000000002         -2.1863099366221270E-026
  -20.699999999999999         -2.6029108614139938E-026
  -20.640000000000001         -3.0972684683953109E-026
  -20.580000000000002         -3.6835817839237689E-026
  -20.520000000000000         -4.3785846734416169E-026
  -20.460000000000001         -5.2019838964442685E-026
  -20.400000000000002         -6.1769813681353131E-026
  -20.340000000000000         -7.3308661757169350E-026
  -20.280000000000001         -8.6957285773039818E-026
  -20.220000000000002         -1.0309279083781221E-025
  -20.160000000000000         -1.2215801095120843E-025
  -20.100000000000001         -1.4467279340030273E-025
  -20.040000000000003         -1.7124694915749574E-025
  -19.980000000000000         -2.0259547678909183E-025
  -19.920000000000002         -2.3955616428620208E-025
  -19.859999999999999         -2.8311020773862597E-025
  -19.800000000000001         -3.3440617049905937E-025
  -19.740000000000002         -3.9478765472961167E-025
  -19.680000000000000         -4.6582561549802719E-025
  -19.620000000000001         -5.4935559768543650E-025
  -19.560000000000002         -6.4752183501009658E-025
  -19.500000000000000         -7.6282693687358371E-025
  -19.440000000000001         -8.9819028488066277E-025
  -19.380000000000003         -1.0570154189635244E-024
  -19.320000000000000         -1.2432685698259000E-024
  -19.260000000000002         -1.4615683044385474E-024
  -19.200000000000003         -1.7172901152224627E-024
  -19.140000000000001         -2.0166869862842485E-024
  -19.080000000000002         -2.3670276619630161E-024
  -19.020000000000000         -2.7767574545546228E-024
  -18.960000000000001         -3.2556817688112714E-024
  -18.900000000000002         -3.8151824151077036E-024
  -18.840000000000000         -4.4684612477379747E-024
  -18.780000000000001         -5.2308213095002121E-024
  -18.720000000000002         -6.1199932862013067E-024
  -18.660000000000000         -7.1565106018826909E-024
  -18.600000000000001         -8.3641368038712171E-024
  -18.540000000000003         -9.7703605828319697E-024
  -18.480000000000000         -1.1406958762745807E-023
  -18.420000000000002         -1.3310649069743453E-023
  -18.359999999999999         -1.5523828900187754E-023
  -18.300000000000001         -1.8095424777174846E-023
  -18.240000000000002         -2.1081862642605235E-023
  -18.180000000000000         -2.4548195444275995E-023
  -18.120000000000001         -2.8569347789246448E-023
  -18.060000000000002         -3.3231557727924186E-023
  -18.000000000000000         -3.8634069540734842E-023
  -17.940000000000001         -4.4891002825230341E-023
  -17.880000000000003         -5.2133519831539594E-023
  -17.820000000000000         -6.0512268435947728E-023
  -17.760000000000002         -7.0200214729125605E-023
  -17.700000000000003         -8.1395838035846318E-023
  -17.640000000000001         -9.4326774111583289E-023
  -17.580000000000002         -1.0925392801360023E-022
  -17.520000000000000         -1.2647624878949682E-022
  -17.460000000000001         -1.4633602330848714E-022
  -17.400000000000002         -1.6922488809012293E-022
  -17.340000000000000         -1.9559080596963473E-022
  -17.280000000000001         -2.2594573016012726E-022
  -17.220000000000002         -2.6087439362299608E-022
  -17.160000000000000         -3.0104440001656768E-022
  -17.100000000000001         -3.4721742183343369E-022
  -17.040000000000003         -4.0026187898560357E-022
  -16.980000000000000         -4.6116746724734097E-022
  -16.920000000000002         -5.3106152523281804E-022
  -16.859999999999999         -6.1122726658954331E-022
  -16.800000000000001         -7.0312469065599052E-022
  -16.740000000000002         -8.0841438553459303E-022
  -16.680000000000000         -9.2898376773186070E-022
  -16.620000000000001         -1.0669769212953716E-021
  -16.560000000000002         -1.2248286062984649E-021
  -16.500000000000000         -1.4053020271467884E-021
  -16.440000000000001         -1.6115307891921248E-021
  -16.380000000000003         -1.8470682345740072E-021
  -16.320000000000000         -2.1159396990951401E-021
  -16.260000000000002         -2.4227042345163246E-021
  -16.200000000000003         -2.7725222385585505E-021
  -16.140000000000001         -3.1712304862834681E-021
  -16.080000000000002         -3.6254307321171000E-021
  -16.020000000000000         -4.1425832720554292E-021
  -15.960000000000001         -4.7311156997772833E-021
  -15.899999999999999         -5.4005432796699771E-021
  -15.840000000000003         -6.1616025742993815E-021
  -15.780000000000001         -7.0264052368973368E-021
  -15.719999999999999         -8.0086066698197802E-021
  -15.660000000000004         -9.1235971101211962E-021
  -15.600000000000001         -1.0388714747913580E-020
  -15.539999999999999         -1.1823479114122952E-020
  -15.480000000000004         -1.3449866875779671E-020
  -15.420000000000002         -1.5292607455233404E-020
  -15.359999999999999         -1.7379510743970320E-020