  -48.000000000000000          0.0000000000000000     
  -47.939999999999998          0.0000000000000000     
  -47.880000000000003          0.0000000000000000     
  -47.820000000000000          0.0000000000000000     
  -47.759999999999998          0.0000000000000000     
  -47.700000000000003          0.0000000000000000     
  -47.640000000000001          0.0000000000000000     
  -47.579999999999998          0.0000000000000000     
  -47.520000000000003          0.0000000000000000     
  -47.460000000000001          0.0000000000000000     
  -47.399999999999999          0.0000000000000000     
  -47.340000000000003          0.0000000000000000     
  -47.280000000000001          0.0000000000000000     
  -47.219999999999999          0.0000000000000000     
  -47.159999999999997          0.0000000000000000     
  -47.100000000000001          0.0000000000000000     
  -47.039999999999999          0.0000000000000000     
  -46.979999999999997          0.0000000000000000     
  -46.920000000000002          0.0000000000000000     
  -46.859999999999999          0.0000000000000000     
  -46.799999999999997          0.0000000000000000     
  -46.740000000000002          0.0000000000000000     
  -46.680000000000000          0.0000000000000000     
  -46.619999999999997          0.0000000000000000     
  -46.560000000000002          0.0000000000000000     
  -46.500000000000000          0.0000000000000000     
  -46.439999999999998          0.0000000000000000     
  -46.380000000000003          0.0000000000000000     
  -46.320000000000000          0.0000000000000000     
  -46.259999999999998          0.0000000000000000     
  -46.200000000000003          0.0000000000000000     
  -46.140000000000001          0.0000000000000000     
  -46.079999999999998          0.0000000000000000     
  -46.020000000000003          0.0000000000000000     
  -45.960000000000001          0.0000000000000000     
  -45.899999999999999          0.0000000000000000     
  -45.840000000000003          0.0000000000000000     
  -45.780000000000001          0.0000000000000000     
  -45.719999999999999          0.0000000000000000     
  -45.659999999999997          0.0000000000000000     
  -45.600000000000001          0.0000000000000000     
  -45.539999999999999          0.0000000000000000     
  -45.479999999999997          0.0000000000000000     
  -45.420000000000002          0.0000000000000000     
  -45.359999999999999          0.0000000000000000     
  -45.299999999999997          0.0000000000000000     
  -45.240000000000002          0.0000000000000000     
  -45.180000000000000          0.0000000000000000     
  -45.119999999999997          0.0000000000000000     
  -45.060000000000002          0.0000000000000000     
  -45.000000000000000          0.0000000000000000     
  -44.939999999999998          0.0000000000000000     
  -44.880000000000003          0.0000000000000000     
  -44.820000000000000          0.0000000000000000     
  -44.759999999999998          0.0000000000000000     
  -44.700000000000003          0.0000000000000000     
  -44.640000000000001          0.0000000000000000     
  -44.579999999999998          0.0000000000000000     
  -44.520000000000003          0.0000000000000000     
  -44.460000000000001          0.0000000000000000     
  -44.399999999999999          0.0000000000000000     
  -44.340000000000003          0.0000000000000000     
  -44.280000000000001          0.0000000000000000     
  -44.219999999999999          0.0000000000000000     
  -44.159999999999997          0.0000000000000000     
  -44.100000000000001          0.0000000000000000     
  -44.039999999999999          0.0000000000000000     
  -43.980000000000004          0.0000000000000000     
  -43.920000000000002          0.0000000000000000     
  -43.859999999999999          0.0000000000000000     
  -43.799999999999997          0.0000000000000000     
  -43.740000000000002          0.0000000000000000     
  -43.680000000000000          0.0000000000000000     
  -43.619999999999997          0.0000000000000000     
  -43.560000000000002          0.0000000000000000     
  -43.500000000000000          0.0000000000000000     
  -43.439999999999998          0.0000000000000000     
  -43.380000000000003          0.0000000000000000     
  -43.320000000000000          0.0000000000000000     
  -43.259999999999998          0.0000000000000000     
  -43.200000000000003          0.0000000000000000     
  -43.140000000000001          0.0000000000000000     
  -43.079999999999998          0.0000000000000000     
  -43.020000000000003          0.0000000000000000     
  -42.960000000000001          0.0000000000000000     
  -42.899999999999999          0.0000000000000000     
  -42.840000000000003          0.0000000000000000     
  -42.780000000000001          0.0000000000000000     
  -42.719999999999999          0.0000000000000000     
  -42.659999999999997          0.0000000000000000     
  -42.600000000000001          0.0000000000000000     
  -42.539999999999999          0.0000000000000000     
  -42.480000000000004          0.0000000000000000     
  -42.420000000000002          0.0000000000000000     
  -42.359999999999999          0.0000000000000000     
  -42.299999999999997          0.0000000000000000     
  -42.240000000000002          0.0000000000000000     
  -42.180000000000000          0.0000000000000000     
  -42.119999999999997          0.0000000000000000     
  -42.060000000000002          0.0000000000000000     
  -42.000000000000000          0.0000000000000000     
  -41.939999999999998          0.0000000000000000     
  -41.880000000000003          0.0000000000000000     
  -41.820000000000000          0.0000000000000000     
  -41.759999999999998          0.0000000000000000     
  -41.700000000000003          0.0000000000000000     
  -41.640000000000001          0.0000000000000000     
  -41.579999999999998          0.0000000000000000     
  -41.520000000000003          0.0000000000000000     
  -41.460000000000001          0.0000000000000000     
  -41.399999999999999          0.0000000000000000     
  -41.340000000000003          0.0000000000000000     
  -41.280000000000001          0.0000000000000000     
  -41.219999999999999          0.0000000000000000     
  -41.159999999999997          0.0000000000000000     
  -41.100000000000001          0.0000000000000000     
  -41.039999999999999          0.0000000000000000     
  -40.980000000000004          0.0000000000000000     
  -40.920000000000002          0.0000000000000000     
  -40.859999999999999          0.0000000000000000     
  -40.799999999999997          0.0000000000000000     
  -40.740000000000002          0.0000000000000000     
  -40.680000000000000          0.0000000000000000     
  -40.619999999999997          0.0000000000000000     
  -40.560000000000002          0.0000000000000000     
  -40.500000000000000          0.0000000000000000     
  -40.439999999999998          0.0000000000000000     
  -40.380000000000003          0.0000000000000000     
  -40.320000000000000          0.0000000000000000     
  -40.259999999999998          0.0000000000000000     
  -40.200000000000003          0.0000000000000000     
  -40.140000000000001          0.0000000000000000     
  -40.079999999999998          0.0000000000000000     
  -40.020000000000003          0.0000000000000000     
  -39.960000000000001          0.0000000000000000     
  -39.899999999999999          0.0000000000000000     
  -39.840000000000003          0.0000000000000000     
  -39.780000000000001          0.0000000000000000     
  -39.719999999999999          0.0000000000000000     
  -39.659999999999997          0.0000000000000000     
  -39.600000000000001          0.0000000000000000     
  -39.539999999999999          0.0000000000000000     
  -39.480000000000004          0.0000000000000000     
  -39.420000000000002          0.0000000000000000     
  -39.359999999999999          0.0000000000000000     
  -39.299999999999997          0.0000000000000000     
  -39.240000000000002          0.0000000000000000     
  -39.180000000000000          0.0000000000000000     
  -39.120000000000005          0.0000000000000000     
  -39.060000000000002          0.0000000000000000     
  -39.000000000000000          0.0000000000000000     
  -38.939999999999998          0.0000000000000000     
  -38.880000000000003          0.0000000000000000     
  -38.820000000000000          0.0000000000000000     
  -38.759999999999998          0.0000000000000000     
  -38.700000000000003          0.0000000000000000     
  -38.640000000000001          0.0000000000000000     
  -38.579999999999998          0.0000000000000000     
  -38.519999999999996          0.0000000000000000     
  -38.460000000000001          0.0000000000000000     
  -38.399999999999999          0.0000000000000000     
  -38.340000000000003          0.0000000000000000     
  -38.280000000000001          0.0000000000000000     
  -38.219999999999999          0.0000000000000000     
  -38.159999999999997          0.0000000000000000     
  -38.100000000000001          0.0000000000000000     
  -38.039999999999999          0.0000000000000000     
  -37.980000000000004          0.0000000000000000     
  -37.920000000000002          0.0000000000000000     
  -37.859999999999999          0.0000000000000000     
  -37.799999999999997          0.0000000000000000     
  -37.740000000000002          0.0000000000000000     
  -37.680000000000000          0.0000000000000000     
  -37.620000000000005          0.0000000000000000     
  -37.560000000000002          0.0000000000000000     
  -37.500000000000000          0.0000000000000000     
  -37.439999999999998          0.0000000000000000     
  -37.380000000000003          0.0000000000000000     
  -37.320000000000000          0.0000000000000000     
  -37.259999999999998          0.0000000000000000     
  -37.200000000000003          0.0000000000000000     
  -37.140000000000001          0.0000000000000000     
  -37.079999999999998          0.0000000000000000     
  -37.019999999999996          0.0000000000000000     
  -36.960000000000001          0.0000000000000000     
  -36.899999999999999          0.0000000000000000     
  -36.840000000000003          0.0000000000000000     
  -36.780000000000001          0.0000000000000000     
  -36.719999999999999          0.0000000000000000     
  -36.659999999999997          0.0000000000000000     
  -36.600000000000001          0.0000000000000000     
  -36.539999999999999          0.0000000000000000     
  -36.480000000000004          0.0000000000000000     
  -36.420000000000002          0.0000000000000000     
  -36.359999999999999          0.0000000000000000     
  -36.299999999999997          0.0000000000000000     
  -36.240000000000002          0.0000000000000000     
  -36.180000000000000          0.0000000000000000     
  -36.120000000000005          0.0000000000000000     
  -36.060000000000002          0.0000000000000000     
  -36.000000000000000          0.0000000000000000     
  -35.939999999999998          0.0000000000000000     
  -35.880000000000003          0.0000000000000000     
  -35.820000000000000          0.0000000000000000     
  -35.759999999999998          0.0000000000000000     
  -35.700000000000003          0.0000000000000000     
  -35.640000000000001          0.0000000000000000     
  -35.579999999999998          0.0000000000000000     
  -35.519999999999996          0.0000000000000000     
  -35.460000000000001          0.0000000000000000     
  -35.399999999999999          0.0000000000000000     
  -35.340000000000003          0.0000000000000000     
  -35.280000000000001          0.0000000000000000     
  -35.219999999999999          0.0000000000000000     
  -35.159999999999997          0.0000000000000000     
  -35.100000000000001          0.0000000000000000     
  -35.039999999999999          0.0000000000000000     
  -34.980000000000004          0.0000000000000000     
  -34.920000000000002          0.0000000000000000     
  -34.859999999999999          0.0000000000000000     
  -34.799999999999997          0.0000000000000000     
  -34.740000000000002          0.0000000000000000     
  -34.680000000000000          0.0000000000000000     
  -34.620000000000005          0.0000000000000000     
  -34.560000000000002          0.0000000000000000     
  -34.500000000000000          0.0000000000000000     
  -34.439999999999998          0.0000000000000000     
  -34.380000000000003          0.0000000000000000     
  -34.320000000000000          0.0000000000000000     
  -34.259999999999998          0.0000000000000000     
  -34.200000000000003          0.0000000000000000     
  -34.140000000000001          0.0000000000000000     
  -34.079999999999998          0.0000000000000000     
  -34.020000000000003          0.0000000000000000     
  -33.960000000000001          0.0000000000000000     
  -33.899999999999999          0.0000000000000000     
  -33.840000000000003          0.0000000000000000     
  -33.780000000000001          0.0000000000000000     
  -33.719999999999999          0.0000000000000000     
  -33.659999999999997          0.0000000000000000     
  -33.600000000000001          0.0000000000000000     
  -33.539999999999999          0.0000000000000000     
  -33.480000000000004          0.0000000000000000     
  -33.420000000000002          0.0000000000000000     
  -33.359999999999999          0.0000000000000000     
  -33.299999999999997          0.0000000000000000     
  -33.240000000000002          0.0000000000000000     
  -33.180000000000000          0.0000000000000000     
  -33.120000000000005          0.0000000000000000     
  -33.060000000000002          0.0000000000000000     
  -33.000000000000000          0.0000000000000000     
  -32.939999999999998          0.0000000000000000     
  -32.880000000000003          0.0000000000000000     
  -32.820000000000000          0.0000000000000000     
  -32.759999999999998          0.0000000000000000     
  -32.700000000000003          0.0000000000000000     
  -32.640000000000001          0.0000000000000000     
  -32.579999999999998          0.0000000000000000     
  -32.520000000000003          0.0000000000000000     
  -32.460000000000001          0.0000000000000000     
  -32.399999999999999          0.0000000000000000     
  -32.340000000000003          0.0000000000000000     
  -32.280000000000001          0.0000000000000000     
  -32.219999999999999          0.0000000000000000     
  -32.159999999999997          0.0000000000000000     
  -32.100000000000001          0.0000000000000000     
  -32.039999999999999          0.0000000000000000     
  -31.980000000000000          0.0000000000000000     
  -31.920000000000002          0.0000000000000000     
  -31.859999999999999          0.0000000000000000     
  -31.800000000000001          0.0000000000000000     
  -31.740000000000002          0.0000000000000000     
  -31.680000000000000          0.0000000000000000     
  -31.620000000000001          0.0000000000000000     
  -31.560000000000002          0.0000000000000000     
  -31.500000000000000          0.0000000000000000     
  -31.440000000000001          0.0000000000000000     
  -31.379999999999999          0.0000000000000000     
  -31.320000000000000          0.0000000000000000     
  -31.260000000000002          0.0000000000000000     
  -31.199999999999999          0.0000000000000000     
  -31.140000000000001          0.0000000000000000     
  -31.080000000000002          0.0000000000000000     
  -31.020000000000000          0.0000000000000000     
  -30.960000000000001          0.0000000000000000     
  -30.900000000000002          0.0000000000000000     
  -30.840000000000000          0.0000000000000000     
  -30.780000000000001          0.0000000000000000     
  -30.719999999999999          0.0000000000000000     
  -30.660000000000000          0.0000000000000000     
  -30.600000000000001          0.0000000000000000     
  -30.539999999999999          0.0000000000000000     
  -30.480000000000000          0.0000000000000000     
  -30.420000000000002          0.0000000000000000     
  -30.359999999999999          0.0000000000000000     
  -30.300000000000001          0.0000000000000000     
  -30.240000000000002          0.0000000000000000     
  -30.180000000000000          0.0000000000000000     
  -30.120000000000001          0.0000000000000000     
  -30.060000000000002          0.0000000000000000     
  -30.000000000000000          0.0000000000000000     
  -29.940000000000001          0.0000000000000000     
  -29.879999999999999          0.0000000000000000     
  -29.820000000000000          0.0000000000000000     
  -29.760000000000002          0.0000000000000000     
  -29.699999999999999          0.0000000000000000     
  -29.640000000000001          0.0000000000000000     
  -29.580000000000002          0.0000000000000000     
  -29.520000000000000          0.0000000000000000     
  -29.460000000000001          0.0000000000000000     
  -29.400000000000002          0.0000000000000000     
  -29.340000000000000          0.0000000000000000     
  -29.280000000000001          0.0000000000000000     
  -29.220000000000002          0.0000000000000000     
  -29.160000000000000          0.0000000000000000     
  -29.100000000000001          0.0000000000000000     
  -29.039999999999999          0.0000000000000000     
  -28.980000000000000          0.0000000000000000     
  -28.920000000000002          0.0000000000000000     
  -28.859999999999999          0.0000000000000000     
  -28.800000000000001          0.0000000000000000     
  -28.740000000000002         -2.0984550729183767E-039
  -28.680000000000000         -6.9051065599535051E-039
  -28.620000000000001         -1.5155998129264855E-038
  -28.560000000000002         -2.7714992720295667E-038
  -28.500000000000000         -4.5608859380253333E-038
  -28.440000000000001         -7.0078350579218292E-038
  -28.379999999999999         -9.9037403908060793E-038
  -28.320000000000000         -1.3338447206490381E-037
  -28.260000000000002         -1.7420166256865817E-037
  -28.199999999999999         -2.1779453551124377E-037
  -28.140000000000001         -2.5241248654674213E-037
  -28.080000000000002         -2.6574218706439461E-037
  -28.020000000000000         -2.7162631508642423E-037
  -27.960000000000001         -2.4486138108193856E-037
  -27.900000000000002         -1.8168467609074769E-037
  -27.840000000000000         -7.6629271827138764E-038
  -27.780000000000001          3.5336484099091136E-038
  -27.720000000000002          1.5541714487347522E-037
  -27.660000000000000          2.7873073018064092E-037
  -27.600000000000001          4.0824073523985935E-037
  -27.539999999999999          5.3500537621164060E-037
  -27.480000000000000          6.5068242388626609E-037
  -27.420000000000002          7.5755832690345881E-037
  -27.359999999999999          8.1973430422038681E-037
  -27.300000000000001          8.1150214056780657E-037
  -27.240000000000002          7.4457072821571900E-037
  -27.180000000000000          6.1480750649514014E-037
  -27.120000000000001          4.6099634828616903E-037
  -27.060000000000002          2.8120675814580510E-037
  -27.000000000000000          7.0904217431370114E-038
  -26.940000000000001         -1.7652490043950136E-037
  -26.880000000000003         -4.6458582003613716E-037
  -26.820000000000000         -7.7369339249659333E-037
  -26.760000000000002         -1.1658747103354753E-036
  -26.699999999999999         -1.4883596547057594E-036
  -26.640000000000001         -1.7367291380979852E-036
  -26.580000000000002         -1.8960629271222039E-036
  -26.520000000000000         -2.0365922107753204E-036
  -26.460000000000001         -2.1671288666212090E-036
  -26.400000000000002         -2.2928177916428894E-036
  -26.340000000000000         -2.4196097936799083E-036
  -26.280000000000001         -2.5449910011203442E-036
  -26.220000000000002         -2.6139142168534833E-036
  -26.160000000000000         -2.8084022117122695E-036
  -26.100000000000001         -3.1399605926040371E-036
  -26.039999999999999         -3.6378108647585158E-036
  -25.980000000000000         -4.3367880730595983E-036
  -25.920000000000002         -5.2789380709908479E-036
  -25.859999999999999         -6.4871081989181024E-036
  -25.800000000000001         -8.0788019600831455E-036
  -25.740000000000002         -1.0156648939914862E-035
  -25.680000000000000         -1.2905635078015987E-035
  -25.620000000000001         -1.6462738797606069E-035
  -25.560000000000002         -2.1012708989300055E-035
  -25.500000000000000         -2.6655771933527966E-035
  -25.440000000000001         -3.3593005253379834E-035
  -25.380000000000003         -4.2076861662949180E-035
  -25.320000000000000         -5.2405515380148946E-035
  -25.260000000000002         -6.4896867752460949E-035
  -25.199999999999999         -7.9976032325209566E-035
  -25.140000000000001         -9.8159855275683908E-035
  -25.080000000000002         -1.2008294872373906E-034
  -25.020000000000000         -1.4653089421579485E-034
  -24.960000000000001         -1.7845364300892136E-034
  -24.900000000000002         -2.1701415040396043E-034
  -24.840000000000000         -2.6362246748557187E-034
  -24.780000000000001         -3.1999356832285313E-034
  -24.720000000000002         -3.8817628274957542E-034
  -24.660000000000000         -4.7063335539341175E-034
  -24.600000000000001         -5.7032871674800906E-034
  -24.539999999999999         -6.9078006847951198E-034
  -24.480000000000000         -8.3618119514416473E-034
  -24.420000000000002         -1.0115189278759990E-033
  -24.359999999999999         -1.2226988248293378E-033
  -24.300000000000001         -1.4767092372102930E-033
  -24.240000000000002         -1.7817951053813064E-033
  -24.180000000000000         -2.1476776325947880E-033
  -24.120000000000001         -2.5857963046526403E-033
  -24.060000000000002         -3.1096133051285771E-033
  -24.000000000000000         -3.7348797732885231E-033
  -23.940000000000001         -4.4800382213808155E-033
  -23.880000000000003         -5.3666809357521463E-033
  -23.820000000000000         -6.4200400088837054E-033
  -23.760000000000002         -7.6695193296604851E-033
  -23.699999999999999         -9.1492621115157235E-033
  -23.640000000000001         -1.0898841360036409E-032
  -23.580000000000002         -1.2964133856083925E-032
  -23.520000000000000         -1.5397875126111672E-032
  -23.460000000000001         -1.8260436143777008E-032
  -23.400000000000002         -2.1621167372453578E-032
  -23.340000000000000         -2.5558404495717371E-032
  -23.280000000000001         -3.0160545728555373E-032
  -23.220000000000002         -3.5526622167605250E-032
  -23.160000000000000         -4.1766192700238568E-032
  -23.100000000000001         -4.8999250584942613E-032
  -23.039999999999999         -5.7355819838081120E-032
  -22.980000000000000         -6.6974688028192697E-032
  -22.920000000000002         -7.8001919318765151E-032
  -22.859999999999999         -9.0587134686541933E-032
  -22.800000000000001         -1.0487806822043632E-031
  -22.740000000000002         -1.2101814128693791E-031
  -22.680000000000000         -1.3913260862223483E-031
  -22.620000000000001         -1.5931962888400364E-031
  -22.560000000000002         -1.8162765344089844E-031
  -22.500000000000000         -2.0603323486911395E-031
  -22.440000000000001         -2.3241226067138896E-031
  -22.380000000000003         -2.6048740359544428E-031
  -22.320000000000000         -2.8978859767792911E-031
  -22.260000000000002         -3.1957080135696855E-031
  -22.199999999999999         -3.4871205741488582E-031
  -22.140000000000001         -3.7561768128083334E-031
  -22.080000000000002         -3.9805655082016699E-031
  -22.020000000000000         -4.1298377414510475E-031
  -21.960000000000001         -4.1625501861566202E-031
  -21.900000000000002         -4.0238041317702237E-031
  -21.840000000000000         -3.6409368342552028E-031
  -21.780000000000001         -2.9198292140428262E-031
  -21.720000000000002         -1.7379588011730979E-031
  -21.660000000000000          6.2721882030747658E-033
  -21.600000000000001          2.6829898549951740E-031
  -21.540000000000003          6.3786241487855125E-031
  -21.480000000000000          1.1473620815401679E-030
  -21.420000000000002          1.8378224734709069E-030
  -21.359999999999999          2.7606159343619775E-030
  -21.300000000000001          3.9804584906889476E-030
  -21.240000000000002          5.5783859064739573E-030
  -21.180000000000000          7.6558578593492625E-030
  -21.120000000000001          1.0339489883514054E-029
  -21.060000000000002          1.3786951660885585E-029
  -21.000000000000000          1.8194157332537124E-029
  -20.940000000000001          2.3804291333360890E-029
  -20.880000000000003          3.0917563108343014E-029
  -20.820000000000000          3.9904710577674645E-029
  -20.760000000000002          5.1221045175535704E-029
  -20.699999999999999          6.5424480832087226E-029
  -20.640000000000001          8.3200111066082775E-029
  -20.580000000000002          1.0538530100704199E-028
  -20.520000000000000          1.3300288243887273E-028
  -20.460000000000001          1.6729823773451589E-028
  -20.400000000000002          2.0979097141602918E-028
  -20.340000000000000          2.6232788991372658E-028
  -20.280000000000001          3.2716017326384168E-028
  -20.220000000000002          4.0701572052580106E-028
  -20.160000000000000          5.0520972007636944E-028
  -20.100000000000001          6.2576785628320263E-028
  -20.040000000000003          7.7355877139181561E-028
  -19.980000000000000          9.5448678124695801E-028
  -19.920000000000002          1.1756816074392276E-027
  -19.859999999999999          1.4457650861472302E-027
  -19.800000000000001          1.7751393622941094E-027
  -19.740000000000002          2.1763176619304696E-027
  -19.680000000000000          2.6643416146965196E-027
  -19.620000000000001          3.2572518263234885E-027
  -19.560000000000002          3.9767294263103029E-027
  -19.500000000000000          4.8487114099167467E-027
  -19.440000000000001          5.9042933804177234E-027
  -19.380000000000003          7.1807039130282893E-027
  -19.320000000000000          8.7222502938836918E-027
  -19.260000000000002          1.0582065855369673E-026
  -19.200000000000003          1.2823451703490747E-026
  -19.140000000000001          1.5522044507716632E-026
  -19.080000000000002          1.8768024608392958E-026
  -19.020000000000000          2.2668983126666540E-026
  -18.960000000000001          2.7353117655429798E-026
  -18.900000000000002          3.2973213580263293E-026
  -18.840000000000000          3.9711069551353636E-026
  -18.780000000000001          4.7783016455550498E-026
  -18.720000000000002          5.7445654937588911E-026
  -18.660000000000000          6.9003526062100949E-026
  -18.600000000000001          8.2816871501075140E-026
  -18.540000000000003          9.9312058225917092E-026
  -18.480000000000000          1.1899281342635513E-025
  -18.420000000000002          1.4245285640783891E-025
  -18.359999999999999          1.7039228059537126E-025
  -18.300000000000001          2.0363570385098371E-025
  -18.240000000000002          2.4315426364324705E-025
  -18.180000000000000          2.9009120200321622E-025
  -18.120000000000001          3.4579300918495338E-025
  -18.060000000000002          4.1184922027044802E-025
  -18.000000000000000          4.9013384701633904E-025
  -17.940000000000001          5.8285154497017366E-025
  -17.880000000000003          6.9260321564888425E-025
  -17.820000000000000          8.2245060580027119E-025
  -17.760000000000002          9.7599681286692651E-025
  -17.700000000000003          1.1574760629474869E-024
  -17.640000000000001          1.3718491273153319E-024
  -17.580000000000002          1.6249300946095349E-024
  -17.520000000000000          1.9235161146488620E-024
  -17.460000000000001          2.2755291542339272E-024
  -17.400000000000002          2.6902096928245421E-024
  -17.340000000000000          3.1783201224994620E-024
  -17.280000000000001          3.7523845475266231E-024
  -17.220000000000002          4.4269873047094104E-024
  -17.160000000000000          5.2191124140252235E-024
  -17.100000000000001          6.1485288194183748E-024
  -17.040000000000003          7.2383198794955975E-024
  -16.980000000000000          8.5153865735098744E-024
  -16.920000000000002          1.0011163085848906E-023
  -16.859999999999999          1.1762294001983761E-023
  -16.800000000000001          1.3811538222948359E-023
  -16.740000000000002          1.6208725425576221E-023
  -16.680000000000000          1.9011902868754708E-023
  -16.620000000000001          2.2288520435210646E-023
  -16.560000000000002          2.6116786681001879E-023
  -16.500000000000000          3.0587542111411427E-023
  -16.440000000000001          3.5805567650078640E-023
  -16.380000000000003          4.1892483209104150E-023
  -16.320000000000000          4.8988459013514970E-023
  -16.260000000000002          5.7255498452140542E-023
  -16.200000000000003          6.6880694129539291E-023
  -16.140000000000001          7.8080155868567263E-023
  -16.080000000000002          9.1103217280054080E-023
  -16.020000000000000          1.0623845188846177E-022
  -15.960000000000001          1.2381913871195279E-022
  -15.899999999999999          1.4423125403743065E-022
  -15.840000000000003          1.6792118691168383E-022
  -15.780000000000001          1.9540487368450896E-022
  -15.719999999999999          2.2727967608176848E-022
  -15.660000000000004          2.6423635437725278E-022
  -15.600000000000001          3.0707331449553903E-022
  -15.539999999999999          3.5671180873977510E-022
  -15.480000000000004          4.1421674773625401E-022
  -15.420000000000002          4.8081577962446244E-022
  -15.359999999999999          5.5792242813976381E-022