  -48.000000000000000          0.0000000000000000     
  -47.939999999999998          0.0000000000000000     
  -47.880000000000003          0.0000000000000000     
  -47.820000000000000          0.0000000000000000     
  -47.759999999999998          0.0000000000000000     
  -47.700000000000003          0.0000000000000000     
  -47.640000000000001          0.0000000000000000     
  -47.579999999999998          0.0000000000000000     
  -47.520000000000003          0.0000000000000000     
  -47.460000000000001          0.0000000000000000     
  -47.399999999999999          0.0000000000000000     
  -47.340000000000003          0.0000000000000000     
  -47.280000000000001          0.0000000000000000     
  -47.219999999999999          0.0000000000000000     
  -47.159999999999997          0.0000000000000000     
  -47.100000000000001          0.0000000000000000     
  -47.039999999999999          0.0000000000000000     
  -46.979999999999997          0.0000000000000000     
  -46.920000000000002          0.0000000000000000     
  -46.859999999999999          0.0000000000000000     
  -46.799999999999997          0.0000000000000000     
  -46.740000000000002          0.0000000000000000     
  -46.680000000000000          0.0000000000000000     
  -46.619999999999997          0.0000000000000000     
  -46.560000000000002          0.0000000000000000     
  -46.500000000000000          0.0000000000000000     
  -46.439999999999998          0.0000000000000000     
  -46.380000000000003          0.0000000000000000     
  -46.320000000000000          0.0000000000000000     
  -46.259999999999998          0.0000000000000000     
  -46.200000000000003          0.0000000000000000     
  -46.140000000000001          0.0000000000000000     
  -46.079999999999998          0.0000000000000000     
  -46.020000000000003          0.0000000000000000     
  -45.960000000000001          0.0000000000000000     
  -45.899999999999999          0.0000000000000000     
  -45.840000000000003          0.0000000000000000     
  -45.780000000000001          0.0000000000000000     
  -45.719999999999999          0.0000000000000000     
  -45.659999999999997          0.0000000000000000     
  -45.600000000000001          0.0000000000000000     
  -45.539999999999999          0.0000000000000000     
  -45.479999999999997          0.0000000000000000     
  -45.420000000000002          0.0000000000000000     
  -45.359999999999999          0.0000000000000000     
  -45.299999999999997          0.0000000000000000     
  -45.240000000000002          0.0000000000000000     
  -45.180000000000000          0.0000000000000000     
  -45.119999999999997          0.0000000000000000     
  -45.060000000000002          0.0000000000000000     
  -45.000000000000000          0.0000000000000000     
  -44.939999999999998          0.0000000000000000     
  -44.880000000000003          0.0000000000000000     
  -44.820000000000000          0.0000000000000000     
  -44.759999999999998          0.0000000000000000     
  -44.700000000000003          0.0000000000000000     
  -44.640000000000001          0.0000000000000000     
  -44.579999999999998          0.0000000000000000     
  -44.520000000000003          0.0000000000000000     
  -44.460000000000001          0.0000000000000000     
  -44.399999999999999          0.0000000000000000     
  -44.340000000000003          0.0000000000000000     
  -44.280000000000001          0.0000000000000000     
  -44.219999999999999          0.0000000000000000     
  -44.159999999999997          0.0000000000000000     
  -44.100000000000001          0.0000000000000000     
  -44.039999999999999          0.0000000000000000     
  -43.980000000000004          0.0000000000000000     
  -43.920000000000002          0.0000000000000000     
  -43.859999999999999          0.0000000000000000     
  -43.799999999999997          0.0000000000000000     
  -43.740000000000002          0.0000000000000000     
  -43.680000000000000          0.0000000000000000     
  -43.619999999999997          0.0000000000000000     
  -43.560000000000002          0.0000000000000000     
  -43.500000000000000          0.0000000000000000     
  -43.439999999999998          0.0000000000000000     
  -43.380000000000003          0.0000000000000000     
  -43.320000000000000          0.0000000000000000     
  -43.259999999999998          0.0000000000000000     
  -43.200000000000003          0.0000000000000000     
  -43.140000000000001          0.0000000000000000     
  -43.079999999999998          0.0000000000000000     
  -43.020000000000003          0.0000000000000000     
  -42.960000000000001          0.0000000000000000     
  -42.899999999999999          0.0000000000000000     
  -42.840000000000003          0.0000000000000000     
  -42.780000000000001          0.0000000000000000     
  -42.719999999999999          0.0000000000000000     
  -42.659999999999997          0.0000000000000000     
  -42.600000000000001          0.0000000000000000     
  -42.539999999999999          0.0000000000000000     
  -42.480000000000004          0.0000000000000000     
  -42.420000000000002          0.0000000000000000     
  -42.359999999999999          0.0000000000000000     
  -42.299999999999997          0.0000000000000000     
  -42.240000000000002          0.0000000000000000     
  -42.180000000000000          0.0000000000000000     
  -42.119999999999997          0.0000000000000000     
  -42.060000000000002          0.0000000000000000     
  -42.000000000000000          0.0000000000000000     
  -41.939999999999998          0.0000000000000000     
  -41.880000000000003          0.0000000000000000     
  -41.820000000000000          0.0000000000000000     
  -41.759999999999998          0.0000000000000000     
  -41.700000000000003          0.0000000000000000     
  -41.640000000000001          0.0000000000000000     
  -41.579999999999998          0.0000000000000000     
  -41.520000000000003          0.0000000000000000     
  -41.460000000000001          0.0000000000000000     
  -41.399999999999999          0.0000000000000000     
  -41.340000000000003          0.0000000000000000     
  -41.280000000000001          0.0000000000000000     
  -41.219999999999999          0.0000000000000000     
  -41.159999999999997          0.0000000000000000     
  -41.100000000000001          0.0000000000000000     
  -41.039999999999999          0.0000000000000000     
  -40.980000000000004          0.0000000000000000     
  -40.920000000000002          0.0000000000000000     
  -40.859999999999999          0.0000000000000000     
  -40.799999999999997          0.0000000000000000     
  -40.740000000000002          0.0000000000000000     
  -40.680000000000000          0.0000000000000000     
  -40.619999999999997          0.0000000000000000     
  -40.560000000000002          0.0000000000000000     
  -40.500000000000000          0.0000000000000000     
  -40.439999999999998          0.0000000000000000     
  -40.380000000000003          0.0000000000000000     
  -40.320000000000000          0.0000000000000000     
  -40.259999999999998          0.0000000000000000     
  -40.200000000000003          0.0000000000000000     
  -40.140000000000001          0.0000000000000000     
  -40.079999999999998          0.0000000000000000     
  -40.020000000000003          0.0000000000000000     
  -39.960000000000001          0.0000000000000000     
  -39.899999999999999          0.0000000000000000     
  -39.840000000000003          0.0000000000000000     
  -39.780000000000001          0.0000000000000000     
  -39.719999999999999          0.0000000000000000     
  -39.659999999999997          0.0000000000000000     
  -39.600000000000001          0.0000000000000000     
  -39.539999999999999          0.0000000000000000     
  -39.480000000000004          0.0000000000000000     
  -39.420000000000002          0.0000000000000000     
  -39.359999999999999          0.0000000000000000     
  -39.299999999999997          0.0000000000000000     
  -39.240000000000002          0.0000000000000000     
  -39.180000000000000          0.0000000000000000     
  -39.120000000000005          0.0000000000000000     
  -39.060000000000002          0.0000000000000000     
  -39.000000000000000          0.0000000000000000     
  -38.939999999999998          0.0000000000000000     
  -38.880000000000003          0.0000000000000000     
  -38.820000000000000          0.0000000000000000     
  -38.759999999999998          0.0000000000000000     
  -38.700000000000003          0.0000000000000000     
  -38.640000000000001          0.0000000000000000     
  -38.579999999999998          0.0000000000000000     
  -38.519999999999996          0.0000000000000000     
  -38.460000000000001          0.0000000000000000     
  -38.399999999999999          0.0000000000000000     
  -38.340000000000003          0.0000000000000000     
  -38.280000000000001          0.0000000000000000     
  -38.219999999999999          0.0000000000000000     
  -38.159999999999997          0.0000000000000000     
  -38.100000000000001          0.0000000000000000     
  -38.039999999999999          0.0000000000000000     
  -37.980000000000004          0.0000000000000000     
  -37.920000000000002          0.0000000000000000     
  -37.859999999999999          0.0000000000000000     
  -37.799999999999997          0.0000000000000000     
  -37.740000000000002          0.0000000000000000     
  -37.680000000000000          0.0000000000000000     
  -37.620000000000005          0.0000000000000000     
  -37.560000000000002          0.0000000000000000     
  -37.500000000000000          0.0000000000000000     
  -37.439999999999998          0.0000000000000000     
  -37.380000000000003          0.0000000000000000     
  -37.320000000000000          0.0000000000000000     
  -37.259999999999998          0.0000000000000000     
  -37.200000000000003          0.0000000000000000     
  -37.140000000000001          0.0000000000000000     
  -37.079999999999998          0.0000000000000000     
  -37.019999999999996          0.0000000000000000     
  -36.960000000000001          0.0000000000000000     
  -36.899999999999999          0.0000000000000000     
  -36.840000000000003          0.0000000000000000     
  -36.780000000000001          0.0000000000000000     
  -36.719999999999999          0.0000000000000000     
  -36.659999999999997          0.0000000000000000     
  -36.600000000000001          0.0000000000000000     
  -36.539999999999999          0.0000000000000000     
  -36.480000000000004          0.0000000000000000     
  -36.420000000000002          0.0000000000000000     
  -36.359999999999999          0.0000000000000000     
  -36.299999999999997          0.0000000000000000     
  -36.240000000000002          0.0000000000000000     
  -36.180000000000000          0.0000000000000000     
  -36.120000000000005          0.0000000000000000     
  -36.060000000000002          0.0000000000000000     
  -36.000000000000000          0.0000000000000000     
  -35.939999999999998          0.0000000000000000     
  -35.880000000000003          0.0000000000000000     
  -35.820000000000000          0.0000000000000000     
  -35.759999999999998          0.0000000000000000     
  -35.700000000000003          0.0000000000000000     
  -35.640000000000001          0.0000000000000000     
  -35.579999999999998          0.0000000000000000     
  -35.519999999999996          0.0000000000000000     
  -35.460000000000001          0.0000000000000000     
  -35.399999999999999          0.0000000000000000     
  -35.340000000000003          0.0000000000000000     
  -35.280000000000001          0.0000000000000000     
  -35.219999999999999          0.0000000000000000     
  -35.159999999999997          0.0000000000000000     
  -35.100000000000001          0.0000000000000000     
  -35.039999999999999          0.0000000000000000     
  -34.980000000000004          0.0000000000000000     
  -34.920000000000002          0.0000000000000000     
  -34.859999999999999          0.0000000000000000     
  -34.799999999999997          0.0000000000000000     
  -34.740000000000002          0.0000000000000000     
  -34.680000000000000          0.0000000000000000     
  -34.620000000000005          0.0000000000000000     
  -34.560000000000002          0.0000000000000000     
  -34.500000000000000          0.0000000000000000     
  -34.439999999999998          0.0000000000000000     
  -34.380000000000003          0.0000000000000000     
  -34.320000000000000          0.0000000000000000     
  -34.259999999999998          0.0000000000000000     
  -34.200000000000003          0.0000000000000000     
  -34.140000000000001          0.0000000000000000     
  -34.079999999999998          0.0000000000000000     
  -34.020000000000003          0.0000000000000000     
  -33.960000000000001          0.0000000000000000     
  -33.899999999999999          0.0000000000000000     
  -33.840000000000003          0.0000000000000000     
  -33.780000000000001          0.0000000000000000     
  -33.719999999999999          0.0000000000000000     
  -33.659999999999997          0.0000000000000000     
  -33.600000000000001          0.0000000000000000     
  -33.539999999999999          0.0000000000000000     
  -33.480000000000004          0.0000000000000000     
  -33.420000000000002          0.0000000000000000     
  -33.359999999999999          0.0000000000000000     
  -33.299999999999997          0.0000000000000000     
  -33.240000000000002          0.0000000000000000     
  -33.180000000000000          0.0000000000000000     
  -33.120000000000005          0.0000000000000000     
  -33.060000000000002          0.0000000000000000     
  -33.000000000000000          0.0000000000000000     
  -32.939999999999998          0.0000000000000000     
  -32.880000000000003          0.0000000000000000     
  -32.820000000000000          0.0000000000000000     
  -32.759999999999998          0.0000000000000000     
  -32.700000000000003          0.0000000000000000     
  -32.640000000000001          0.0000000000000000     
  -32.579999999999998          0.0000000000000000     
  -32.520000000000003          0.0000000000000000     
  -32.460000000000001          0.0000000000000000     
  -32.399999999999999          0.0000000000000000     
  -32.340000000000003          0.0000000000000000     
  -32.280000000000001          0.0000000000000000     
  -32.219999999999999          0.0000000000000000     
  -32.159999999999997          0.0000000000000000     
  -32.100000000000001          0.0000000000000000     
  -32.039999999999999          0.0000000000000000     
  -31.980000000000000          0.0000000000000000     
  -31.920000000000002          0.0000000000000000     
  -31.859999999999999          0.0000000000000000     
  -31.800000000000001          0.0000000000000000     
  -31.740000000000002          0.0000000000000000     
  -31.680000000000000          0.0000000000000000     
  -31.620000000000001          0.0000000000000000     
  -31.560000000000002          0.0000000000000000     
  -31.500000000000000          0.0000000000000000     
  -31.440000000000001          0.0000000000000000     
  -31.379999999999999          0.0000000000000000     
  -31.320000000000000          0.0000000000000000     
  -31.260000000000002          0.0000000000000000     
  -31.199999999999999          0.0000000000000000     
  -31.140000000000001          0.0000000000000000     
  -31.080000000000002          0.0000000000000000     
  -31.020000000000000          0.0000000000000000     
  -30.960000000000001          0.0000000000000000     
  -30.900000000000002          0.0000000000000000     
  -30.840000000000000          0.0000000000000000     
  -30.780000000000001          0.0000000000000000     
  -30.719999999999999          0.0000000000000000     
  -30.660000000000000          0.0000000000000000     
  -30.600000000000001          0.0000000000000000     
  -30.539999999999999          0.0000000000000000     
  -30.480000000000000          0.0000000000000000     
  -30.420000000000002          0.0000000000000000     
  -30.359999999999999          0.0000000000000000     
  -30.300000000000001         -3.6112243554100204E-041
  -30.240000000000002         -1.1847352365581507E-040
  -30.180000000000000         -2.9335033095653330E-040
  -30.120000000000001         -5.8841108236547390E-040
  -30.060000000000002         -1.0361214806579874E-039
  -30.000000000000000         -1.5781061773294762E-039
  -29.940000000000001         -2.1405668295308364E-039
  -29.879999999999999         -2.7282620670613816E-039
  -29.820000000000000         -3.3493914482594626E-039
  -29.760000000000002         -3.9319447651322841E-039
  -29.699999999999999         -4.4727114818303752E-039
  -29.640000000000001         -4.7920752534180866E-039
  -29.580000000000002         -5.1570370179417991E-039
  -29.520000000000000         -5.1728171049201927E-039
  -29.460000000000001         -4.8248304553101049E-039
  -29.400000000000002         -4.1531187938816949E-039
  -29.340000000000000         -3.1911082335977428E-039
  -29.280000000000001         -2.1033468468108477E-039
  -29.220000000000002         -1.1025937715994686E-039
  -29.160000000000000         -4.4383826153235356E-040
  -29.100000000000001         -4.1809906233469409E-040
  -29.039999999999999         -1.1591619382328347E-039
  -28.980000000000000         -2.9700526091700760E-039
  -28.920000000000002         -5.6505587341176889E-039
  -28.859999999999999         -9.6537279336829343E-039
  -28.800000000000001         -1.4090857091593679E-038
  -28.740000000000002         -1.9467211795200776E-038
  -28.680000000000000         -2.6984134571589236E-038
  -28.620000000000001         -3.5254372612035645E-038
  -28.560000000000002         -4.4341311993412089E-038
  -28.500000000000000         -5.5218262804972372E-038
  -28.440000000000001         -6.6920582267892636E-038
  -28.379999999999999         -7.9933336666536876E-038
  -28.320000000000000         -9.5367639368963540E-038
  -28.260000000000002         -1.1253533338490237E-037
  -28.199999999999999         -1.3473498439304522E-037
  -28.140000000000001         -1.5565489854459290E-037
  -28.080000000000002         -1.7955472412504190E-037
  -28.020000000000000         -2.1135246404314201E-037
  -27.960000000000001         -2.5980881083193490E-037
  -27.900000000000002         -3.2590088719305843E-037
  -27.840000000000000         -4.2247615738417433E-037
  -27.780000000000001         -5.7017221471020284E-037
  -27.720000000000002         -7.7493215333210825E-037
  -27.660000000000000         -1.0488229027391008E-036
  -27.600000000000001         -1.4080213974884513E-036
  -27.539999999999999         -1.8712547745197885E-036
  -27.480000000000000         -2.4603727704041916E-036
  -27.420000000000002         -3.2083938091414312E-036
  -27.359999999999999         -4.1479777470749207E-036
  -27.300000000000001         -5.3314030780361298E-036
  -27.240000000000002         -6.7782421374059756E-036
  -27.180000000000000         -8.5693369969142928E-036
  -27.120000000000001         -1.0757868793012658E-035
  -27.060000000000002         -1.3433108957549505E-035
  -27.000000000000000         -1.6772684190908323E-035
  -26.940000000000001         -2.1053806717407814E-035
  -26.880000000000003         -2.6513006301569588E-035
  -26.820000000000000         -3.3458887540353778E-035
  -26.760000000000002         -4.2220238064198435E-035
  -26.699999999999999         -5.3235706142950654E-035
  -26.640000000000001         -6.7071321645009919E-035
  -26.580000000000002         -8.4484725241091734E-035
  -26.520000000000000         -1.0636430422592177E-034
  -26.460000000000001         -1.3367466392356550E-034
  -26.400000000000002         -1.6774501188591407E-034
  -26.340000000000000         -2.1022110273370975E-034
  -26.280000000000001         -2.6318482456570574E-034
  -26.220000000000002         -3.2918010421335263E-034
  -26.160000000000000         -4.1143637197929376E-034
  -26.100000000000001         -5.1375379392779898E-034
  -26.039999999999999         -6.4094290111044330E-034
  -25.980000000000000         -7.9891017226273643E-034
  -25.920000000000002         -9.9502394012819034E-034
  -25.859999999999999         -1.2383696660854223E-033
  -25.800000000000001         -1.5402020231691497E-033
  -25.740000000000002         -1.9143766204446275E-033
  -25.680000000000000         -2.3780657618042802E-033
  -25.620000000000001         -2.9524625663465915E-033
  -25.560000000000002         -3.6637118761132055E-033
  -25.500000000000000         -4.5440499079360139E-033
  -25.440000000000001         -5.6331946650198897E-033
  -25.380000000000003         -6.9799747017608849E-033
  -25.320000000000000         -8.6445655341652348E-033
  -25.260000000000002         -1.0700997879537467E-032
  -25.199999999999999         -1.3240273777643953E-032
  -25.140000000000001         -1.6374192007344813E-032
  -25.080000000000002         -2.0240047129133840E-032
  -25.020000000000000         -2.5006351012421943E-032
  -24.960000000000001         -3.0879813744040403E-032
  -24.900000000000002         -3.8113882873075436E-032
  -24.840000000000000         -4.7019112816729452E-032
  -24.780000000000001         -5.7975861059754548E-032
  -24.720000000000002         -7.1449717078695706E-032
  -24.660000000000000         -8.8010234086663152E-032
  -24.600000000000001         -1.0835390115414774E-031
  -24.539999999999999         -1.3333184276530473E-031
  -24.480000000000000         -1.6398375789379288E-031
  -24.420000000000002         -2.0157884966663230E-031
  -24.359999999999999         -2.4766575336983487E-031
  -24.300000000000001         -3.0413297170450483E-031
  -24.240000000000002         -3.7328236666963191E-031
  -24.180000000000000         -4.5791777443279843E-031
  -24.120000000000001         -5.6145316042346224E-031
  -24.060000000000002         -6.8804290711346185E-031
  -24.000000000000000         -8.4273931152550857E-031
  -23.940000000000001         -1.0316838311601504E-030
  -23.880000000000003         -1.2623379545706470E-030
  -23.820000000000000         -1.5437622726060052E-030
  -23.760000000000002         -1.8869531564355196E-030
  -23.699999999999999         -2.3052479587027123E-030
  -23.640000000000001         -2.8148163364626146E-030
  -23.580000000000002         -3.4352485827030998E-030
  -23.520000000000000         -4.1902695058377764E-030
  -23.460000000000001         -5.1085930346944021E-030
  -23.400000000000002         -6.2249559937724109E-030
  -23.340000000000000         -7.5813543025347516E-030
  -23.280000000000001         -9.2285326128477076E-030
  -23.220000000000002         -1.1227779461972420E-029
  -23.160000000000000         -1.3653069719602078E-029
  -23.100000000000001         -1.6593643830787345E-029
  -23.039999999999999         -2.0157110892902096E-029
  -22.980000000000000         -2.4473148651548134E-029
  -22.920000000000002         -2.9697935305823590E-029
  -22.859999999999999         -3.6019472042361932E-029
  -22.800000000000001         -4.3663960364378034E-029
  -22.740000000000002         -5.2903373144505581E-029
  -22.680000000000000         -6.4064593531884869E-029
  -22.620000000000001         -7.7540256872562990E-029
  -22.560000000000002         -9.3801678091296710E-029
  -22.500000000000000         -1.1341437801519550E-028
  -22.440000000000001         -1.3705655669533419E-028
  -22.380000000000003         -1.6554108343143613E-028
  -22.320000000000000         -1.9984167618150122E-028
  -22.260000000000002         -2.4112406738510631E-028
  -22.199999999999999         -2.9078313862303933E-028
  -22.140000000000001         -3.5048695681310997E-028
  -22.080000000000002         -4.2222942711059880E-028
  -22.020000000000000         -5.0839249363389543E-028
  -21.960000000000001         -6.1181977362813516E-028
  -21.900000000000002         -7.3590505982582241E-028
  -21.840000000000000         -8.8469583859902581E-028
  -21.780000000000001         -1.0630163834343125E-027
  -21.720000000000002         -1.2766139308437804E-027
  -21.660000000000000         -1.5323317257694993E-027
  -21.600000000000001         -1.8383126800058110E-027
  -21.540000000000003         -2.2042409733611476E-027
  -21.480000000000000         -2.6416277648202907E-027
  -21.420000000000002         -3.1641483303145266E-027
  -21.359999999999999         -3.7880392111818215E-027
  -21.300000000000001         -4.5325688808597741E-027
  -21.240000000000002         -5.4205906639290297E-027
  -21.180000000000000         -6.4791962506399844E-027
  -21.120000000000001         -7.7404835244693132E-027
  -21.060000000000002         -9.2424623982045725E-027
  -21.000000000000000         -1.1030120469198053E-026
  -20.940000000000001         -1.3156665717583348E-026
  -20.880000000000003         -1.5684995041825159E-026
  -20.820000000000000         -1.8689426645940021E-026
  -20.760000000000002         -2.2257710866378523E-026
  -20.699999999999999         -2.6493397925109162E-026
  -20.640000000000001         -3.1518608569857805E-026
  -20.580000000000002         -3.7477304938910460E-026
  -20.520000000000000         -4.4539097119804869E-026
  -20.460000000000001         -5.2903684367190001E-026
  -20.400000000000002         -6.2806083820833765E-026
  -20.340000000000000         -7.4522718710425760E-026
  -20.280000000000001         -8.8378572496540890E-026
  -20.220000000000002         -1.0475545439319469E-025
  -20.160000000000000         -1.2410172036160868E-025
  -20.100000000000001         -1.4694359336433132E-025
  -20.040000000000003         -1.7389827277415178E-025
  -19.980000000000000         -2.0568931029834680E-025
  -19.920000000000002         -2.4316436926794308E-025
  -19.859999999999999         -2.8731599466073776E-025
  -19.800000000000001         -3.3930561737191018E-025
  -19.740000000000002         -4.0049156735098838E-025
  -19.680000000000000         -4.7246157985919008E-025
  -19.620000000000001         -5.5707058779733099E-025
  -19.560000000000002         -6.5648448396251977E-025
  -19.500000000000000         -7.7323099084514572E-025
  -19.440000000000001         -9.1025824325107159E-025
  -19.380000000000003         -1.0710026924866623E-024
  -19.320000000000000         -1.2594687068804377E-024
  -19.260000000000002         -1.4803185220967129E-024
  -19.200000000000003         -1.7389781774002314E-024
  -19.140000000000001         -2.0417587305395671E-024
  -19.080000000000002         -2.3959961958102707E-024
  -19.020000000000000         -2.8102137070510255E-024
  -18.960000000000001         -3.2943057649916613E-024
  -18.900000000000002         -3.8597547835443252E-024
  -18.840000000000000         -4.5198757281883396E-024
  -18.780000000000001         -5.2901017556619113E-024
  -18.720000000000002         -6.1883110464255128E-024
  -18.660000000000000         -7.2351985397119473E-024
  -18.600000000000001         -8.4547144387910121E-024
  -18.540000000000003         -9.8745567251234932E-024
  -18.480000000000000         -1.1526735860757758E-023
  -18.420000000000002         -1.3448232246984152E-023
  -18.359999999999999         -1.5681747671835558E-023
  -18.300000000000001         -1.8276554209291410E-023
  -18.240000000000002         -2.1289479437847689E-023
  -18.180000000000000         -2.4786028206476333E-023
  -18.120000000000001         -2.8841670350189256E-023
  -18.060000000000002         -3.3543292238175745E-023
  -18.000000000000000         -3.8990874075724942E-023
  -17.940000000000001         -4.5299403556669824E-023
  -17.880000000000003         -5.2601047308595810E-023
  -17.820000000000000         -6.1047653851731252E-023
  -17.760000000000002         -7.0813538619068708E-023
  -17.700000000000003         -8.2098727436449563E-023
  -17.640000000000001         -9.5132641950306937E-023
  -17.580000000000002         -1.1017824189082387E-022
  -17.520000000000000         -1.2753675658061858E-022
  -17.460000000000001         -1.4755309648871081E-022
  -17.400000000000002         -1.7062179524329037E-022
  -17.340000000000000         -1.9719412760117773E-022
  -17.280000000000001         -2.2778593995732826E-022
  -17.220000000000002         -2.6298647971869702E-022
  -17.160000000000000         -3.0346860616472288E-022
  -17.100000000000001         -3.5000041872235526E-022
  -17.040000000000003         -4.0345791192540194E-022
  -16.980000000000000         -4.6484004204904774E-022
  -16.920000000000002         -5.3528516937774268E-022
  -16.859999999999999         -6.1608998108365126E-022
  -16.800000000000001         -7.0873081722389332E-022
  -16.740000000000002         -8.1488722344281828E-022
  -16.680000000000000         -9.3646957379229525E-022
  -16.620000000000001         -1.0756493518600556E-021
  -16.560000000000002         -1.2348933229072012E-021
  -16.500000000000000         -1.4170026313823425E-021
  -16.440000000000001         -1.6251557934208367E-021
  -16.380000000000003         -1.8629588467356919E-021
  -16.320000000000000         -2.1345010109590472E-021
  -16.260000000000002         -2.4444167273908277E-021
  -16.200000000000003         -2.7979565749157348E-021
  -16.140000000000001         -3.2010669430169376E-021
  -16.080000000000002         -3.6604789819648509E-021
  -16.020000000000000         -4.1838106168179197E-021
  -15.960000000000001         -4.7796759771596140E-021
  -15.899999999999999         -5.4578167774767887E-021
  -15.840000000000003         -6.2292380999404020E-021
  -15.780000000000001         -7.1063751795363152E-021
  -15.719999999999999         -8.1032700079816065E-021
  -15.660000000000004         -9.2357725654138946E-021
  -15.600000000000001         -1.0521774602627726E-020
  -15.539999999999999         -1.1981462540788235E-020
  -15.480000000000004         -1.3637612133987700E-020
  -15.420000000000002         -1.5515907620847921E-020
  -15.359999999999999         -1.7645312068569885E-020