  -48.000000000000000          0.0000000000000000     
  -47.939999999999998          0.0000000000000000     
  -47.880000000000003          0.0000000000000000     
  -47.820000000000000          0.0000000000000000     
  -47.759999999999998          0.0000000000000000     
  -47.700000000000003          0.0000000000000000     
  -47.640000000000001          0.0000000000000000     
  -47.579999999999998          0.0000000000000000     
  -47.520000000000003          0.0000000000000000     
  -47.460000000000001          0.0000000000000000     
  -47.399999999999999          0.0000000000000000     
  -47.340000000000003          0.0000000000000000     
  -47.280000000000001          0.0000000000000000     
  -47.219999999999999          0.0000000000000000     
  -47.159999999999997          0.0000000000000000     
  -47.100000000000001          0.0000000000000000     
  -47.039999999999999          0.0000000000000000     
  -46.979999999999997          0.0000000000000000     
  -46.920000000000002          0.0000000000000000     
  -46.859999999999999          0.0000000000000000     
  -46.799999999999997          0.0000000000000000     
  -46.740000000000002          0.0000000000000000     
  -46.680000000000000          0.0000000000000000     
  -46.619999999999997          0.0000000000000000     
  -46.560000000000002          0.0000000000000000     
  -46.500000000000000          0.0000000000000000     
  -46.439999999999998          0.0000000000000000     
  -46.380000000000003          0.0000000000000000     
  -46.320000000000000          0.0000000000000000     
  -46.259999999999998          0.0000000000000000     
  -46.200000000000003          0.0000000000000000     
  -46.140000000000001          0.0000000000000000     
  -46.079999999999998          0.0000000000000000     
  -46.020000000000003          0.0000000000000000     
  -45.960000000000001          0.0000000000000000     
  -45.899999999999999          0.0000000000000000     
  -45.840000000000003          0.0000000000000000     
  -45.780000000000001          0.0000000000000000     
  -45.719999999999999          0.0000000000000000     
  -45.659999999999997          0.0000000000000000     
  -45.600000000000001          0.0000000000000000     
  -45.539999999999999          0.0000000000000000     
  -45.479999999999997          0.0000000000000000     
  -45.420000000000002          0.0000000000000000     
  -45.359999999999999          0.0000000000000000     
  -45.299999999999997          0.0000000000000000     
  -45.240000000000002          0.0000000000000000     
  -45.180000000000000          0.0000000000000000     
  -45.119999999999997          0.0000000000000000     
  -45.060000000000002          0.0000000000000000     
  -45.000000000000000          0.0000000000000000     
  -44.939999999999998          0.0000000000000000     
  -44.880000000000003          0.0000000000000000     
  -44.820000000000000          0.0000000000000000     
  -44.759999999999998          0.0000000000000000     
  -44.700000000000003          0.0000000000000000     
  -44.640000000000001          0.0000000000000000     
  -44.579999999999998          0.0000000000000000     
  -44.520000000000003          0.0000000000000000     
  -44.460000000000001          0.0000000000000000     
  -44.399999999999999          0.0000000000000000     
  -44.340000000000003          0.0000000000000000     
  -44.280000000000001          0.0000000000000000     
  -44.219999999999999          0.0000000000000000     
  -44.159999999999997          0.0000000000000000     
  -44.100000000000001          0.0000000000000000     
  -44.039999999999999          0.0000000000000000     
  -43.980000000000004          0.0000000000000000     
  -43.920000000000002          0.0000000000000000     
  -43.859999999999999          0.0000000000000000     
  -43.799999999999997          0.0000000000000000     
  -43.740000000000002          0.0000000000000000     
  -43.680000000000000          0.0000000000000000     
  -43.619999999999997          0.0000000000000000     
  -43.560000000000002          0.0000000000000000     
  -43.500000000000000          0.0000000000000000     
  -43.439999999999998          0.0000000000000000     
  -43.380000000000003          0.0000000000000000     
  -43.320000000000000          0.0000000000000000     
  -43.259999999999998          0.0000000000000000     
  -43.200000000000003          0.0000000000000000     
  -43.140000000000001          0.0000000000000000     
  -43.079999999999998          0.0000000000000000     
  -43.020000000000003          0.0000000000000000     
  -42.960000000000001          0.0000000000000000     
  -42.899999999999999          0.0000000000000000     
  -42.840000000000003          0.0000000000000000     
  -42.780000000000001          0.0000000000000000     
  -42.719999999999999          0.0000000000000000     
  -42.659999999999997          0.0000000000000000     
  -42.600000000000001          0.0000000000000000     
  -42.539999999999999          0.0000000000000000     
  -42.480000000000004          0.0000000000000000     
  -42.420000000000002          0.0000000000000000     
  -42.359999999999999          0.0000000000000000     
  -42.299999999999997          0.0000000000000000     
  -42.240000000000002          0.0000000000000000     
  -42.180000000000000          0.0000000000000000     
  -42.119999999999997          0.0000000000000000     
  -42.060000000000002          0.0000000000000000     
  -42.000000000000000          0.0000000000000000     
  -41.939999999999998          0.0000000000000000     
  -41.880000000000003          0.0000000000000000     
  -41.820000000000000          0.0000000000000000     
  -41.759999999999998          0.0000000000000000     
  -41.700000000000003          0.0000000000000000     
  -41.640000000000001          0.0000000000000000     
  -41.579999999999998          0.0000000000000000     
  -41.520000000000003          0.0000000000000000     
  -41.460000000000001          0.0000000000000000     
  -41.399999999999999          0.0000000000000000     
  -41.340000000000003          0.0000000000000000     
  -41.280000000000001          0.0000000000000000     
  -41.219999999999999          0.0000000000000000     
  -41.159999999999997          0.0000000000000000     
  -41.100000000000001          0.0000000000000000     
  -41.039999999999999          0.0000000000000000     
  -40.980000000000004          0.0000000000000000     
  -40.920000000000002          0.0000000000000000     
  -40.859999999999999          0.0000000000000000     
  -40.799999999999997          0.0000000000000000     
  -40.740000000000002          0.0000000000000000     
  -40.680000000000000          0.0000000000000000     
  -40.619999999999997          0.0000000000000000     
  -40.560000000000002          0.0000000000000000     
  -40.500000000000000          0.0000000000000000     
  -40.439999999999998          0.0000000000000000     
  -40.380000000000003          0.0000000000000000     
  -40.320000000000000          0.0000000000000000     
  -40.259999999999998          0.0000000000000000     
  -40.200000000000003          0.0000000000000000     
  -40.140000000000001          0.0000000000000000     
  -40.079999999999998          0.0000000000000000     
  -40.020000000000003          0.0000000000000000     
  -39.960000000000001          0.0000000000000000     
  -39.899999999999999          0.0000000000000000     
  -39.840000000000003          0.0000000000000000     
  -39.780000000000001          0.0000000000000000     
  -39.719999999999999          0.0000000000000000     
  -39.659999999999997          0.0000000000000000     
  -39.600000000000001          0.0000000000000000     
  -39.539999999999999          0.0000000000000000     
  -39.480000000000004          0.0000000000000000     
  -39.420000000000002          0.0000000000000000     
  -39.359999999999999          0.0000000000000000     
  -39.299999999999997          0.0000000000000000     
  -39.240000000000002          0.0000000000000000     
  -39.180000000000000          0.0000000000000000     
  -39.120000000000005          0.0000000000000000     
  -39.060000000000002          0.0000000000000000     
  -39.000000000000000          0.0000000000000000     
  -38.939999999999998          0.0000000000000000     
  -38.880000000000003          0.0000000000000000     
  -38.820000000000000          0.0000000000000000     
  -38.759999999999998          0.0000000000000000     
  -38.700000000000003          0.0000000000000000     
  -38.640000000000001          0.0000000000000000     
  -38.579999999999998          0.0000000000000000     
  -38.519999999999996          0.0000000000000000     
  -38.460000000000001          0.0000000000000000     
  -38.399999999999999          0.0000000000000000     
  -38.340000000000003          0.0000000000000000     
  -38.280000000000001          0.0000000000000000     
  -38.219999999999999          0.0000000000000000     
  -38.159999999999997          0.0000000000000000     
  -38.100000000000001          0.0000000000000000     
  -38.039999999999999          0.0000000000000000     
  -37.980000000000004          0.0000000000000000     
  -37.920000000000002          0.0000000000000000     
  -37.859999999999999          0.0000000000000000     
  -37.799999999999997          0.0000000000000000     
  -37.740000000000002          0.0000000000000000     
  -37.680000000000000          0.0000000000000000     
  -37.620000000000005          0.0000000000000000     
  -37.560000000000002          0.0000000000000000     
  -37.500000000000000          0.0000000000000000     
  -37.439999999999998          0.0000000000000000     
  -37.380000000000003          0.0000000000000000     
  -37.320000000000000          0.0000000000000000     
  -37.259999999999998          0.0000000000000000     
  -37.200000000000003          0.0000000000000000     
  -37.140000000000001          0.0000000000000000     
  -37.079999999999998          0.0000000000000000     
  -37.019999999999996          0.0000000000000000     
  -36.960000000000001          0.0000000000000000     
  -36.899999999999999          0.0000000000000000     
  -36.840000000000003          0.0000000000000000     
  -36.780000000000001          0.0000000000000000     
  -36.719999999999999          0.0000000000000000     
  -36.659999999999997          0.0000000000000000     
  -36.600000000000001          0.0000000000000000     
  -36.539999999999999          0.0000000000000000     
  -36.480000000000004          0.0000000000000000     
  -36.420000000000002          0.0000000000000000     
  -36.359999999999999          0.0000000000000000     
  -36.299999999999997          0.0000000000000000     
  -36.240000000000002          0.0000000000000000     
  -36.180000000000000          0.0000000000000000     
  -36.120000000000005          0.0000000000000000     
  -36.060000000000002          0.0000000000000000     
  -36.000000000000000          0.0000000000000000     
  -35.939999999999998          0.0000000000000000     
  -35.880000000000003          0.0000000000000000     
  -35.820000000000000          0.0000000000000000     
  -35.759999999999998          0.0000000000000000     
  -35.700000000000003          0.0000000000000000     
  -35.640000000000001          0.0000000000000000     
  -35.579999999999998          0.0000000000000000     
  -35.519999999999996          0.0000000000000000     
  -35.460000000000001          0.0000000000000000     
  -35.399999999999999          0.0000000000000000     
  -35.340000000000003          0.0000000000000000     
  -35.280000000000001          0.0000000000000000     
  -35.219999999999999          0.0000000000000000     
  -35.159999999999997          0.0000000000000000     
  -35.100000000000001          0.0000000000000000     
  -35.039999999999999          0.0000000000000000     
  -34.980000000000004          0.0000000000000000     
  -34.920000000000002          0.0000000000000000     
  -34.859999999999999          0.0000000000000000     
  -34.799999999999997          0.0000000000000000     
  -34.740000000000002          0.0000000000000000     
  -34.680000000000000          0.0000000000000000     
  -34.620000000000005          0.0000000000000000     
  -34.560000000000002          0.0000000000000000     
  -34.500000000000000          0.0000000000000000     
  -34.439999999999998          0.0000000000000000     
  -34.380000000000003          0.0000000000000000     
  -34.320000000000000          0.0000000000000000     
  -34.259999999999998          0.0000000000000000     
  -34.200000000000003          0.0000000000000000     
  -34.140000000000001          0.0000000000000000     
  -34.079999999999998          0.0000000000000000     
  -34.020000000000003          0.0000000000000000     
  -33.960000000000001          0.0000000000000000     
  -33.899999999999999          0.0000000000000000     
  -33.840000000000003          0.0000000000000000     
  -33.780000000000001          0.0000000000000000     
  -33.719999999999999          0.0000000000000000     
  -33.659999999999997          0.0000000000000000     
  -33.600000000000001          0.0000000000000000     
  -33.539999999999999          0.0000000000000000     
  -33.480000000000004          0.0000000000000000     
  -33.420000000000002          0.0000000000000000     
  -33.359999999999999          0.0000000000000000     
  -33.299999999999997          0.0000000000000000     
  -33.240000000000002          0.0000000000000000     
  -33.180000000000000          0.0000000000000000     
  -33.120000000000005          0.0000000000000000     
  -33.060000000000002          0.0000000000000000     
  -33.000000000000000          0.0000000000000000     
  -32.939999999999998          0.0000000000000000     
  -32.880000000000003          0.0000000000000000     
  -32.820000000000000          0.0000000000000000     
  -32.759999999999998          0.0000000000000000     
  -32.700000000000003          0.0000000000000000     
  -32.640000000000001          0.0000000000000000     
  -32.579999999999998          0.0000000000000000     
  -32.520000000000003          0.0000000000000000     
  -32.460000000000001          0.0000000000000000     
  -32.399999999999999          0.0000000000000000     
  -32.340000000000003          0.0000000000000000     
  -32.280000000000001          0.0000000000000000     
  -32.219999999999999          0.0000000000000000     
  -32.159999999999997          0.0000000000000000     
  -32.100000000000001          0.0000000000000000     
  -32.039999999999999          0.0000000000000000     
  -31.980000000000000          0.0000000000000000     
  -31.920000000000002          0.0000000000000000     
  -31.859999999999999          0.0000000000000000     
  -31.800000000000001          1.4006151822220265E-040
  -31.740000000000002          3.8201572783330961E-040
  -31.680000000000000          7.5470645312869236E-040
  -31.620000000000001          1.2959564807262211E-039
  -31.560000000000002          1.8614847436783751E-039
  -31.500000000000000          2.4812554687706958E-039
  -31.440000000000001          3.2078018093978350E-039
  -31.379999999999999          4.0352856170918208E-039
  -31.320000000000000          4.6024115104035181E-039
  -31.260000000000002          4.7677413499857689E-039
  -31.199999999999999          5.1446841356645118E-039
  -31.140000000000001          4.9800508998684155E-039
  -31.080000000000002          4.1687446462089583E-039
  -31.020000000000000          3.2633548706255950E-039
  -30.960000000000001          2.1834282250474581E-039
  -30.900000000000002          9.6649562956891751E-040
  -30.840000000000000         -8.1758282574636148E-040
  -30.780000000000001         -3.0856435990941048E-039
  -30.719999999999999         -6.3202042402079197E-039
  -30.660000000000000         -9.4895022861216038E-039
  -30.600000000000001         -1.4595905684584818E-038
  -30.539999999999999         -1.9811378733069078E-038
  -30.480000000000000         -2.4011968742474816E-038
  -30.420000000000002         -2.4883389437043147E-038
  -30.359999999999999         -2.1834165425052061E-038
  -30.300000000000001         -1.5844099658617537E-038
  -30.240000000000002         -6.6723517664936010E-039
  -30.180000000000000          5.2701146868382967E-039
  -30.120000000000001          2.2159932679911007E-038
  -30.060000000000002          3.8904588662630662E-038
  -30.000000000000000          6.3205638241177826E-038
  -29.940000000000001          9.6626982918923447E-038
  -29.879999999999999          1.3614210498558366E-037
  -29.820000000000000          1.9930627371466631E-037
  -29.760000000000002          2.7674688614762316E-037
  -29.699999999999999          3.7147464722797973E-037
  -29.640000000000001          4.7751749122554030E-037
  -29.580000000000002          6.0376529563124802E-037
  -29.520000000000000          7.4174005407265143E-037
  -29.460000000000001          9.0900521801460625E-037
  -29.400000000000002          1.1153662197336243E-036
  -29.340000000000000          1.3757850643465619E-036
  -29.280000000000001          1.7062580697518241E-036
  -29.220000000000002          2.1444345416601957E-036
  -29.160000000000000          2.7231650231145709E-036
  -29.100000000000001          3.5153709123170602E-036
  -29.039999999999999          4.5575314096864192E-036
  -28.980000000000000          5.9141230279769802E-036
  -28.920000000000002          7.6854056079583624E-036
  -28.859999999999999          9.9749704517121460E-036
  -28.800000000000001          1.2906919191728587E-035
  -28.740000000000002          1.6647780576012586E-035
  -28.680000000000000          2.1406984470936636E-035
  -28.620000000000001          2.7413878961072087E-035
  -28.560000000000002          3.5092689061260044E-035
  -28.500000000000000          4.4798273758727111E-035
  -28.440000000000001          5.7116558518596132E-035
  -28.379999999999999          7.2721687635088559E-035
  -28.320000000000000          9.2342618653611824E-035
  -28.260000000000002          1.1712898274845119E-034
  -28.199999999999999          1.4834629632362836E-034
  -28.140000000000001          1.8772300973181460E-034
  -28.080000000000002          2.3742486880507826E-034
  -28.020000000000000          3.0027132746856771E-034
  -27.960000000000001          3.7974786816076117E-034
  -27.900000000000002          4.8022162023680777E-034
  -27.840000000000000          6.0725071513542006E-034
  -27.780000000000001          7.6771372976745538E-034
  -27.720000000000002          9.7026163537513341E-034
  -27.660000000000000          1.2257931229094617E-033
  -27.600000000000001          1.5479806811917051E-033
  -27.539999999999999          1.9538352386854639E-033
  -27.480000000000000          2.4648537844521348E-033
  -27.420000000000002          3.1078694883708741E-033
  -27.359999999999999          3.9165932699727683E-033
  -27.300000000000001          4.9332301874379000E-033
  -27.240000000000002          6.2106980084725584E-033
  -27.180000000000000          7.8151209719617862E-033
  -27.120000000000001          9.8291861786494007E-033
  -27.060000000000002          1.2356230851631797E-032
  -27.000000000000000          1.5525295635682326E-032
  -26.940000000000001          1.9497547641542032E-032
  -26.880000000000003          2.4474042434038251E-032
  -26.820000000000000          3.0705569064483207E-032
  -26.760000000000002          3.8504755531478877E-032
  -26.699999999999999          4.8261120267080600E-032
  -26.640000000000001          6.0459688001181739E-032
  -26.580000000000002          7.5704133905864132E-032
  -26.520000000000000          9.4745452028426550E-032
  -26.460000000000001          1.1851737893126651E-031
  -26.400000000000002          1.4818031825884745E-031
  -26.340000000000000          1.8517543446952188E-031
  -26.280000000000001          2.3129185864436975E-031
  -26.220000000000002          2.8874961125260168E-031
  -26.160000000000000          3.6030199856497245E-031
  -26.100000000000001          4.4936158584018111E-031
  -26.039999999999999          5.6015655320206060E-031
  -25.980000000000000          6.9792226879958041E-031
  -25.920000000000002          8.6913826718810014E-031
  -25.859999999999999          1.0818194761350207E-030
  -25.800000000000001          1.3458749503742011E-030
  -25.740000000000002          1.6735496292123334E-030
  -25.680000000000000          2.0799666385791794E-030
  -25.620000000000001          2.5837966335876543E-030
  -25.560000000000002          3.2080715119722045E-030
  -25.500000000000000          3.9811989282606283E-030
  -25.440000000000001          4.9381904739624295E-030
  -25.380000000000003          6.1221732953201625E-030
  -25.320000000000000          7.5862498083413835E-030
  -25.260000000000002          9.3957747487975100E-030
  -25.199999999999999          1.1631133616047744E-029
  -25.140000000000001          1.4391146871901349E-029
  -25.080000000000002          1.7797225786789667E-029
  -25.020000000000000          2.1998495325717303E-029
  -24.960000000000001          2.7177964895854811E-029
  -24.900000000000002          3.3560193742837356E-029
  -24.840000000000000          4.1420510412324213E-029
  -24.780000000000001          5.1096374669242458E-029
  -24.720000000000002          6.3001110382785644E-029
  -24.660000000000000          7.7640808978846775E-029
  -24.600000000000001          9.5634719188070684E-029
  -24.539999999999999          1.1774014620593574E-028
  -24.480000000000000          1.4488288697365681E-028
  -24.420000000000002          1.7819395281226576E-028
  -24.359999999999999          2.1905436686673374E-028
  -24.300000000000001          2.6914986358135869E-028
  -24.240000000000002          3.3053639621870840E-028
  -24.180000000000000          4.0572069304553269E-028
  -24.120000000000001          4.9775735523488736E-028
  -24.060000000000002          6.1036726404139838E-028
  -24.000000000000000          7.4807937988058832E-028
  -23.940000000000001          9.1640436478618335E-028
  -23.880000000000003          1.1220432910565821E-027
  -23.820000000000000          1.3731401882046435E-027
  -23.760000000000002          1.6795889821810086E-027
  -23.699999999999999          2.0534024397218657E-027
  -23.640000000000001          2.5091560738100971E-027
  -23.580000000000002          3.0645304756562444E-027
  -23.520000000000000          3.7409551071175035E-027
  -23.460000000000001          4.5643997110106067E-027
  -23.400000000000002          5.5663099038649467E-027
  -23.340000000000000          6.7847471581038032E-027
  -23.280000000000001          8.2657499174153315E-027
  -23.220000000000002          1.0064987176761354E-026
  -23.160000000000000          1.2249728203111702E-026
  -23.100000000000001          1.4901226909009265E-026
  -23.039999999999999          1.8117555397072432E-026
  -22.980000000000000          2.2017054783718629E-026
  -22.920000000000002          2.6742422432569475E-026
  -22.859999999999999          3.2465644720942665E-026
  -22.800000000000001          3.9393891097667411E-026
  -22.740000000000002          4.7776637097131344E-026
  -22.680000000000000          5.7914085357492443E-026
  -22.620000000000001          7.0167274003572510E-026
  -22.560000000000002          8.4970231779485085E-026
  -22.500000000000000          1.0284440506741063E-025
  -22.440000000000001          1.2441593896524131E-025
  -22.380000000000003          1.5043633484688234E-025
  -22.320000000000000          1.8180701891743844E-025
  -22.260000000000002          2.1960886407851952E-025
  -22.199999999999999          2.6513699538613407E-025
  -22.140000000000001          3.1994266707165206E-025
  -22.080000000000002          3.8588260304863295E-025
  -22.020000000000000          4.6517813083800741E-025
  -21.960000000000001          5.6048543762330356E-025
  -21.900000000000002          6.7497950436485677E-025
  -21.840000000000000          8.1245196761565065E-025
  -21.780000000000001          9.7742976610930015E-025
  -21.720000000000002          1.1753142221082362E-024
  -21.660000000000000          1.4125477363926907E-024
  -21.600000000000001          1.6968085554601446E-024
  -21.540000000000003          2.0372432689296698E-024
  -21.480000000000000          2.4447429756713621E-024
  -21.420000000000002          2.9322687870273393E-024
  -21.359999999999999          3.5152365918350744E-024
  -21.300000000000001          4.2119735401207451E-024
  -21.240000000000002          5.0442504217741334E-024
  -21.180000000000000          6.0379257045482618E-024
  -21.120000000000001          7.2236868055743240E-024
  -21.060000000000002          8.6379353233077706E-024
  -21.000000000000000          1.0323825502915770E-023
  -20.940000000000001          1.2332497804474448E-023
  -20.880000000000003          1.4724519960203513E-023
  -20.820000000000000          1.7571585263330364E-023
  -20.760000000000002          2.0958502538940392E-023
  -20.699999999999999          2.4985561218410285E-023
  -20.640000000000001          2.9771259765444160E-023
  -20.580000000000002          3.5455578777424070E-023
  -20.520000000000000          4.2203773693443326E-023
  -20.460000000000001          5.0210785204218554E-023
  -20.400000000000002          5.9706491878935187E-023
  -20.340000000000000          7.0961852575518334E-023
  -20.280000000000001          8.4295971314621416E-023
  -20.220000000000002          1.0008457274854655E-022
  -20.160000000000000          1.1876978098913972E-022
  -20.100000000000001          1.4087149865115870E-022
  -20.040000000000003          1.6700085740465350E-022
  -19.980000000000000          1.9787570617583606E-022
  -19.920000000000002          2.3433891070252045E-022
  -19.859999999999999          2.7737955287387371E-022
  -19.800000000000001          3.2815757637429925E-022
  -19.740000000000002          3.8803284174589452E-022
  -19.680000000000000          4.5859812902321428E-022
  -19.620000000000001          5.4171870008911970E-022
  -19.560000000000002          6.3957716964260595E-022
  -19.500000000000000          7.5472654356615945E-022
  -19.440000000000001          8.9015153669057085E-022
  -19.380000000000003          1.0493385458858715E-021
  -19.320000000000000          1.2363589512460533E-021
  -19.260000000000002          1.4559638439684756E-021
  -19.200000000000003          1.7136955485109360E-021
  -19.140000000000001          2.0160141637099578E-021
  -19.080000000000002          2.3704469379982477E-021
  -19.020000000000000          2.7857580544174171E-021
  -18.960000000000001          3.2721490614407469E-021
  -18.900000000000002          3.8414833258469709E-021
  -18.840000000000000          4.5075546476430605E-021
  -18.780000000000001          5.2863873737047034E-021
  -18.720000000000002          6.1965943761718679E-021
  -18.660000000000000          7.2597745082864718E-021
  -18.600000000000001          8.5009795808151785E-021
  -18.540000000000003          9.9492556434203986E-021
  -18.480000000000000          1.1638249650123935E-020
  -18.420000000000002          1.3606926536503197E-020
  -18.359999999999999          1.5900387749922211E-020
  -18.300000000000001          1.8570813388187673E-020
  -18.240000000000002          2.1678507276110813E-020
  -18.180000000000000          2.5293151949503949E-020
  -18.120000000000001          2.9495230188224344E-020
  -18.060000000000002          3.4377606110434091E-020
  -18.000000000000000          4.0047398241759428E-020
  -17.940000000000001          4.6628103668938870E-020
  -17.880000000000003          5.4262002879718907E-020
  -17.820000000000000          6.3112925168821157E-020
  -17.760000000000002          7.3369392714225787E-020
  -17.700000000000003          8.5248213030315971E-020
  -17.640000000000001          9.8998653717905182E-020
  -17.580000000000002          1.1490705565110127E-019
  -17.520000000000000          1.3330229826759522E-019
  -17.460000000000001          1.5456166549753510E-019
  -17.400000000000002          1.7911799745729407E-019
  -17.340000000000000          2.0746753645759982E-019
  -17.280000000000001          2.4017867356179668E-019
  -17.220000000000002          2.7790220501856641E-019
  -17.160000000000000          3.2138296134064202E-019
  -17.100000000000001          3.7147258521546833E-019
  -17.040000000000003          4.2914465551329858E-019
  -16.980000000000000          4.9551130494110760E-019
  -16.920000000000002          5.7184213671746203E-019
  -16.859999999999999          6.5958565499002597E-019
  -16.800000000000001          7.6039365651244694E-019
  -16.740000000000002          8.7614909850129475E-019
  -16.680000000000000          1.0089963851386975E-018
  -16.620000000000001          1.1613760369456176E-018
  -16.560000000000002          1.3360661808132167E-018
  -16.500000000000000          1.5362252291676957E-018
  -16.440000000000001          1.7654422349454282E-018
  -16.380000000000003          2.0277933255138680E-018
  -16.320000000000000          2.3279055756474808E-018
  -16.260000000000002          2.6710265881042630E-018
  -16.200000000000003          3.0631085907717557E-018
  -16.140000000000001          3.5108956712026368E-018
  -16.080000000000002          4.0220239878389169E-018
  -16.020000000000000          4.6051383970739889E-018
  -15.960000000000001          5.2700161329008330E-018
  -15.899999999999999          6.0277094117051607E-018
  -15.840000000000003          6.8907034388147176E-018
  -15.780000000000001          7.8731002403159763E-018
  -15.719999999999999          8.9908099942250926E-018
  -15.660000000000004          1.0261783351322570E-017
  -15.600000000000001          1.1706250372237355E-017
  -15.539999999999999          1.3346997624876068E-017
  -15.480000000000004          1.5209688464003106E-017
  -15.420000000000002          1.7323193859747939E-017
  -15.359999999999999          1.9719986649860693E-017