  -48.000000000000000          0.0000000000000000     
  -47.939999999999998          0.0000000000000000     
  -47.880000000000003          0.0000000000000000     
  -47.820000000000000          0.0000000000000000     
  -47.759999999999998          0.0000000000000000     
  -47.700000000000003          0.0000000000000000     
  -47.640000000000001          0.0000000000000000     
  -47.579999999999998          0.0000000000000000     
  -47.520000000000003          0.0000000000000000     
  -47.460000000000001          0.0000000000000000     
  -47.399999999999999          0.0000000000000000     
  -47.340000000000003          0.0000000000000000     
  -47.280000000000001          0.0000000000000000     
  -47.219999999999999          0.0000000000000000     
  -47.159999999999997          0.0000000000000000     
  -47.100000000000001          0.0000000000000000     
  -47.039999999999999          0.0000000000000000     
  -46.979999999999997          0.0000000000000000     
  -46.920000000000002          0.0000000000000000     
  -46.859999999999999          0.0000000000000000     
  -46.799999999999997          0.0000000000000000     
  -46.740000000000002          0.0000000000000000     
  -46.680000000000000          0.0000000000000000     
  -46.619999999999997          0.0000000000000000     
  -46.560000000000002          0.0000000000000000     
  -46.500000000000000          0.0000000000000000     
  -46.439999999999998          0.0000000000000000     
  -46.380000000000003          0.0000000000000000     
  -46.320000000000000          0.0000000000000000     
  -46.259999999999998          0.0000000000000000     
  -46.200000000000003          0.0000000000000000     
  -46.140000000000001          0.0000000000000000     
  -46.079999999999998          0.0000000000000000     
  -46.020000000000003          0.0000000000000000     
  -45.960000000000001          0.0000000000000000     
  -45.899999999999999          0.0000000000000000     
  -45.840000000000003          0.0000000000000000     
  -45.780000000000001          0.0000000000000000     
  -45.719999999999999          0.0000000000000000     
  -45.659999999999997          0.0000000000000000     
  -45.600000000000001          0.0000000000000000     
  -45.539999999999999          0.0000000000000000     
  -45.479999999999997          0.0000000000000000     
  -45.420000000000002          0.0000000000000000     
  -45.359999999999999          0.0000000000000000     
  -45.299999999999997          0.0000000000000000     
  -45.240000000000002          0.0000000000000000     
  -45.180000000000000          0.0000000000000000     
  -45.119999999999997          0.0000000000000000     
  -45.060000000000002          0.0000000000000000     
  -45.000000000000000          0.0000000000000000     
  -44.939999999999998          0.0000000000000000     
  -44.880000000000003          0.0000000000000000     
  -44.820000000000000          0.0000000000000000     
  -44.759999999999998          0.0000000000000000     
  -44.700000000000003          0.0000000000000000     
  -44.640000000000001          0.0000000000000000     
  -44.579999999999998          0.0000000000000000     
  -44.520000000000003          0.0000000000000000     
  -44.460000000000001          0.0000000000000000     
  -44.399999999999999          0.0000000000000000     
  -44.340000000000003          0.0000000000000000     
  -44.280000000000001          0.0000000000000000     
  -44.219999999999999          0.0000000000000000     
  -44.159999999999997          0.0000000000000000     
  -44.100000000000001          0.0000000000000000     
  -44.039999999999999          0.0000000000000000     
  -43.980000000000004          0.0000000000000000     
  -43.920000000000002          0.0000000000000000     
  -43.859999999999999          0.0000000000000000     
  -43.799999999999997          0.0000000000000000     
  -43.740000000000002          0.0000000000000000     
  -43.680000000000000          0.0000000000000000     
  -43.619999999999997          0.0000000000000000     
  -43.560000000000002          0.0000000000000000     
  -43.500000000000000          0.0000000000000000     
  -43.439999999999998          0.0000000000000000     
  -43.380000000000003          0.0000000000000000     
  -43.320000000000000          0.0000000000000000     
  -43.259999999999998          0.0000000000000000     
  -43.200000000000003          0.0000000000000000     
  -43.140000000000001          0.0000000000000000     
  -43.079999999999998          0.0000000000000000     
  -43.020000000000003          0.0000000000000000     
  -42.960000000000001          0.0000000000000000     
  -42.899999999999999          0.0000000000000000     
  -42.840000000000003          0.0000000000000000     
  -42.780000000000001          0.0000000000000000     
  -42.719999999999999          0.0000000000000000     
  -42.659999999999997          0.0000000000000000     
  -42.600000000000001          0.0000000000000000     
  -42.539999999999999          0.0000000000000000     
  -42.480000000000004          0.0000000000000000     
  -42.420000000000002          0.0000000000000000     
  -42.359999999999999          0.0000000000000000     
  -42.299999999999997          0.0000000000000000     
  -42.240000000000002          0.0000000000000000     
  -42.180000000000000          0.0000000000000000     
  -42.119999999999997          0.0000000000000000     
  -42.060000000000002          0.0000000000000000     
  -42.000000000000000          0.0000000000000000     
  -41.939999999999998          0.0000000000000000     
  -41.880000000000003          0.0000000000000000     
  -41.820000000000000          0.0000000000000000     
  -41.759999999999998          0.0000000000000000     
  -41.700000000000003          0.0000000000000000     
  -41.640000000000001          0.0000000000000000     
  -41.579999999999998          0.0000000000000000     
  -41.520000000000003          0.0000000000000000     
  -41.460000000000001          0.0000000000000000     
  -41.399999999999999          0.0000000000000000     
  -41.340000000000003          0.0000000000000000     
  -41.280000000000001          0.0000000000000000     
  -41.219999999999999          0.0000000000000000     
  -41.159999999999997          0.0000000000000000     
  -41.100000000000001          0.0000000000000000     
  -41.039999999999999          0.0000000000000000     
  -40.980000000000004          0.0000000000000000     
  -40.920000000000002          0.0000000000000000     
  -40.859999999999999          0.0000000000000000     
  -40.799999999999997          0.0000000000000000     
  -40.740000000000002          0.0000000000000000     
  -40.680000000000000          0.0000000000000000     
  -40.619999999999997          0.0000000000000000     
  -40.560000000000002          0.0000000000000000     
  -40.500000000000000          0.0000000000000000     
  -40.439999999999998          0.0000000000000000     
  -40.380000000000003          0.0000000000000000     
  -40.320000000000000          0.0000000000000000     
  -40.259999999999998          0.0000000000000000     
  -40.200000000000003          0.0000000000000000     
  -40.140000000000001          0.0000000000000000     
  -40.079999999999998          0.0000000000000000     
  -40.020000000000003          0.0000000000000000     
  -39.960000000000001          0.0000000000000000     
  -39.899999999999999          0.0000000000000000     
  -39.840000000000003          0.0000000000000000     
  -39.780000000000001          0.0000000000000000     
  -39.719999999999999          0.0000000000000000     
  -39.659999999999997          0.0000000000000000     
  -39.600000000000001          0.0000000000000000     
  -39.539999999999999          0.0000000000000000     
  -39.480000000000004          0.0000000000000000     
  -39.420000000000002          0.0000000000000000     
  -39.359999999999999          0.0000000000000000     
  -39.299999999999997          0.0000000000000000     
  -39.240000000000002          0.0000000000000000     
  -39.180000000000000          0.0000000000000000     
  -39.120000000000005          0.0000000000000000     
  -39.060000000000002          0.0000000000000000     
  -39.000000000000000          0.0000000000000000     
  -38.939999999999998          0.0000000000000000     
  -38.880000000000003          0.0000000000000000     
  -38.820000000000000          0.0000000000000000     
  -38.759999999999998          0.0000000000000000     
  -38.700000000000003          0.0000000000000000     
  -38.640000000000001          0.0000000000000000     
  -38.579999999999998          0.0000000000000000     
  -38.519999999999996          0.0000000000000000     
  -38.460000000000001          0.0000000000000000     
  -38.399999999999999          0.0000000000000000     
  -38.340000000000003          0.0000000000000000     
  -38.280000000000001          0.0000000000000000     
  -38.219999999999999          0.0000000000000000     
  -38.159999999999997          0.0000000000000000     
  -38.100000000000001          0.0000000000000000     
  -38.039999999999999          0.0000000000000000     
  -37.980000000000004          0.0000000000000000     
  -37.920000000000002          0.0000000000000000     
  -37.859999999999999          0.0000000000000000     
  -37.799999999999997          0.0000000000000000     
  -37.740000000000002          0.0000000000000000     
  -37.680000000000000          0.0000000000000000     
  -37.620000000000005          0.0000000000000000     
  -37.560000000000002          0.0000000000000000     
  -37.500000000000000          0.0000000000000000     
  -37.439999999999998          0.0000000000000000     
  -37.380000000000003          0.0000000000000000     
  -37.320000000000000          0.0000000000000000     
  -37.259999999999998          0.0000000000000000     
  -37.200000000000003          0.0000000000000000     
  -37.140000000000001          0.0000000000000000     
  -37.079999999999998          0.0000000000000000     
  -37.019999999999996          0.0000000000000000     
  -36.960000000000001          0.0000000000000000     
  -36.899999999999999          0.0000000000000000     
  -36.840000000000003          0.0000000000000000     
  -36.780000000000001          0.0000000000000000     
  -36.719999999999999          0.0000000000000000     
  -36.659999999999997          0.0000000000000000     
  -36.600000000000001          0.0000000000000000     
  -36.539999999999999          0.0000000000000000     
  -36.480000000000004          0.0000000000000000     
  -36.420000000000002          0.0000000000000000     
  -36.359999999999999          0.0000000000000000     
  -36.299999999999997          0.0000000000000000     
  -36.240000000000002          0.0000000000000000     
  -36.180000000000000          0.0000000000000000     
  -36.120000000000005          0.0000000000000000     
  -36.060000000000002          0.0000000000000000     
  -36.000000000000000          0.0000000000000000     
  -35.939999999999998          0.0000000000000000     
  -35.880000000000003          0.0000000000000000     
  -35.820000000000000          0.0000000000000000     
  -35.759999999999998          0.0000000000000000     
  -35.700000000000003          0.0000000000000000     
  -35.640000000000001          0.0000000000000000     
  -35.579999999999998          0.0000000000000000     
  -35.519999999999996          0.0000000000000000     
  -35.460000000000001          0.0000000000000000     
  -35.399999999999999          0.0000000000000000     
  -35.340000000000003          0.0000000000000000     
  -35.280000000000001          0.0000000000000000     
  -35.219999999999999          0.0000000000000000     
  -35.159999999999997          0.0000000000000000     
  -35.100000000000001          0.0000000000000000     
  -35.039999999999999          0.0000000000000000     
  -34.980000000000004          0.0000000000000000     
  -34.920000000000002          0.0000000000000000     
  -34.859999999999999          0.0000000000000000     
  -34.799999999999997          0.0000000000000000     
  -34.740000000000002          0.0000000000000000     
  -34.680000000000000          0.0000000000000000     
  -34.620000000000005          0.0000000000000000     
  -34.560000000000002          0.0000000000000000     
  -34.500000000000000          0.0000000000000000     
  -34.439999999999998          0.0000000000000000     
  -34.380000000000003          0.0000000000000000     
  -34.320000000000000          0.0000000000000000     
  -34.259999999999998          0.0000000000000000     
  -34.200000000000003          0.0000000000000000     
  -34.140000000000001          0.0000000000000000     
  -34.079999999999998          0.0000000000000000     
  -34.020000000000003          0.0000000000000000     
  -33.960000000000001          0.0000000000000000     
  -33.899999999999999          0.0000000000000000     
  -33.840000000000003          0.0000000000000000     
  -33.780000000000001          0.0000000000000000     
  -33.719999999999999          0.0000000000000000     
  -33.659999999999997          0.0000000000000000     
  -33.600000000000001          0.0000000000000000     
  -33.539999999999999          0.0000000000000000     
  -33.480000000000004          0.0000000000000000     
  -33.420000000000002          0.0000000000000000     
  -33.359999999999999          0.0000000000000000     
  -33.299999999999997          0.0000000000000000     
  -33.240000000000002          0.0000000000000000     
  -33.180000000000000          0.0000000000000000     
  -33.120000000000005          0.0000000000000000     
  -33.060000000000002          0.0000000000000000     
  -33.000000000000000          0.0000000000000000     
  -32.939999999999998          0.0000000000000000     
  -32.880000000000003          0.0000000000000000     
  -32.820000000000000          0.0000000000000000     
  -32.759999999999998          0.0000000000000000     
  -32.700000000000003          0.0000000000000000     
  -32.640000000000001          0.0000000000000000     
  -32.579999999999998          0.0000000000000000     
  -32.520000000000003          0.0000000000000000     
  -32.460000000000001          0.0000000000000000     
  -32.399999999999999          0.0000000000000000     
  -32.340000000000003          0.0000000000000000     
  -32.280000000000001          0.0000000000000000     
  -32.219999999999999          0.0000000000000000     
  -32.159999999999997          0.0000000000000000     
  -32.100000000000001          0.0000000000000000     
  -32.039999999999999          0.0000000000000000     
  -31.980000000000000          0.0000000000000000     
  -31.920000000000002          0.0000000000000000     
  -31.859999999999999          0.0000000000000000     
  -31.800000000000001          0.0000000000000000     
  -31.740000000000002          0.0000000000000000     
  -31.680000000000000          0.0000000000000000     
  -31.620000000000001          0.0000000000000000     
  -31.560000000000002          0.0000000000000000     
  -31.500000000000000          0.0000000000000000     
  -31.440000000000001          0.0000000000000000     
  -31.379999999999999          6.8766677949546072E-041
  -31.320000000000000          2.2687805146504819E-040
  -31.260000000000002          5.0001365637523992E-040
  -31.199999999999999          9.2152446444657335E-040
  -31.140000000000001          1.5345143697044215E-039
  -31.080000000000002          2.2027507394592579E-039
  -31.020000000000000          2.9385901296465421E-039
  -30.960000000000001          3.7599719719790755E-039
  -30.900000000000002          4.4803874749550752E-039
  -30.840000000000000          5.0775980282337320E-039
  -30.780000000000001          5.1988336337234756E-039
  -30.719999999999999          5.4895945332397100E-039
  -30.660000000000000          5.1221484063961535E-039
  -30.600000000000001          4.5118312396184694E-039
  -30.539999999999999          3.6763102515362857E-039
  -30.480000000000000          2.7107414619813635E-039
  -30.420000000000002          1.6748286975302261E-039
  -30.359999999999999          7.2466160245981766E-041
  -30.300000000000001         -2.0246965852047294E-039
  -30.240000000000002         -5.1471993840828753E-039
  -30.180000000000000         -8.2902807114944780E-039
  -30.120000000000001         -1.3874847300316557E-038
  -30.060000000000002         -1.8806678259104359E-038
  -30.000000000000000         -2.1250716093084393E-038
  -29.940000000000001         -2.0442550974625922E-038
  -29.879999999999999         -1.5253785977689434E-038
  -29.820000000000000         -5.7855162966246844E-039
  -29.760000000000002          6.0647760974039624E-039
  -29.699999999999999          2.0096836126136989E-038
  -29.640000000000001          3.3673301290402173E-038
  -29.580000000000002          4.6204367160818800E-038
  -29.520000000000000          6.6661383743248768E-038
  -29.460000000000001          9.7201193333337853E-038
  -29.400000000000002          1.3408191169431621E-037
  -29.340000000000000          1.9468269651504816E-037
  -29.280000000000001          2.6890282030199491E-037
  -29.220000000000002          3.6005960292284227E-037
  -29.160000000000000          4.6187372622789516E-037
  -29.100000000000001          5.8309757648697193E-037
  -29.039999999999999          7.1493425479391745E-037
  -28.980000000000000          8.7224262551776209E-037
  -28.920000000000002          1.0656514090493891E-036
  -28.859999999999999          1.3136979737161668E-036
  -28.800000000000001          1.6311959183787208E-036
  -28.740000000000002          2.0530564524768858E-036
  -28.680000000000000          2.6156200909201192E-036
  -28.620000000000001          3.3569595770823599E-036
  -28.560000000000002          4.3526188813108799E-036
  -28.500000000000000          5.6509333491555857E-036
  -28.440000000000001          7.3342526992585698E-036
  -28.379999999999999          9.5026079017794701E-036
  -28.320000000000000          1.2271910866518644E-035
  -28.260000000000002          1.5773483532863724E-035
  -28.199999999999999          2.0205938238565847E-035
  -28.140000000000001          2.5776753136379467E-035
  -28.080000000000002          3.2865656403870040E-035
  -28.020000000000000          4.1787459657454415E-035
  -27.960000000000001          5.3073255359527523E-035
  -27.900000000000002          6.7318916747797335E-035
  -27.840000000000000          8.5146777496378335E-035
  -27.780000000000001          1.0749707173959288E-034
  -27.720000000000002          1.3565977489821504E-034
  -27.660000000000000          1.7102214681669030E-034
  -27.600000000000001          2.1548193636184713E-034
  -27.539999999999999          2.7148795366751416E-034
  -27.480000000000000          3.4203083260421534E-034
  -27.420000000000002          4.3085767013890723E-034
  -27.359999999999999          5.4272327886694802E-034
  -27.300000000000001          6.8346589341011743E-034
  -27.240000000000002          8.6039898138927330E-034
  -27.180000000000000          1.0826965292048927E-033
  -27.120000000000001          1.3616904174985022E-033
  -27.060000000000002          1.7116865520354692E-033
  -27.000000000000000          2.1504923136367341E-033
  -26.940000000000001          2.7004023504536444E-033
  -26.880000000000003          3.3893240006918629E-033
  -26.820000000000000          4.2519494209260900E-033
  -26.760000000000002          5.3315653145415413E-033
  -26.699999999999999          6.6820663120545056E-033
  -26.640000000000001          8.3705564622253642E-033
  -26.580000000000002          1.0480555050878962E-032
  -26.520000000000000          1.3115941337295644E-032
  -26.460000000000001          1.6405831291678907E-032
  -26.400000000000002          2.0510673044241057E-032
  -26.340000000000000          2.5629775947571387E-032
  -26.280000000000001          3.2010576384232475E-032
  -26.220000000000002          3.9960070423482491E-032
  -26.160000000000000          4.9858997908689910E-032
  -26.100000000000001          6.2179216834166567E-032
  -26.039999999999999          7.7505222297143096E-032
  -25.980000000000000          9.6560810917600724E-032
  -25.920000000000002          1.2024165779319594E-031
  -25.859999999999999          1.4965560046411004E-031
  -25.800000000000001          1.8617213837567801E-031
  -25.740000000000002          2.3148353281742777E-031
  -25.680000000000000          2.8767970661837426E-031
  -25.620000000000001          3.5734035519415372E-031
  -25.560000000000002          4.4364783156240781E-031
  -25.500000000000000          5.5052656422577628E-031
  -25.440000000000001          6.8281295258511947E-031
  -25.380000000000003          8.4646418237475331E-031
  -25.320000000000000          1.0488151963539693E-030
  -25.260000000000002          1.2988918038214051E-030
  -25.199999999999999          1.6077942920802353E-030
  -25.140000000000001          1.9891684382054673E-030
  -25.080000000000002          2.4597796136947386E-030
  -25.020000000000000          3.0402157473955370E-030
  -24.960000000000001          3.7557455041742456E-030
  -24.900000000000002          4.6373646582451952E-030
  -24.840000000000000          5.7230793895430469E-030
  -24.780000000000001          7.0594655653209748E-030
  -24.720000000000002          8.7035632438466368E-030
  -24.660000000000000          1.0725201666014238E-029
  -24.600000000000001          1.3209822322162628E-029
  -24.539999999999999          1.6261907180097837E-029
  -24.480000000000000          2.0009162474353379E-029
  -24.420000000000002          2.4607608039355347E-029
  -24.359999999999999          3.0247737123948573E-029
  -24.300000000000001          3.7162014873280524E-029
  -24.240000000000002          4.5633967218523403E-029
  -24.180000000000000          5.6009272106263964E-029
  -24.120000000000001          6.8709122014920429E-029
  -24.060000000000002          8.4246447759057925E-029
  -24.000000000000000          1.0324561880563133E-028
  -23.940000000000001          1.2646625460549061E-028
  -23.880000000000003          1.5483189215445210E-028
  -23.820000000000000          1.8946496785740451E-028
  -23.760000000000002          2.3172866507958186E-028
  -23.699999999999999          2.8327803924274756E-028
  -23.640000000000001          3.4612140170513068E-028
  -23.580000000000002          4.2269417112935128E-028
  -23.520000000000000          5.1594845293811898E-028
  -23.460000000000001          6.2946055013744755E-028
  -23.400000000000002          7.6756077434524072E-028
  -23.340000000000000          9.3548984989134099E-028
  -23.280000000000001          1.1395873492290654E-027
  -23.220000000000002          1.3875164126060007E-027
  -23.160000000000000          1.6885372708148358E-027
  -23.100000000000001          2.0538332686994771E-027
  -23.039999999999999          2.4969024338308004E-027
  -22.980000000000000          3.0340304304020925E-027
  -22.920000000000002          3.6848526016147861E-027
  -22.859999999999999          4.4730319754824018E-027
  -22.800000000000001          5.4270698638284799E-027
  -22.740000000000002          6.5812786060343524E-027
  -22.680000000000000          7.9769442181661833E-027
  -22.620000000000001          9.6637133330006291E-027
  -22.560000000000002          1.1701267323536640E-026
  -22.500000000000000          1.4161290796198874E-026
  -22.440000000000001          1.7129870843318113E-026
  -22.380000000000003          2.0710309592705100E-026
  -22.320000000000000          2.5026501477105825E-026
  -22.260000000000002          3.0226981142450122E-026
  -22.199999999999999          3.6489716175917932E-026
  -22.140000000000001          4.4027821379608970E-026
  -22.080000000000002          5.3096357304396860E-026
  -22.020000000000000          6.4000450537312394E-026
  -21.960000000000001          7.7104893939875851E-026
  -21.900000000000002          9.2845650376839247E-026
  -21.840000000000000          1.1174332551853750E-025
  -21.780000000000001          1.3441950183367969E-025
  -21.720000000000002          1.6161562310045385E-025
  -21.660000000000000          1.9421588711046274E-025
  -21.600000000000001          2.3327396799083581E-025
  -21.540000000000003          2.8004504370993268E-025
  -21.480000000000000          3.3602345006630387E-025
  -21.420000000000002          4.0298724697863604E-025
  -21.359999999999999          4.8305077887504633E-025
  -21.300000000000001          5.7872758465195364E-025
  -21.240000000000002          6.9300303130936047E-025
  -21.180000000000000          8.2942221240619234E-025
  -21.120000000000001          9.9219227666541526E-025
  -21.060000000000002          1.1863027174812267E-024
  -21.000000000000000          1.4176687262423513E-024
  -20.940000000000001          1.6932981995438567E-024
  -20.880000000000003          2.0214894917594329E-024
  -20.820000000000000          2.4120636884799234E-024
  -20.760000000000002          2.8766369015128665E-024
  -20.699999999999999          3.4289431184967146E-024
  -20.640000000000001          4.0852114067000630E-024
  -20.580000000000002          4.8646052983838204E-024
  -20.520000000000000          5.7897465958894786E-024
  -20.460000000000001          6.8873205404025832E-024
  -20.400000000000002          8.1887887987972390E-024
  -20.340000000000000          9.7312243858855036E-024
  -20.280000000000001          1.1558290192106875E-023
  -20.220000000000002          1.3721374978982616E-023
  -20.160000000000000          1.6280945518324282E-023
  -20.100000000000001          1.9308094567128398E-023
  -20.040000000000003          2.2886373229239918E-023
  -19.980000000000000          2.7113921093775912E-023
  -19.920000000000002          3.2105940506663682E-023
  -19.859999999999999          3.7997595505270599E-023
  -19.800000000000001          4.4947367866120597E-023
  -19.740000000000002          5.3141022938872724E-023
  -19.680000000000000          6.2796148491967613E-023
  -19.620000000000001          7.4167466451436721E-023
  -19.560000000000002          8.7553056809334887E-023
  -19.500000000000000          1.0330140936325522E-022
  -19.440000000000001          1.2181985167091642E-022
  -19.380000000000003          1.4358419999933172E-022
  -19.320000000000000          1.6914995522708358E-022
  -19.260000000000002          1.9916532577804077E-022
  -19.200000000000003          2.3438620260140346E-022
  -19.140000000000001          2.7569356437706554E-022
  -19.080000000000002          3.2411373389523320E-022
  -19.020000000000000          3.8084146759012892E-022
  -18.960000000000001          4.4726688766525480E-022
  -18.900000000000002          5.2500687818723822E-022
  -18.840000000000000          6.1594044449760682E-022
  -18.780000000000001          7.2225058299249045E-022
  -18.720000000000002          8.4647162289447125E-022
  -18.660000000000000          9.9154459607559812E-022
  -18.600000000000001          1.1608799614641684E-021
  -18.540000000000003          1.3584312210180600E-021
  -18.480000000000000          1.5887770437431004E-021
  -18.420000000000002          1.8572191712912044E-021
  -18.359999999999999          2.1698927376840760E-021
  -18.300000000000001          2.5338924815191385E-021
  -18.240000000000002          2.9574177633798326E-021
  -18.180000000000000          3.4499388259487954E-021
  -18.120000000000001          4.0223908531973656E-021
  -18.060000000000002          4.6873890252353073E-021
  -18.000000000000000          5.4594812979943403E-021
  -17.940000000000001          6.3554399265181684E-021
  -17.880000000000003          7.3945783505655026E-021
  -17.820000000000000          8.5991331950604470E-021
  -17.760000000000002          9.9946873340463547E-021
  -17.700000000000003          1.1610659735825662E-020
  -17.640000000000001          1.3480859418744970E-020
  -17.580000000000002          1.5644128544201327E-020
  -17.520000000000000          1.8145051654773850E-020
  -17.460000000000001          2.1034774615345305E-020
  -17.400000000000002          2.4371942168844703E-020
  -17.340000000000000          2.8223773999563077E-020
  -17.280000000000001          3.2667236402039209E-020
  -17.220000000000002          3.7790432574666863E-020
  -17.160000000000000          4.3694141100205455E-020
  -17.100000000000001          5.0493598402416498E-020
  -17.040000000000003          5.8320492271072681E-020
  -16.980000000000000          6.7325188439140714E-020
  -16.920000000000002          7.7679307075245443E-020
  -16.859999999999999          8.9578617519451014E-020
  -16.800000000000001          1.0324626566561838E-019
  -16.740000000000002          1.1893653293661300E-019
  -16.680000000000000          1.3693898164383851E-019
  -16.620000000000001          1.5758313396051106E-019
  -16.560000000000002          1.8124383175850397E-019
  -16.500000000000000          2.0834714690246490E-019
  -16.440000000000001          2.3937712735273157E-019
  -16.380000000000003          2.7488337308014430E-019
  -16.320000000000000          3.1548941983762469E-019
  -16.260000000000002          3.6190263704842148E-019
  -16.200000000000003          4.1492440848500716E-019
  -16.140000000000001          4.7546258685396902E-019
  -16.080000000000002          5.4454489452101091E-019
  -16.020000000000000          6.2333414641115800E-019
  -15.960000000000001          7.1314506739034571E-019
  -15.899999999999999          8.1546335715439417E-019
  -15.840000000000003          9.3196673148736163E-019
  -15.780000000000001          1.0645491820083411E-018
  -15.719999999999999          1.2153471942718273E-018
  -15.660000000000004          1.3867698747415867E-018
  -15.600000000000001          1.5815320011292821E-018
  -15.539999999999999          1.8026905124084015E-018
  -15.480000000000004          2.0536865066595392E-018
  -15.420000000000002          2.3383905779013185E-018
  -15.359999999999999          2.6611542782676235E-018