  -48.000000000000000          0.0000000000000000     
  -47.939999999999998          0.0000000000000000     
  -47.880000000000003          0.0000000000000000     
  -47.820000000000000          0.0000000000000000     
  -47.759999999999998          0.0000000000000000     
  -47.700000000000003          0.0000000000000000     
  -47.640000000000001          0.0000000000000000     
  -47.579999999999998          0.0000000000000000     
  -47.520000000000003          0.0000000000000000     
  -47.460000000000001          0.0000000000000000     
  -47.399999999999999          0.0000000000000000     
  -47.340000000000003          0.0000000000000000     
  -47.280000000000001          0.0000000000000000     
  -47.219999999999999          0.0000000000000000     
  -47.159999999999997          0.0000000000000000     
  -47.100000000000001          0.0000000000000000     
  -47.039999999999999          0.0000000000000000     
  -46.979999999999997          0.0000000000000000     
  -46.920000000000002          0.0000000000000000     
  -46.859999999999999          0.0000000000000000     
  -46.799999999999997          0.0000000000000000     
  -46.740000000000002          0.0000000000000000     
  -46.680000000000000          0.0000000000000000     
  -46.619999999999997          0.0000000000000000     
  -46.560000000000002          0.0000000000000000     
  -46.500000000000000          0.0000000000000000     
  -46.439999999999998          0.0000000000000000     
  -46.380000000000003          0.0000000000000000     
  -46.320000000000000          0.0000000000000000     
  -46.259999999999998          0.0000000000000000     
  -46.200000000000003          0.0000000000000000     
  -46.140000000000001          0.0000000000000000     
  -46.079999999999998          0.0000000000000000     
  -46.020000000000003          0.0000000000000000     
  -45.960000000000001          0.0000000000000000     
  -45.899999999999999          0.0000000000000000     
  -45.840000000000003          0.0000000000000000     
  -45.780000000000001          0.0000000000000000     
  -45.719999999999999          0.0000000000000000     
  -45.659999999999997          0.0000000000000000     
  -45.600000000000001          0.0000000000000000     
  -45.539999999999999          0.0000000000000000     
  -45.479999999999997          0.0000000000000000     
  -45.420000000000002          0.0000000000000000     
  -45.359999999999999          0.0000000000000000     
  -45.299999999999997          0.0000000000000000     
  -45.240000000000002          0.0000000000000000     
  -45.180000000000000          0.0000000000000000     
  -45.119999999999997          0.0000000000000000     
  -45.060000000000002          0.0000000000000000     
  -45.000000000000000          0.0000000000000000     
  -44.939999999999998          0.0000000000000000     
  -44.880000000000003          0.0000000000000000     
  -44.820000000000000          0.0000000000000000     
  -44.759999999999998          0.0000000000000000     
  -44.700000000000003          0.0000000000000000     
  -44.640000000000001          0.0000000000000000     
  -44.579999999999998          0.0000000000000000     
  -44.520000000000003          0.0000000000000000     
  -44.460000000000001          0.0000000000000000     
  -44.399999999999999          0.0000000000000000     
  -44.340000000000003          0.0000000000000000     
  -44.280000000000001          0.0000000000000000     
  -44.219999999999999          0.0000000000000000     
  -44.159999999999997          0.0000000000000000     
  -44.100000000000001          0.0000000000000000     
  -44.039999999999999          0.0000000000000000     
  -43.980000000000004          0.0000000000000000     
  -43.920000000000002          0.0000000000000000     
  -43.859999999999999          0.0000000000000000     
  -43.799999999999997          0.0000000000000000     
  -43.740000000000002          0.0000000000000000     
  -43.680000000000000          0.0000000000000000     
  -43.619999999999997          0.0000000000000000     
  -43.560000000000002          0.0000000000000000     
  -43.500000000000000          0.0000000000000000     
  -43.439999999999998          0.0000000000000000     
  -43.380000000000003          0.0000000000000000     
  -43.320000000000000          0.0000000000000000     
  -43.259999999999998          0.0000000000000000     
  -43.200000000000003          0.0000000000000000     
  -43.140000000000001          0.0000000000000000     
  -43.079999999999998          0.0000000000000000     
  -43.020000000000003          0.0000000000000000     
  -42.960000000000001          0.0000000000000000     
  -42.899999999999999          0.0000000000000000     
  -42.840000000000003          0.0000000000000000     
  -42.780000000000001          0.0000000000000000     
  -42.719999999999999          0.0000000000000000     
  -42.659999999999997          0.0000000000000000     
  -42.600000000000001          0.0000000000000000     
  -42.539999999999999          0.0000000000000000     
  -42.480000000000004          0.0000000000000000     
  -42.420000000000002          0.0000000000000000     
  -42.359999999999999          0.0000000000000000     
  -42.299999999999997          0.0000000000000000     
  -42.240000000000002          0.0000000000000000     
  -42.180000000000000          0.0000000000000000     
  -42.119999999999997          0.0000000000000000     
  -42.060000000000002          0.0000000000000000     
  -42.000000000000000          0.0000000000000000     
  -41.939999999999998          0.0000000000000000     
  -41.880000000000003          0.0000000000000000     
  -41.820000000000000          0.0000000000000000     
  -41.759999999999998          0.0000000000000000     
  -41.700000000000003          0.0000000000000000     
  -41.640000000000001          0.0000000000000000     
  -41.579999999999998          0.0000000000000000     
  -41.520000000000003          0.0000000000000000     
  -41.460000000000001          0.0000000000000000     
  -41.399999999999999          0.0000000000000000     
  -41.340000000000003          0.0000000000000000     
  -41.280000000000001          0.0000000000000000     
  -41.219999999999999          0.0000000000000000     
  -41.159999999999997          0.0000000000000000     
  -41.100000000000001          0.0000000000000000     
  -41.039999999999999          0.0000000000000000     
  -40.980000000000004          0.0000000000000000     
  -40.920000000000002          0.0000000000000000     
  -40.859999999999999          0.0000000000000000     
  -40.799999999999997          0.0000000000000000     
  -40.740000000000002          0.0000000000000000     
  -40.680000000000000          0.0000000000000000     
  -40.619999999999997          0.0000000000000000     
  -40.560000000000002          0.0000000000000000     
  -40.500000000000000          0.0000000000000000     
  -40.439999999999998          0.0000000000000000     
  -40.380000000000003          0.0000000000000000     
  -40.320000000000000          0.0000000000000000     
  -40.259999999999998          0.0000000000000000     
  -40.200000000000003          0.0000000000000000     
  -40.140000000000001          0.0000000000000000     
  -40.079999999999998          0.0000000000000000     
  -40.020000000000003          0.0000000000000000     
  -39.960000000000001          0.0000000000000000     
  -39.899999999999999          0.0000000000000000     
  -39.840000000000003          0.0000000000000000     
  -39.780000000000001          0.0000000000000000     
  -39.719999999999999          0.0000000000000000     
  -39.659999999999997          0.0000000000000000     
  -39.600000000000001          0.0000000000000000     
  -39.539999999999999          0.0000000000000000     
  -39.480000000000004          0.0000000000000000     
  -39.420000000000002          0.0000000000000000     
  -39.359999999999999          0.0000000000000000     
  -39.299999999999997          0.0000000000000000     
  -39.240000000000002          0.0000000000000000     
  -39.180000000000000          0.0000000000000000     
  -39.120000000000005          0.0000000000000000     
  -39.060000000000002          0.0000000000000000     
  -39.000000000000000          0.0000000000000000     
  -38.939999999999998          0.0000000000000000     
  -38.880000000000003          0.0000000000000000     
  -38.820000000000000          0.0000000000000000     
  -38.759999999999998          0.0000000000000000     
  -38.700000000000003          0.0000000000000000     
  -38.640000000000001          0.0000000000000000     
  -38.579999999999998          0.0000000000000000     
  -38.519999999999996          0.0000000000000000     
  -38.460000000000001          0.0000000000000000     
  -38.399999999999999          0.0000000000000000     
  -38.340000000000003          0.0000000000000000     
  -38.280000000000001          0.0000000000000000     
  -38.219999999999999          0.0000000000000000     
  -38.159999999999997          0.0000000000000000     
  -38.100000000000001          0.0000000000000000     
  -38.039999999999999          0.0000000000000000     
  -37.980000000000004          0.0000000000000000     
  -37.920000000000002          0.0000000000000000     
  -37.859999999999999          0.0000000000000000     
  -37.799999999999997          0.0000000000000000     
  -37.740000000000002          0.0000000000000000     
  -37.680000000000000          0.0000000000000000     
  -37.620000000000005          0.0000000000000000     
  -37.560000000000002          0.0000000000000000     
  -37.500000000000000          0.0000000000000000     
  -37.439999999999998          0.0000000000000000     
  -37.380000000000003          0.0000000000000000     
  -37.320000000000000          0.0000000000000000     
  -37.259999999999998          0.0000000000000000     
  -37.200000000000003          0.0000000000000000     
  -37.140000000000001          0.0000000000000000     
  -37.079999999999998          0.0000000000000000     
  -37.019999999999996          0.0000000000000000     
  -36.960000000000001          0.0000000000000000     
  -36.899999999999999          0.0000000000000000     
  -36.840000000000003          0.0000000000000000     
  -36.780000000000001          0.0000000000000000     
  -36.719999999999999          0.0000000000000000     
  -36.659999999999997          0.0000000000000000     
  -36.600000000000001          0.0000000000000000     
  -36.539999999999999          0.0000000000000000     
  -36.480000000000004          0.0000000000000000     
  -36.420000000000002          0.0000000000000000     
  -36.359999999999999          0.0000000000000000     
  -36.299999999999997          0.0000000000000000     
  -36.240000000000002          0.0000000000000000     
  -36.180000000000000          0.0000000000000000     
  -36.120000000000005          0.0000000000000000     
  -36.060000000000002          0.0000000000000000     
  -36.000000000000000          0.0000000000000000     
  -35.939999999999998          0.0000000000000000     
  -35.880000000000003          0.0000000000000000     
  -35.820000000000000          0.0000000000000000     
  -35.759999999999998          0.0000000000000000     
  -35.700000000000003          0.0000000000000000     
  -35.640000000000001          0.0000000000000000     
  -35.579999999999998          0.0000000000000000     
  -35.519999999999996          0.0000000000000000     
  -35.460000000000001          0.0000000000000000     
  -35.399999999999999          0.0000000000000000     
  -35.340000000000003          0.0000000000000000     
  -35.280000000000001          0.0000000000000000     
  -35.219999999999999          0.0000000000000000     
  -35.159999999999997          0.0000000000000000     
  -35.100000000000001          0.0000000000000000     
  -35.039999999999999          0.0000000000000000     
  -34.980000000000004          0.0000000000000000     
  -34.920000000000002          0.0000000000000000     
  -34.859999999999999          0.0000000000000000     
  -34.799999999999997          0.0000000000000000     
  -34.740000000000002          0.0000000000000000     
  -34.680000000000000          0.0000000000000000     
  -34.620000000000005          0.0000000000000000     
  -34.560000000000002          0.0000000000000000     
  -34.500000000000000          0.0000000000000000     
  -34.439999999999998          0.0000000000000000     
  -34.380000000000003          0.0000000000000000     
  -34.320000000000000          0.0000000000000000     
  -34.259999999999998          0.0000000000000000     
  -34.200000000000003          0.0000000000000000     
  -34.140000000000001          0.0000000000000000     
  -34.079999999999998          0.0000000000000000     
  -34.020000000000003          0.0000000000000000     
  -33.960000000000001          0.0000000000000000     
  -33.899999999999999          0.0000000000000000     
  -33.840000000000003          0.0000000000000000     
  -33.780000000000001          0.0000000000000000     
  -33.719999999999999          0.0000000000000000     
  -33.659999999999997          0.0000000000000000     
  -33.600000000000001          0.0000000000000000     
  -33.539999999999999          0.0000000000000000     
  -33.480000000000004          0.0000000000000000     
  -33.420000000000002          0.0000000000000000     
  -33.359999999999999          0.0000000000000000     
  -33.299999999999997          0.0000000000000000     
  -33.240000000000002          0.0000000000000000     
  -33.180000000000000          0.0000000000000000     
  -33.120000000000005          0.0000000000000000     
  -33.060000000000002          0.0000000000000000     
  -33.000000000000000          0.0000000000000000     
  -32.939999999999998          0.0000000000000000     
  -32.880000000000003          0.0000000000000000     
  -32.820000000000000          0.0000000000000000     
  -32.759999999999998          0.0000000000000000     
  -32.700000000000003          0.0000000000000000     
  -32.640000000000001          0.0000000000000000     
  -32.579999999999998          0.0000000000000000     
  -32.520000000000003          0.0000000000000000     
  -32.460000000000001          0.0000000000000000     
  -32.399999999999999          0.0000000000000000     
  -32.340000000000003          0.0000000000000000     
  -32.280000000000001          0.0000000000000000     
  -32.219999999999999          0.0000000000000000     
  -32.159999999999997          0.0000000000000000     
  -32.100000000000001          0.0000000000000000     
  -32.039999999999999          0.0000000000000000     
  -31.980000000000000          0.0000000000000000     
  -31.920000000000002          0.0000000000000000     
  -31.859999999999999          0.0000000000000000     
  -31.800000000000001          0.0000000000000000     
  -31.740000000000002          0.0000000000000000     
  -31.680000000000000          0.0000000000000000     
  -31.620000000000001          0.0000000000000000     
  -31.560000000000002          0.0000000000000000     
  -31.500000000000000          0.0000000000000000     
  -31.440000000000001          0.0000000000000000     
  -31.379999999999999          0.0000000000000000     
  -31.320000000000000          0.0000000000000000     
  -31.260000000000002          0.0000000000000000     
  -31.199999999999999          0.0000000000000000     
  -31.140000000000001          0.0000000000000000     
  -31.080000000000002          0.0000000000000000     
  -31.020000000000000          0.0000000000000000     
  -30.960000000000001          0.0000000000000000     
  -30.900000000000002          0.0000000000000000     
  -30.840000000000000          0.0000000000000000     
  -30.780000000000001          0.0000000000000000     
  -30.719999999999999          0.0000000000000000     
  -30.660000000000000          0.0000000000000000     
  -30.600000000000001          0.0000000000000000     
  -30.539999999999999          0.0000000000000000     
  -30.480000000000000          0.0000000000000000     
  -30.420000000000002          0.0000000000000000     
  -30.359999999999999          0.0000000000000000     
  -30.300000000000001          0.0000000000000000     
  -30.240000000000002          0.0000000000000000     
  -30.180000000000000          0.0000000000000000     
  -30.120000000000001          0.0000000000000000     
  -30.060000000000002          0.0000000000000000     
  -30.000000000000000          0.0000000000000000     
  -29.940000000000001          0.0000000000000000     
  -29.879999999999999          0.0000000000000000     
  -29.820000000000000          0.0000000000000000     
  -29.760000000000002          0.0000000000000000     
  -29.699999999999999          0.0000000000000000     
  -29.640000000000001          0.0000000000000000     
  -29.580000000000002          0.0000000000000000     
  -29.520000000000000          0.0000000000000000     
  -29.460000000000001          0.0000000000000000     
  -29.400000000000002          0.0000000000000000     
  -29.340000000000000          0.0000000000000000     
  -29.280000000000001          0.0000000000000000     
  -29.220000000000002          0.0000000000000000     
  -29.160000000000000          0.0000000000000000     
  -29.100000000000001          0.0000000000000000     
  -29.039999999999999          0.0000000000000000     
  -28.980000000000000          0.0000000000000000     
  -28.920000000000002          0.0000000000000000     
  -28.859999999999999          0.0000000000000000     
  -28.800000000000001         -1.7432853782063605E-039
  -28.740000000000002         -5.7540470653316138E-039
  -28.680000000000000         -1.2662499901617255E-038
  -28.620000000000001         -2.3229451778419247E-038
  -28.560000000000002         -3.8347581149581458E-038
  -28.500000000000000         -5.9078738756607520E-038
  -28.440000000000001         -8.3965723886277280E-038
  -28.379999999999999         -1.1377713194644728E-037
  -28.320000000000000         -1.4940380177458362E-037
  -28.260000000000002         -1.9194658586486581E-037
  -28.199999999999999         -2.3732748536574092E-037
  -28.140000000000001         -2.7315376485706649E-037
  -28.080000000000002         -2.8669440211750103E-037
  -28.020000000000000         -2.9177368674764546E-037
  -27.960000000000001         -2.6226652214225308E-037
  -27.900000000000002         -1.9430699390649451E-037
  -27.840000000000000         -8.2368490835949355E-038
  -27.780000000000001          4.1421597021031668E-038
  -27.720000000000002          1.7309761976611585E-037
  -27.660000000000000          3.0824542415899485E-037
  -27.600000000000001          4.4226421316657210E-037
  -27.539999999999999          5.7131846954652229E-037
  -27.480000000000000          6.9662463452049690E-037
  -27.420000000000002          7.7806142972138548E-037
  -27.359999999999999          9.2706575545282946E-037
  -27.300000000000001          1.0069960877935122E-036
  -27.240000000000002          1.0108639242765722E-036
  -27.180000000000000          9.2500407717292397E-037
  -27.120000000000001          7.4174907975071292E-037
  -27.060000000000002          5.2050283142308954E-037
  -27.000000000000000          2.6108478067576254E-037
  -26.940000000000001         -3.3242334486366294E-038
  -26.880000000000003         -3.6762598902602810E-037
  -26.820000000000000         -7.1886967457908174E-037
  -26.760000000000002         -1.0900186066637010E-036
  -26.699999999999999         -1.3789900596107532E-036
  -26.640000000000001         -1.5848325117187845E-036
  -26.580000000000002         -1.7604801789539005E-036
  -26.520000000000000         -1.9198058316533703E-036
  -26.460000000000001         -2.0640912566774005E-036
  -26.400000000000002         -2.2040751393507592E-036
  -26.340000000000000         -2.3540699567250982E-036
  -26.280000000000001         -2.5638951934468253E-036
  -26.220000000000002         -2.7247859280111343E-036
  -26.160000000000000         -3.0059573240488962E-036
  -26.100000000000001         -3.4477088585319499E-036
  -26.039999999999999         -4.0825339311637238E-036
  -25.980000000000000         -4.9495481975774350E-036
  -25.920000000000002         -6.0974357133111849E-036
  -25.859999999999999         -7.5547582073474499E-036
  -25.800000000000001         -9.4566133099706701E-036
  -25.740000000000002         -1.1908578094780671E-035
  -25.680000000000000         -1.5112531584335539E-035
  -25.620000000000001         -1.9226876178700370E-035
  -25.560000000000002         -2.4377296186343482E-035
  -25.500000000000000         -3.0779548822006354E-035
  -25.440000000000001         -3.8670335419553313E-035
  -25.380000000000003         -4.8352030275402745E-035
  -25.320000000000000         -6.0179610287176087E-035
  -25.260000000000002         -7.4535405380048861E-035
  -25.199999999999999         -9.1914987064130509E-035
  -25.140000000000001         -1.1293582200376571E-034
  -25.080000000000002         -1.3834319393794414E-034
  -25.020000000000000         -1.6905324767027427E-034
  -24.960000000000001         -2.0616887157573955E-034
  -24.900000000000002         -2.5103420429271408E-034
  -24.840000000000000         -3.0528253301284542E-034
  -24.780000000000001         -3.7089117434461897E-034
  -24.720000000000002         -4.5023115408373997E-034
  -24.660000000000000         -5.4614467892071552E-034
  -24.600000000000001         -6.6202973293361589E-034
  -24.539999999999999         -8.0197907860829223E-034
  -24.480000000000000         -9.7083914033416748E-034
  -24.420000000000002         -1.1743510990186211E-033
  -24.359999999999999         -1.4193246891938372E-033
  -24.300000000000001         -1.7138026906127384E-033
  -24.240000000000002         -2.0673023776275302E-033
  -24.180000000000000         -2.4910439913655425E-033
  -24.120000000000001         -2.9982379064232675E-033
  -24.060000000000002         -3.6044291742035482E-033
  -24.000000000000000         -4.3278599689809821E-033
  -23.940000000000001         -5.1899627328657301E-033
  -23.880000000000003         -6.2157723441829459E-033
  -23.820000000000000         -7.4346335143421383E-033
  -23.760000000000002         -8.8807341431754846E-033
  -23.699999999999999         -1.0593854053312975E-032
  -23.640000000000001         -1.2620192337509286E-032
  -23.580000000000002         -1.5013250294435577E-032
  -23.520000000000000         -1.7834672496380405E-032
  -23.460000000000001         -2.1155109427098458E-032
  -23.400000000000002         -2.5055648711382251E-032
  -23.340000000000000         -2.9628204351545854E-032
  -23.280000000000001         -3.4976792872389726E-032
  -23.220000000000002         -4.1218161133789125E-032
  -23.160000000000000         -4.8482285559287106E-032
  -23.100000000000001         -5.6912727227471248E-032
  -23.039999999999999         -6.6666147103344466E-032
  -22.980000000000000         -7.7912574459851954E-032
  -22.920000000000002         -9.0832365474334215E-032
  -22.859999999999999         -1.0561482552034014E-031
  -22.800000000000001         -1.2245028235926411E-031
  -22.740000000000002         -1.4152607083529568E-031
  -22.680000000000000         -1.6301625590752965E-031
  -22.620000000000001         -1.8706667311712874E-031
  -22.560000000000002         -2.1377856436187315E-031
  -22.500000000000000         -2.4317985161574939E-031
  -22.440000000000001         -2.7519438064429521E-031
  -22.380000000000003         -3.0959270592226536E-031
  -22.320000000000000         -3.4594553831172868E-031
  -22.260000000000002         -3.8353332541902254E-031
  -22.199999999999999         -4.2128650539155654E-031
  -22.140000000000001         -4.5762008553305167E-031
  -22.080000000000002         -4.9030951411422787E-031
  -22.020000000000000         -5.1626049613719102E-031
  -21.960000000000001         -5.3129201689318069E-031
  -21.900000000000002         -5.2978128967694534E-031
  -21.840000000000000         -5.0428973004550053E-031
  -21.780000000000001         -4.4506718718065401E-031
  -21.720000000000002         -3.3941883810063146E-031
  -21.660000000000000         -1.7086143623824104E-031
  -21.600000000000001          8.1657994463969140E-032
  -21.540000000000003          4.4524487272578822E-031
  -21.480000000000000          9.5447534600357140E-031
  -21.420000000000002          1.6531135277131926E-030
  -21.359999999999999          2.5967989984212580E-030
  -21.300000000000001          3.8553287006983484E-030
  -21.240000000000002          5.5165797165222055E-030
  -21.180000000000000          7.6903605264170292E-030
  -21.120000000000001          1.0513345095650170E-029
  -21.060000000000002          1.4155257232800606E-029
  -21.000000000000000          1.8825832944620624E-029
  -20.940000000000001          2.4783825590695004E-029
  -20.880000000000003          3.2347579821504924E-029
  -20.820000000000000          4.1909052187399917E-029
  -20.760000000000002          5.3949937604622503E-029
  -20.699999999999999          6.9061759854084417E-029
  -20.640000000000001          8.7972118768643848E-029
  -20.580000000000002          1.1157402436349689E-028
  -20.520000000000000          1.4096351769421842E-028
  -20.460000000000001          1.7748305658943476E-028
  -20.400000000000002          2.2277790359133078E-028
  -20.340000000000000          2.7885640622974631E-028
  -20.280000000000001          3.4816758228829651E-028
  -20.220000000000002          4.3368518891707273E-028
  -20.160000000000000          5.3901820509526313E-028
  -20.100000000000001          6.6852768054568576E-028
  -20.040000000000003          8.2748211001644676E-028
  -19.980000000000000          1.0222292697596028E-027
  -19.920000000000002          1.2604241256472196E-027
  -19.859999999999999          1.5512811485389276E-027
  -19.800000000000001          1.9058992476000813E-027
  -19.740000000000002          2.3376364718167279E-027
  -19.680000000000000          2.8625877068826581E-027
  -19.620000000000001          3.5001489459557209E-027
  -19.560000000000002          4.2736686658787269E-027
  -19.500000000000000          5.2112013147131863E-027
  -19.440000000000001          6.3464472663308135E-027
  -19.380000000000003          7.7197982693176383E-027
  -19.320000000000000          9.3796096204224769E-027
  -19.260000000000002          1.1383606672289125E-026
  -19.200000000000003          1.3800652864974903E-026
  -19.140000000000001          1.6712808564606122E-026
  -19.080000000000002          2.0217675473468084E-026
  -19.020000000000000          2.4431337686072760E-026
  -18.960000000000001          2.9491724477308608E-026
  -18.900000000000002          3.5563000224185259E-026
  -18.840000000000000          4.2840154203635909E-026
  -18.780000000000001          5.1555280523160276E-026
  -18.720000000000002          6.1984000921877184E-026
  -18.660000000000000          7.4454274475488674E-026
  -18.600000000000001          8.9355931728532836E-026
  -18.540000000000003          1.0715134014915633E-025
  -18.480000000000000          1.2838879520339021E-025
  -18.420000000000002          1.5371718541566794E-025
  -18.359999999999999          1.8390435759001512E-025
  -18.300000000000001          2.1985480466818696E-025
  -18.240000000000002          2.6263433365865465E-025
  -18.180000000000000          3.1349881781066531E-025
  -18.120000000000001          3.7392429136680561E-025
  -18.060000000000002          4.4564639933913837E-025
  -18.000000000000000          5.3070428852473657E-025
  -17.940000000000001          6.3149210439371293E-025
  -17.880000000000003          7.5082408942625818E-025
  -17.820000000000000          8.9200813427563537E-025
  -17.760000000000002          1.0589346560182620E-024
  -17.700000000000003          1.2561755652992568E-024
  -17.640000000000001          1.4891014497078529E-024
  -17.580000000000002          1.7640217152241399E-024
  -17.520000000000000          2.0883461500001346E-024
  -17.460000000000001          2.4707619652069901E-024
  -17.400000000000002          2.9214431621465410E-024
  -17.340000000000000          3.4523072790614470E-024
  -17.280000000000001          4.0772993641562731E-024
  -17.220000000000002          4.8126967653478771E-024
  -17.160000000000000          5.6775321264553870E-024
  -17.100000000000001          6.6939833940532352E-024
  -17.040000000000003          7.8879469375821675E-024
  -16.980000000000000          9.2895791772585748E-024
  -16.920000000000002          1.0933943818609627E-023
  -16.859999999999999          1.2861953668068842E-023
  -16.800000000000001          1.5121168273025298E-023
  -16.740000000000002          1.7766903050332381E-023
  -16.680000000000000          2.0863442726534554E-023
  -16.620000000000001          2.4485605354203774E-023
  -16.560000000000002          2.8720378083764409E-023
  -16.500000000000000          3.3668917944539619E-023
  -16.440000000000001          3.9448934619937581E-023
  -16.380000000000003          4.6197251016995146E-023
  -16.320000000000000          5.4073047278298714E-023
  -16.260000000000002          6.3261484605576868E-023
  -16.200000000000003          7.3977868895577313E-023
  -16.140000000000001          8.6472459483683812E-023
  -16.080000000000002          1.0103579913526452E-022
  -16.020000000000000          1.1800549612394664E-022
  -15.960000000000001          1.3777279982517649E-022
  -15.899999999999999          1.6079222125795950E-022
  -15.840000000000003          1.8759021198381826E-022
  -15.780000000000001          2.1877732566043134E-022
  -15.719999999999999          2.5506109881360157E-022
  -15.660000000000004          2.9726149354150620E-022
  -15.600000000000001          3.4633026159721860E-022
  -15.539999999999999          4.0337031823667973E-022
  -15.480000000000004          4.6966120555508347E-022
  -15.420000000000002          5.4668819700268633E-022
  -15.359999999999999          6.3617272286122587E-022