  -48.000000000000000          0.0000000000000000     
  -47.939999999999998          0.0000000000000000     
  -47.880000000000003          0.0000000000000000     
  -47.820000000000000          0.0000000000000000     
  -47.759999999999998          0.0000000000000000     
  -47.700000000000003          0.0000000000000000     
  -47.640000000000001          0.0000000000000000     
  -47.579999999999998          0.0000000000000000     
  -47.520000000000003          0.0000000000000000     
  -47.460000000000001          0.0000000000000000     
  -47.399999999999999          0.0000000000000000     
  -47.340000000000003          0.0000000000000000     
  -47.280000000000001          0.0000000000000000     
  -47.219999999999999          0.0000000000000000     
  -47.159999999999997          0.0000000000000000     
  -47.100000000000001          0.0000000000000000     
  -47.039999999999999          0.0000000000000000     
  -46.979999999999997          0.0000000000000000     
  -46.920000000000002          0.0000000000000000     
  -46.859999999999999          0.0000000000000000     
  -46.799999999999997          0.0000000000000000     
  -46.740000000000002          0.0000000000000000     
  -46.680000000000000          0.0000000000000000     
  -46.619999999999997          0.0000000000000000     
  -46.560000000000002          0.0000000000000000     
  -46.500000000000000          0.0000000000000000     
  -46.439999999999998          0.0000000000000000     
  -46.380000000000003          0.0000000000000000     
  -46.320000000000000          0.0000000000000000     
  -46.259999999999998          0.0000000000000000     
  -46.200000000000003          0.0000000000000000     
  -46.140000000000001          0.0000000000000000     
  -46.079999999999998          0.0000000000000000     
  -46.020000000000003          0.0000000000000000     
  -45.960000000000001          0.0000000000000000     
  -45.899999999999999          0.0000000000000000     
  -45.840000000000003          0.0000000000000000     
  -45.780000000000001          0.0000000000000000     
  -45.719999999999999          0.0000000000000000     
  -45.659999999999997          0.0000000000000000     
  -45.600000000000001          0.0000000000000000     
  -45.539999999999999          0.0000000000000000     
  -45.479999999999997          0.0000000000000000     
  -45.420000000000002          0.0000000000000000     
  -45.359999999999999          0.0000000000000000     
  -45.299999999999997          0.0000000000000000     
  -45.240000000000002          0.0000000000000000     
  -45.180000000000000          0.0000000000000000     
  -45.119999999999997          0.0000000000000000     
  -45.060000000000002          0.0000000000000000     
  -45.000000000000000          0.0000000000000000     
  -44.939999999999998          0.0000000000000000     
  -44.880000000000003          0.0000000000000000     
  -44.820000000000000          0.0000000000000000     
  -44.759999999999998          0.0000000000000000     
  -44.700000000000003          0.0000000000000000     
  -44.640000000000001          0.0000000000000000     
  -44.579999999999998          0.0000000000000000     
  -44.520000000000003          0.0000000000000000     
  -44.460000000000001          0.0000000000000000     
  -44.399999999999999          0.0000000000000000     
  -44.340000000000003          0.0000000000000000     
  -44.280000000000001          0.0000000000000000     
  -44.219999999999999          0.0000000000000000     
  -44.159999999999997          0.0000000000000000     
  -44.100000000000001          0.0000000000000000     
  -44.039999999999999          0.0000000000000000     
  -43.980000000000004          0.0000000000000000     
  -43.920000000000002          0.0000000000000000     
  -43.859999999999999          0.0000000000000000     
  -43.799999999999997          0.0000000000000000     
  -43.740000000000002          0.0000000000000000     
  -43.680000000000000          0.0000000000000000     
  -43.619999999999997          0.0000000000000000     
  -43.560000000000002          0.0000000000000000     
  -43.500000000000000          0.0000000000000000     
  -43.439999999999998          0.0000000000000000     
  -43.380000000000003          0.0000000000000000     
  -43.320000000000000          0.0000000000000000     
  -43.259999999999998          0.0000000000000000     
  -43.200000000000003          0.0000000000000000     
  -43.140000000000001          0.0000000000000000     
  -43.079999999999998          0.0000000000000000     
  -43.020000000000003          0.0000000000000000     
  -42.960000000000001          0.0000000000000000     
  -42.899999999999999          0.0000000000000000     
  -42.840000000000003          0.0000000000000000     
  -42.780000000000001          0.0000000000000000     
  -42.719999999999999          0.0000000000000000     
  -42.659999999999997          0.0000000000000000     
  -42.600000000000001          0.0000000000000000     
  -42.539999999999999          0.0000000000000000     
  -42.480000000000004          0.0000000000000000     
  -42.420000000000002          0.0000000000000000     
  -42.359999999999999          0.0000000000000000     
  -42.299999999999997          0.0000000000000000     
  -42.240000000000002          0.0000000000000000     
  -42.180000000000000          0.0000000000000000     
  -42.119999999999997          0.0000000000000000     
  -42.060000000000002          0.0000000000000000     
  -42.000000000000000          0.0000000000000000     
  -41.939999999999998          0.0000000000000000     
  -41.880000000000003          0.0000000000000000     
  -41.820000000000000          0.0000000000000000     
  -41.759999999999998          0.0000000000000000     
  -41.700000000000003          0.0000000000000000     
  -41.640000000000001          0.0000000000000000     
  -41.579999999999998          0.0000000000000000     
  -41.520000000000003          0.0000000000000000     
  -41.460000000000001          0.0000000000000000     
  -41.399999999999999          0.0000000000000000     
  -41.340000000000003          0.0000000000000000     
  -41.280000000000001          0.0000000000000000     
  -41.219999999999999          0.0000000000000000     
  -41.159999999999997          0.0000000000000000     
  -41.100000000000001          0.0000000000000000     
  -41.039999999999999          0.0000000000000000     
  -40.980000000000004          0.0000000000000000     
  -40.920000000000002          0.0000000000000000     
  -40.859999999999999          0.0000000000000000     
  -40.799999999999997          0.0000000000000000     
  -40.740000000000002          0.0000000000000000     
  -40.680000000000000          0.0000000000000000     
  -40.619999999999997          0.0000000000000000     
  -40.560000000000002          0.0000000000000000     
  -40.500000000000000          0.0000000000000000     
  -40.439999999999998          0.0000000000000000     
  -40.380000000000003          0.0000000000000000     
  -40.320000000000000          0.0000000000000000     
  -40.259999999999998          0.0000000000000000     
  -40.200000000000003          0.0000000000000000     
  -40.140000000000001          0.0000000000000000     
  -40.079999999999998          0.0000000000000000     
  -40.020000000000003          0.0000000000000000     
  -39.960000000000001          0.0000000000000000     
  -39.899999999999999          0.0000000000000000     
  -39.840000000000003          0.0000000000000000     
  -39.780000000000001          0.0000000000000000     
  -39.719999999999999          0.0000000000000000     
  -39.659999999999997          0.0000000000000000     
  -39.600000000000001          0.0000000000000000     
  -39.539999999999999          0.0000000000000000     
  -39.480000000000004          0.0000000000000000     
  -39.420000000000002          0.0000000000000000     
  -39.359999999999999          0.0000000000000000     
  -39.299999999999997          0.0000000000000000     
  -39.240000000000002          0.0000000000000000     
  -39.180000000000000          0.0000000000000000     
  -39.120000000000005          0.0000000000000000     
  -39.060000000000002          0.0000000000000000     
  -39.000000000000000          0.0000000000000000     
  -38.939999999999998          0.0000000000000000     
  -38.880000000000003          0.0000000000000000     
  -38.820000000000000          0.0000000000000000     
  -38.759999999999998          0.0000000000000000     
  -38.700000000000003          0.0000000000000000     
  -38.640000000000001          0.0000000000000000     
  -38.579999999999998          0.0000000000000000     
  -38.519999999999996          0.0000000000000000     
  -38.460000000000001          0.0000000000000000     
  -38.399999999999999          0.0000000000000000     
  -38.340000000000003          0.0000000000000000     
  -38.280000000000001          0.0000000000000000     
  -38.219999999999999          0.0000000000000000     
  -38.159999999999997          0.0000000000000000     
  -38.100000000000001          0.0000000000000000     
  -38.039999999999999          0.0000000000000000     
  -37.980000000000004          0.0000000000000000     
  -37.920000000000002          0.0000000000000000     
  -37.859999999999999          0.0000000000000000     
  -37.799999999999997          0.0000000000000000     
  -37.740000000000002          0.0000000000000000     
  -37.680000000000000          0.0000000000000000     
  -37.620000000000005          0.0000000000000000     
  -37.560000000000002          0.0000000000000000     
  -37.500000000000000          0.0000000000000000     
  -37.439999999999998          0.0000000000000000     
  -37.380000000000003          0.0000000000000000     
  -37.320000000000000          0.0000000000000000     
  -37.259999999999998          0.0000000000000000     
  -37.200000000000003          0.0000000000000000     
  -37.140000000000001          0.0000000000000000     
  -37.079999999999998          0.0000000000000000     
  -37.019999999999996          0.0000000000000000     
  -36.960000000000001          0.0000000000000000     
  -36.899999999999999          0.0000000000000000     
  -36.840000000000003          0.0000000000000000     
  -36.780000000000001          0.0000000000000000     
  -36.719999999999999          0.0000000000000000     
  -36.659999999999997          0.0000000000000000     
  -36.600000000000001          0.0000000000000000     
  -36.539999999999999          0.0000000000000000     
  -36.480000000000004          0.0000000000000000     
  -36.420000000000002          0.0000000000000000     
  -36.359999999999999          0.0000000000000000     
  -36.299999999999997          0.0000000000000000     
  -36.240000000000002          0.0000000000000000     
  -36.180000000000000          0.0000000000000000     
  -36.120000000000005          0.0000000000000000     
  -36.060000000000002          0.0000000000000000     
  -36.000000000000000          0.0000000000000000     
  -35.939999999999998          0.0000000000000000     
  -35.880000000000003          0.0000000000000000     
  -35.820000000000000          0.0000000000000000     
  -35.759999999999998          0.0000000000000000     
  -35.700000000000003          0.0000000000000000     
  -35.640000000000001          0.0000000000000000     
  -35.579999999999998          0.0000000000000000     
  -35.519999999999996          0.0000000000000000     
  -35.460000000000001          0.0000000000000000     
  -35.399999999999999          0.0000000000000000     
  -35.340000000000003          0.0000000000000000     
  -35.280000000000001          0.0000000000000000     
  -35.219999999999999          0.0000000000000000     
  -35.159999999999997          0.0000000000000000     
  -35.100000000000001          0.0000000000000000     
  -35.039999999999999          0.0000000000000000     
  -34.980000000000004          0.0000000000000000     
  -34.920000000000002          0.0000000000000000     
  -34.859999999999999          0.0000000000000000     
  -34.799999999999997          0.0000000000000000     
  -34.740000000000002          0.0000000000000000     
  -34.680000000000000          0.0000000000000000     
  -34.620000000000005          0.0000000000000000     
  -34.560000000000002          0.0000000000000000     
  -34.500000000000000          0.0000000000000000     
  -34.439999999999998          0.0000000000000000     
  -34.380000000000003          0.0000000000000000     
  -34.320000000000000          0.0000000000000000     
  -34.259999999999998          0.0000000000000000     
  -34.200000000000003          0.0000000000000000     
  -34.140000000000001          0.0000000000000000     
  -34.079999999999998          0.0000000000000000     
  -34.020000000000003          0.0000000000000000     
  -33.960000000000001          0.0000000000000000     
  -33.899999999999999          0.0000000000000000     
  -33.840000000000003          0.0000000000000000     
  -33.780000000000001          0.0000000000000000     
  -33.719999999999999          0.0000000000000000     
  -33.659999999999997          0.0000000000000000     
  -33.600000000000001          0.0000000000000000     
  -33.539999999999999          0.0000000000000000     
  -33.480000000000004          0.0000000000000000     
  -33.420000000000002          0.0000000000000000     
  -33.359999999999999          0.0000000000000000     
  -33.299999999999997          0.0000000000000000     
  -33.240000000000002          0.0000000000000000     
  -33.180000000000000          0.0000000000000000     
  -33.120000000000005          0.0000000000000000     
  -33.060000000000002          0.0000000000000000     
  -33.000000000000000          0.0000000000000000     
  -32.939999999999998          0.0000000000000000     
  -32.880000000000003          0.0000000000000000     
  -32.820000000000000          0.0000000000000000     
  -32.759999999999998          0.0000000000000000     
  -32.700000000000003          0.0000000000000000     
  -32.640000000000001          0.0000000000000000     
  -32.579999999999998          0.0000000000000000     
  -32.520000000000003          0.0000000000000000     
  -32.460000000000001          0.0000000000000000     
  -32.399999999999999          0.0000000000000000     
  -32.340000000000003          0.0000000000000000     
  -32.280000000000001          0.0000000000000000     
  -32.219999999999999          0.0000000000000000     
  -32.159999999999997          0.0000000000000000     
  -32.100000000000001          0.0000000000000000     
  -32.039999999999999          0.0000000000000000     
  -31.980000000000000          0.0000000000000000     
  -31.920000000000002          0.0000000000000000     
  -31.859999999999999          0.0000000000000000     
  -31.800000000000001          0.0000000000000000     
  -31.740000000000002          0.0000000000000000     
  -31.680000000000000          0.0000000000000000     
  -31.620000000000001          0.0000000000000000     
  -31.560000000000002          0.0000000000000000     
  -31.500000000000000          0.0000000000000000     
  -31.440000000000001          0.0000000000000000     
  -31.379999999999999          0.0000000000000000     
  -31.320000000000000          0.0000000000000000     
  -31.260000000000002          0.0000000000000000     
  -31.199999999999999          0.0000000000000000     
  -31.140000000000001          0.0000000000000000     
  -31.080000000000002          0.0000000000000000     
  -31.020000000000000          0.0000000000000000     
  -30.960000000000001          0.0000000000000000     
  -30.900000000000002          0.0000000000000000     
  -30.840000000000000          0.0000000000000000     
  -30.780000000000001          0.0000000000000000     
  -30.719999999999999          0.0000000000000000     
  -30.660000000000000          0.0000000000000000     
  -30.600000000000001          0.0000000000000000     
  -30.539999999999999          0.0000000000000000     
  -30.480000000000000          0.0000000000000000     
  -30.420000000000002          0.0000000000000000     
  -30.359999999999999          0.0000000000000000     
  -30.300000000000001          0.0000000000000000     
  -30.240000000000002          0.0000000000000000     
  -30.180000000000000          0.0000000000000000     
  -30.120000000000001          0.0000000000000000     
  -30.060000000000002          0.0000000000000000     
  -30.000000000000000          0.0000000000000000     
  -29.940000000000001          0.0000000000000000     
  -29.879999999999999          0.0000000000000000     
  -29.820000000000000         -3.5793935526240050E-041
  -29.760000000000002         -1.1852175180720939E-040
  -29.699999999999999         -3.0043781884646675E-040
  -29.640000000000001         -6.1129054115928737E-040
  -29.580000000000002         -1.0852577357532378E-039
  -29.520000000000000         -1.6620556100108745E-039
  -29.460000000000001         -2.2654981264306991E-039
  -29.400000000000002         -2.9020505316887218E-039
  -29.340000000000000         -3.5810037726287835E-039
  -29.280000000000001         -4.2300112535903200E-039
  -29.220000000000002         -4.8457092214302812E-039
  -29.160000000000000         -5.2379105754620386E-039
  -29.100000000000001         -5.6726982485050193E-039
  -29.039999999999999         -5.7419953602668692E-039
  -28.980000000000000         -5.4262779287101915E-039
  -28.920000000000002         -4.7590375387208255E-039
  -28.859999999999999         -3.7592361533638977E-039
  -28.800000000000001         -2.5865116313274180E-039
  -28.740000000000002         -1.4504656932218530E-039
  -28.680000000000000         -6.0425954018183596E-040
  -28.620000000000001         -3.3847050352301199E-040
  -28.560000000000002         -7.8727557728663331E-040
  -28.500000000000000         -2.2581289662019214E-039
  -28.440000000000001         -4.5504698302522739E-039
  -28.379999999999999         -8.1467598047100949E-039
  -28.320000000000000         -1.3499242607072261E-038
  -28.260000000000002         -1.9246994252619642E-038
  -28.199999999999999         -2.7037214481907658E-038
  -28.140000000000001         -3.5631655412418870E-038
  -28.080000000000002         -4.5072447904033745E-038
  -28.020000000000000         -5.6068837503540106E-038
  -27.960000000000001         -6.9097177074080915E-038
  -27.900000000000002         -8.3131538308123859E-038
  -27.840000000000000         -9.9027560459473553E-038
  -27.780000000000001         -1.1777405091412478E-037
  -27.720000000000002         -1.3443275766545916E-037
  -27.660000000000000         -1.4875960246081305E-037
  -27.600000000000001         -1.6462301433047056E-037
  -27.539999999999999         -1.8145140664745877E-037
  -27.480000000000000         -2.1323451998670689E-037
  -27.420000000000002         -2.6771283478606987E-037
  -27.359999999999999         -3.4994683592380847E-037
  -27.300000000000001         -4.7850006812715184E-037
  -27.240000000000002         -6.5768523694237084E-037
  -27.180000000000000         -8.9774961778773370E-037
  -27.120000000000001         -1.2123225661520702E-036
  -27.060000000000002         -1.6169251490318266E-036
  -27.000000000000000         -2.1306565902233587E-036
  -26.940000000000001         -2.7760449927919914E-036
  -26.880000000000003         -3.5869537583973700E-036
  -26.820000000000000         -4.5965164586700260E-036
  -26.760000000000002         -5.8643228721314616E-036
  -26.699999999999999         -7.3958215853881688E-036
  -26.640000000000001         -9.2533799949707287E-036
  -26.580000000000002         -1.1506070177628707E-035
  -26.520000000000000         -1.4298724021895333E-035
  -26.460000000000001         -1.7757459530949299E-035
  -26.400000000000002         -2.2173578148409332E-035
  -26.340000000000000         -2.7795709859264912E-035
  -26.280000000000001         -3.4890455517686791E-035
  -26.220000000000002         -4.3798960291683059E-035
  -26.160000000000000         -5.4969353905848355E-035
  -26.100000000000001         -6.8957908898863139E-035
  -26.039999999999999         -8.6508623022798077E-035
  -25.980000000000000         -1.0848504660550573E-034
  -25.920000000000002         -1.3581303009628953E-034
  -25.859999999999999         -1.6976762019922155E-034
  -25.800000000000001         -2.1194076513719032E-034
  -25.740000000000002         -2.6429508117520115E-034
  -25.680000000000000         -3.2923268625439971E-034
  -25.620000000000001         -4.0970877901340133E-034
  -25.560000000000002         -5.0944233952032073E-034
  -25.500000000000000         -6.3282635231102852E-034
  -25.440000000000001         -7.8538841174705450E-034
  -25.380000000000003         -9.7388380525244462E-034
  -25.320000000000000         -1.2066692018349962E-033
  -25.260000000000002         -1.4940362282732892E-033
  -25.199999999999999         -1.8485895738638994E-033
  -25.140000000000001         -2.2858716446931413E-033
  -25.080000000000002         -2.8249936561640812E-033
  -25.020000000000000         -3.4894191937330694E-033
  -24.960000000000001         -4.3079350534097703E-033
  -24.900000000000002         -5.3158436089173336E-033
  -24.840000000000000         -6.5563312752451942E-033
  -24.780000000000001         -8.0823725066175231E-033
  -24.720000000000002         -9.9588327629769553E-033
  -24.660000000000000         -1.2265056907369305E-032
  -24.600000000000001         -1.5098071054908409E-032
  -24.539999999999999         -1.8576435259554753E-032
  -24.480000000000000         -2.2844960159354246E-032
  -24.420000000000002         -2.8080446093082441E-032
  -24.359999999999999         -3.4498611764883012E-032
  -24.300000000000001         -4.2362505183070020E-032
  -24.240000000000002         -5.1992744426025880E-032
  -24.180000000000000         -6.3779861596886525E-032
  -24.120000000000001         -7.8199376974368637E-032
  -24.060000000000002         -9.5829898984791894E-032
  -24.000000000000000         -1.1737513018936904E-031
  -23.940000000000001         -1.4369056052142865E-031
  -23.880000000000003         -1.7581543472914715E-031
  -23.820000000000000         -2.1501175460077812E-031
  -23.760000000000002         -2.6281102370804567E-031
  -23.699999999999999         -3.2107084479359806E-031
  -23.640000000000001         -3.9204331156460097E-031
  -23.580000000000002         -4.7845697479407936E-031
  -23.520000000000000         -5.8361642578947894E-031
  -23.460000000000001         -7.1152109437118810E-031
  -23.400000000000002         -8.6700898719781110E-031
  -23.340000000000000         -1.0559291441476343E-030
  -23.280000000000001         -1.2853494631275740E-030
  -23.220000000000002         -1.5638052587503517E-030
  -23.160000000000000         -1.9015996047342937E-030
  -23.100000000000001         -2.3111614053189783E-030
  -23.039999999999999         -2.8074777573273451E-030
  -22.980000000000000         -3.4086081833123478E-030
  -22.920000000000002         -4.1363045462623098E-030
  -22.859999999999999         -5.0167526725482859E-030
  -22.800000000000001         -6.0814573176124787E-030
  -22.740000000000002         -7.3683005433329490E-030
  -22.680000000000000         -8.9228163540192613E-030
  -22.620000000000001         -1.0799692559909861E-029
  -22.560000000000002         -1.3064585348401302E-029
  -22.500000000000000         -1.5796266194871656E-029
  -22.440000000000001         -1.9089199581371920E-029
  -22.380000000000003         -2.3056593108720626E-029
  -22.320000000000000         -2.7834066285581131E-029
  -22.260000000000002         -3.3583982909578792E-029
  -22.199999999999999         -4.0500610828828891E-029
  -22.140000000000001         -4.8816299384043954E-029
  -22.080000000000002         -5.8808732051355449E-029
  -22.020000000000000         -7.0809619406446540E-029
  -21.960000000000001         -8.5215046025907254E-029
  -21.900000000000002         -1.0249759077922780E-028
  -21.840000000000000         -1.2322095545403364E-028
  -21.780000000000001         -1.4805704396973997E-028
  -21.720000000000002         -1.7780632324683114E-028
  -21.660000000000000         -2.1342184601973584E-028
  -21.600000000000001         -2.5603784139906823E-028
  -21.540000000000003         -3.0700325175580314E-028
  -21.480000000000000         -3.6792143708607218E-028
  -21.420000000000002         -4.4069718257695300E-028
  -21.359999999999999         -5.2759222845813214E-028
  -21.300000000000001         -6.3129051369849119E-028
  -21.240000000000002         -7.5497545397600271E-028
  -21.180000000000000         -9.0242055882234231E-028
  -21.120000000000001         -1.0780964018653112E-027
  -21.060000000000002         -1.2872965769944420E-027
  -21.000000000000000         -1.5362861712739142E-027
  -20.940000000000001         -1.8324755329903916E-027
  -20.880000000000003         -2.1846245361781495E-027
  -20.820000000000000         -2.6030819090732371E-027
  -20.760000000000002         -3.1000690244772065E-027
  -20.699999999999999         -3.6900078212446775E-027
  -20.640000000000001         -4.3899093993424729E-027
  -20.580000000000002         -5.2198255057838230E-027
  -20.520000000000000         -6.2033806921430468E-027
  -20.460000000000001         -7.3683936224893465E-027
  -20.400000000000002         -8.7476016294439360E-027
  -20.340000000000000         -1.0379509470550928E-026
  -20.280000000000001         -1.2309377777559863E-026
  -20.220000000000002         -1.4590380247746402E-026
  -20.160000000000000         -1.7284957410696968E-026
  -20.100000000000001         -2.0466391686031698E-026
  -20.040000000000003         -2.4220630567643281E-026
  -19.980000000000000         -2.8648433760068150E-026
  -19.920000000000002         -3.3867851827199488E-026
  -19.859999999999999         -4.0017118881458849E-026
  -19.800000000000001         -4.7258016091196704E-026
  -19.740000000000002         -5.5779754706850429E-026
  -19.680000000000000         -6.5803516961137098E-026
  -19.620000000000001         -7.7587732611965512E-026
  -19.560000000000002         -9.1434129859800080E-026
  -19.500000000000000         -1.0769481375027710E-025
  -19.440000000000001         -1.2678042085284047E-025
  -19.380000000000003         -1.4916964686515723E-025
  -19.320000000000000         -1.7542018115292952E-025
  -19.260000000000002         -2.0618129740747486E-025
  -19.200000000000003         -2.4220856289010449E-025
  -19.140000000000001         -2.8438074058713692E-025
  -19.080000000000002         -3.3371950544897367E-025
  -19.020000000000000         -3.9141165592811690E-025
  -18.960000000000001         -4.5883515768377909E-025
  -18.900000000000002         -5.3758910438242775E-025
  -18.840000000000000         -6.2952788432887361E-025
  -18.780000000000001         -7.3680106174222656E-025
  -18.720000000000002         -8.6189865224963550E-025
  -18.660000000000000         -1.0077034805517105E-024
  -18.600000000000001         -1.1775513165322372E-024
  -18.540000000000003         -1.3753005345252010E-024
  -18.480000000000000         -1.6054106110533268E-024
  -18.420000000000002         -1.8730332853347912E-024
  -18.359999999999999         -2.1841171130841123E-024
  -18.300000000000001         -2.5455266230920948E-024
  -18.240000000000002         -2.9651780422656294E-024
  -18.180000000000000         -3.4521967574175096E-024
  -18.120000000000001         -4.0170933795679151E-024
  -18.060000000000002         -4.6719707858184727E-024
  -18.000000000000000         -5.4307534696010827E-024
  -17.940000000000001         -6.3094565347374224E-024
  -17.880000000000003         -7.3264836867478210E-024
  -17.820000000000000         -8.5029767225245436E-024
  -17.760000000000002         -9.8632038561571824E-024
  -17.700000000000003         -1.1435013815014084E-023
  -17.640000000000001         -1.3250347218647562E-023
  -17.580000000000002         -1.5345809567608425E-023
  -17.520000000000000         -1.7763340101623323E-023
  -17.460000000000001         -2.0550961330711960E-023
  -17.400000000000002         -2.3763636275977808E-023
  -17.340000000000000         -2.7464231610654185E-023
  -17.280000000000001         -3.1724626517598332E-023
  -17.220000000000002         -3.6626959497314387E-023
  -17.160000000000000         -4.2265012158907995E-023
  -17.100000000000001         -4.8745822163415584E-023
  -17.040000000000003         -5.6191489860989504E-023
  -16.980000000000000         -6.4741216440825169E-023
  -16.920000000000002         -7.4553603428222299E-023
  -16.859999999999999         -8.5809250420634999E-023
  -16.800000000000001         -9.8713699706309369E-023
  -16.740000000000002         -1.1350077939888876E-022
  -16.680000000000000         -1.3043637728083279E-022
  -16.620000000000001         -1.4982272148130649E-022
  -16.560000000000002         -1.7200316834816559E-022
  -16.500000000000000         -1.9736765134083600E-022
  -16.440000000000001         -2.2635882957043727E-022
  -16.380000000000003         -2.5947894831331417E-022
  -16.320000000000000         -2.9729760188463865E-022
  -16.260000000000002         -3.4046047450206998E-022
  -16.200000000000003         -3.8969922150645596E-022
  -16.140000000000001         -4.4584220128166613E-022
  -16.080000000000002         -5.0982727321714548E-022
  -16.020000000000000         -5.8271528463160417E-022
  -15.960000000000001         -6.6570588292626297E-022
  -15.899999999999999         -7.6015555801065779E-022
  -15.840000000000003         -8.6759661549803606E-022
  -15.780000000000001         -9.8976068362218562E-022
  -15.719999999999999         -1.1286033132876966E-021
  -15.660000000000004         -1.2863322979046784E-021
  -15.600000000000001         -1.4654399276378333E-021
  -15.539999999999999         -1.6687385607246593E-021
  -15.480000000000004         -1.8994017577953084E-021
  -15.420000000000002         -2.1610084779440311E-021
  -15.359999999999999         -2.4575947198445079E-021