  -48.000000000000000          0.0000000000000000     
  -47.939999999999998          0.0000000000000000     
  -47.880000000000003          0.0000000000000000     
  -47.820000000000000          0.0000000000000000     
  -47.759999999999998          0.0000000000000000     
  -47.700000000000003          0.0000000000000000     
  -47.640000000000001          0.0000000000000000     
  -47.579999999999998          0.0000000000000000     
  -47.520000000000003          0.0000000000000000     
  -47.460000000000001          0.0000000000000000     
  -47.399999999999999          0.0000000000000000     
  -47.340000000000003          0.0000000000000000     
  -47.280000000000001          0.0000000000000000     
  -47.219999999999999          0.0000000000000000     
  -47.159999999999997          0.0000000000000000     
  -47.100000000000001          0.0000000000000000     
  -47.039999999999999          0.0000000000000000     
  -46.979999999999997          0.0000000000000000     
  -46.920000000000002          0.0000000000000000     
  -46.859999999999999          0.0000000000000000     
  -46.799999999999997          0.0000000000000000     
  -46.740000000000002          0.0000000000000000     
  -46.680000000000000          0.0000000000000000     
  -46.619999999999997          0.0000000000000000     
  -46.560000000000002          0.0000000000000000     
  -46.500000000000000          0.0000000000000000     
  -46.439999999999998          0.0000000000000000     
  -46.380000000000003          0.0000000000000000     
  -46.320000000000000          0.0000000000000000     
  -46.259999999999998          0.0000000000000000     
  -46.200000000000003          0.0000000000000000     
  -46.140000000000001          0.0000000000000000     
  -46.079999999999998          0.0000000000000000     
  -46.020000000000003          0.0000000000000000     
  -45.960000000000001          0.0000000000000000     
  -45.899999999999999          0.0000000000000000     
  -45.840000000000003          0.0000000000000000     
  -45.780000000000001          0.0000000000000000     
  -45.719999999999999          0.0000000000000000     
  -45.659999999999997          0.0000000000000000     
  -45.600000000000001          0.0000000000000000     
  -45.539999999999999          0.0000000000000000     
  -45.479999999999997          0.0000000000000000     
  -45.420000000000002          0.0000000000000000     
  -45.359999999999999          0.0000000000000000     
  -45.299999999999997          0.0000000000000000     
  -45.240000000000002          0.0000000000000000     
  -45.180000000000000          0.0000000000000000     
  -45.119999999999997          0.0000000000000000     
  -45.060000000000002          0.0000000000000000     
  -45.000000000000000          0.0000000000000000     
  -44.939999999999998          0.0000000000000000     
  -44.880000000000003          0.0000000000000000     
  -44.820000000000000          0.0000000000000000     
  -44.759999999999998          0.0000000000000000     
  -44.700000000000003          0.0000000000000000     
  -44.640000000000001          0.0000000000000000     
  -44.579999999999998          0.0000000000000000     
  -44.520000000000003          0.0000000000000000     
  -44.460000000000001          0.0000000000000000     
  -44.399999999999999          0.0000000000000000     
  -44.340000000000003          0.0000000000000000     
  -44.280000000000001          0.0000000000000000     
  -44.219999999999999          0.0000000000000000     
  -44.159999999999997          0.0000000000000000     
  -44.100000000000001          0.0000000000000000     
  -44.039999999999999          0.0000000000000000     
  -43.980000000000004          0.0000000000000000     
  -43.920000000000002          0.0000000000000000     
  -43.859999999999999          0.0000000000000000     
  -43.799999999999997          0.0000000000000000     
  -43.740000000000002          0.0000000000000000     
  -43.680000000000000          0.0000000000000000     
  -43.619999999999997          0.0000000000000000     
  -43.560000000000002          0.0000000000000000     
  -43.500000000000000          0.0000000000000000     
  -43.439999999999998          0.0000000000000000     
  -43.380000000000003          0.0000000000000000     
  -43.320000000000000          0.0000000000000000     
  -43.259999999999998          0.0000000000000000     
  -43.200000000000003          0.0000000000000000     
  -43.140000000000001          0.0000000000000000     
  -43.079999999999998          0.0000000000000000     
  -43.020000000000003          0.0000000000000000     
  -42.960000000000001          0.0000000000000000     
  -42.899999999999999          0.0000000000000000     
  -42.840000000000003          0.0000000000000000     
  -42.780000000000001          0.0000000000000000     
  -42.719999999999999          0.0000000000000000     
  -42.659999999999997          0.0000000000000000     
  -42.600000000000001          0.0000000000000000     
  -42.539999999999999          0.0000000000000000     
  -42.480000000000004          0.0000000000000000     
  -42.420000000000002          0.0000000000000000     
  -42.359999999999999          0.0000000000000000     
  -42.299999999999997          0.0000000000000000     
  -42.240000000000002          0.0000000000000000     
  -42.180000000000000          0.0000000000000000     
  -42.119999999999997          0.0000000000000000     
  -42.060000000000002          0.0000000000000000     
  -42.000000000000000          0.0000000000000000     
  -41.939999999999998          0.0000000000000000     
  -41.880000000000003          0.0000000000000000     
  -41.820000000000000          0.0000000000000000     
  -41.759999999999998          0.0000000000000000     
  -41.700000000000003          0.0000000000000000     
  -41.640000000000001          0.0000000000000000     
  -41.579999999999998          0.0000000000000000     
  -41.520000000000003          0.0000000000000000     
  -41.460000000000001          0.0000000000000000     
  -41.399999999999999          0.0000000000000000     
  -41.340000000000003          0.0000000000000000     
  -41.280000000000001          0.0000000000000000     
  -41.219999999999999          0.0000000000000000     
  -41.159999999999997          0.0000000000000000     
  -41.100000000000001          0.0000000000000000     
  -41.039999999999999          0.0000000000000000     
  -40.980000000000004          0.0000000000000000     
  -40.920000000000002          0.0000000000000000     
  -40.859999999999999          0.0000000000000000     
  -40.799999999999997          0.0000000000000000     
  -40.740000000000002          0.0000000000000000     
  -40.680000000000000          0.0000000000000000     
  -40.619999999999997          0.0000000000000000     
  -40.560000000000002          0.0000000000000000     
  -40.500000000000000          0.0000000000000000     
  -40.439999999999998          0.0000000000000000     
  -40.380000000000003          0.0000000000000000     
  -40.320000000000000          0.0000000000000000     
  -40.259999999999998          0.0000000000000000     
  -40.200000000000003          0.0000000000000000     
  -40.140000000000001          0.0000000000000000     
  -40.079999999999998          0.0000000000000000     
  -40.020000000000003          0.0000000000000000     
  -39.960000000000001          0.0000000000000000     
  -39.899999999999999          0.0000000000000000     
  -39.840000000000003          0.0000000000000000     
  -39.780000000000001          0.0000000000000000     
  -39.719999999999999          0.0000000000000000     
  -39.659999999999997          0.0000000000000000     
  -39.600000000000001          0.0000000000000000     
  -39.539999999999999          0.0000000000000000     
  -39.480000000000004          0.0000000000000000     
  -39.420000000000002          0.0000000000000000     
  -39.359999999999999          0.0000000000000000     
  -39.299999999999997          0.0000000000000000     
  -39.240000000000002          0.0000000000000000     
  -39.180000000000000          0.0000000000000000     
  -39.120000000000005          0.0000000000000000     
  -39.060000000000002          0.0000000000000000     
  -39.000000000000000          0.0000000000000000     
  -38.939999999999998          0.0000000000000000     
  -38.880000000000003          0.0000000000000000     
  -38.820000000000000          0.0000000000000000     
  -38.759999999999998          0.0000000000000000     
  -38.700000000000003          0.0000000000000000     
  -38.640000000000001          0.0000000000000000     
  -38.579999999999998          0.0000000000000000     
  -38.519999999999996          0.0000000000000000     
  -38.460000000000001          0.0000000000000000     
  -38.399999999999999          0.0000000000000000     
  -38.340000000000003          0.0000000000000000     
  -38.280000000000001          0.0000000000000000     
  -38.219999999999999          0.0000000000000000     
  -38.159999999999997          0.0000000000000000     
  -38.100000000000001          0.0000000000000000     
  -38.039999999999999          0.0000000000000000     
  -37.980000000000004          0.0000000000000000     
  -37.920000000000002          0.0000000000000000     
  -37.859999999999999          0.0000000000000000     
  -37.799999999999997          0.0000000000000000     
  -37.740000000000002          0.0000000000000000     
  -37.680000000000000          0.0000000000000000     
  -37.620000000000005          0.0000000000000000     
  -37.560000000000002          0.0000000000000000     
  -37.500000000000000          0.0000000000000000     
  -37.439999999999998          0.0000000000000000     
  -37.380000000000003          0.0000000000000000     
  -37.320000000000000          0.0000000000000000     
  -37.259999999999998          0.0000000000000000     
  -37.200000000000003          0.0000000000000000     
  -37.140000000000001          0.0000000000000000     
  -37.079999999999998          0.0000000000000000     
  -37.019999999999996          0.0000000000000000     
  -36.960000000000001          0.0000000000000000     
  -36.899999999999999          0.0000000000000000     
  -36.840000000000003          0.0000000000000000     
  -36.780000000000001          0.0000000000000000     
  -36.719999999999999          0.0000000000000000     
  -36.659999999999997          0.0000000000000000     
  -36.600000000000001          0.0000000000000000     
  -36.539999999999999          0.0000000000000000     
  -36.480000000000004          0.0000000000000000     
  -36.420000000000002          0.0000000000000000     
  -36.359999999999999          0.0000000000000000     
  -36.299999999999997          0.0000000000000000     
  -36.240000000000002          0.0000000000000000     
  -36.180000000000000          0.0000000000000000     
  -36.120000000000005          0.0000000000000000     
  -36.060000000000002          0.0000000000000000     
  -36.000000000000000          0.0000000000000000     
  -35.939999999999998          0.0000000000000000     
  -35.880000000000003          0.0000000000000000     
  -35.820000000000000          0.0000000000000000     
  -35.759999999999998          0.0000000000000000     
  -35.700000000000003          0.0000000000000000     
  -35.640000000000001          0.0000000000000000     
  -35.579999999999998          0.0000000000000000     
  -35.519999999999996          0.0000000000000000     
  -35.460000000000001          0.0000000000000000     
  -35.399999999999999          0.0000000000000000     
  -35.340000000000003          0.0000000000000000     
  -35.280000000000001          0.0000000000000000     
  -35.219999999999999          0.0000000000000000     
  -35.159999999999997          0.0000000000000000     
  -35.100000000000001          0.0000000000000000     
  -35.039999999999999          0.0000000000000000     
  -34.980000000000004          0.0000000000000000     
  -34.920000000000002          0.0000000000000000     
  -34.859999999999999          0.0000000000000000     
  -34.799999999999997          0.0000000000000000     
  -34.740000000000002          0.0000000000000000     
  -34.680000000000000          0.0000000000000000     
  -34.620000000000005          0.0000000000000000     
  -34.560000000000002          0.0000000000000000     
  -34.500000000000000          0.0000000000000000     
  -34.439999999999998          0.0000000000000000     
  -34.380000000000003          0.0000000000000000     
  -34.320000000000000          0.0000000000000000     
  -34.259999999999998          0.0000000000000000     
  -34.200000000000003          0.0000000000000000     
  -34.140000000000001          0.0000000000000000     
  -34.079999999999998          0.0000000000000000     
  -34.020000000000003          0.0000000000000000     
  -33.960000000000001          0.0000000000000000     
  -33.899999999999999          0.0000000000000000     
  -33.840000000000003          0.0000000000000000     
  -33.780000000000001          0.0000000000000000     
  -33.719999999999999          0.0000000000000000     
  -33.659999999999997          0.0000000000000000     
  -33.600000000000001          0.0000000000000000     
  -33.539999999999999          0.0000000000000000     
  -33.480000000000004          0.0000000000000000     
  -33.420000000000002          0.0000000000000000     
  -33.359999999999999          0.0000000000000000     
  -33.299999999999997          0.0000000000000000     
  -33.240000000000002          0.0000000000000000     
  -33.180000000000000          0.0000000000000000     
  -33.120000000000005          0.0000000000000000     
  -33.060000000000002          0.0000000000000000     
  -33.000000000000000          0.0000000000000000     
  -32.939999999999998          0.0000000000000000     
  -32.880000000000003          0.0000000000000000     
  -32.820000000000000          0.0000000000000000     
  -32.759999999999998          0.0000000000000000     
  -32.700000000000003          0.0000000000000000     
  -32.640000000000001          0.0000000000000000     
  -32.579999999999998          0.0000000000000000     
  -32.520000000000003          0.0000000000000000     
  -32.460000000000001          0.0000000000000000     
  -32.399999999999999          0.0000000000000000     
  -32.340000000000003          0.0000000000000000     
  -32.280000000000001          0.0000000000000000     
  -32.219999999999999          0.0000000000000000     
  -32.159999999999997          0.0000000000000000     
  -32.100000000000001          0.0000000000000000     
  -32.039999999999999          0.0000000000000000     
  -31.980000000000000          0.0000000000000000     
  -31.920000000000002          0.0000000000000000     
  -31.859999999999999          6.6675396519083192E-041
  -31.800000000000001          2.1805513788843815E-040
  -31.740000000000002          4.7626103580073771E-040
  -31.680000000000000          8.6878993706557115E-040
  -31.620000000000001          1.4316711942703832E-039
  -31.560000000000002          2.0423549840658326E-039
  -31.500000000000000          2.7111160615107636E-039
  -31.440000000000001          3.4533528357991386E-039
  -31.379999999999999          4.1007050696300370E-039
  -31.320000000000000          4.6347168966104856E-039
  -31.260000000000002          5.0368962237770895E-039
  -31.199999999999999          5.5733906806686401E-039
  -31.140000000000001          5.4912660808185255E-039
  -31.080000000000002          4.6694942277893017E-039
  -31.020000000000000          3.5930509274837102E-039
  -30.960000000000001          2.2870718629683150E-039
  -30.900000000000002          8.5502290708232742E-040
  -30.840000000000000         -1.1992201061595786E-039
  -30.780000000000001         -3.7965475339404667E-039
  -30.719999999999999         -7.4277743448262153E-039
  -30.660000000000000         -1.1098533184359967E-038
  -30.600000000000001         -1.6916029146952061E-038
  -30.539999999999999         -2.2837311532972215E-038
  -30.480000000000000         -2.7796113177065862E-038
  -30.420000000000002         -2.9534776109171303E-038
  -30.359999999999999         -2.6892118330795115E-038
  -30.300000000000001         -1.8685401270064136E-038
  -30.240000000000002         -7.7510774680351477E-039
  -30.180000000000000          6.9141512773224106E-039
  -30.120000000000001          2.6967847862254420E-038
  -30.060000000000002          4.6604849994861461E-038
  -30.000000000000000          7.5051212279239009E-038
  -29.940000000000001          1.1257497416561540E-037
  -29.879999999999999          1.5509643893171980E-037
  -29.820000000000000          2.2006678610159069E-037
  -29.760000000000002          2.9724489593764683E-037
  -29.699999999999999          3.8975730712347719E-037
  -29.640000000000001          4.9139319674934673E-037
  -29.580000000000002          6.1158483740433504E-037
  -29.520000000000000          7.4182288539780483E-037
  -29.460000000000001          8.9286036668463964E-037
  -29.400000000000002          1.0807565946730384E-036
  -29.340000000000000          1.3256305131043026E-036
  -29.280000000000001          1.6440327157442525E-036
  -29.220000000000002          2.0724277065760267E-036
  -29.160000000000000          2.6497037886792476E-036
  -29.100000000000001          3.4167277976127860E-036
  -29.039999999999999          4.4546099965293574E-036
  -28.980000000000000          5.8121055019715122E-036
  -28.920000000000002          7.5907280162493826E-036
  -28.859999999999999          9.8886167490703196E-036
  -28.800000000000001          1.2832185138781454E-035
  -28.740000000000002          1.6579372421788907E-035
  -28.680000000000000          2.1317427905878156E-035
  -28.620000000000001          2.7295975559596131E-035
  -28.560000000000002          3.4933724235587563E-035
  -28.500000000000000          4.4581613120531840E-035
  -28.440000000000001          5.6834148418732926E-035
  -28.379999999999999          7.2361649890229908E-035
  -28.320000000000000          9.1879217250885505E-035
  -28.260000000000002          1.1653896513579564E-034
  -28.199999999999999          1.4759305998389918E-034
  -28.140000000000001          1.8675828063017856E-034
  -28.080000000000002          2.3619708167356573E-034
  -28.020000000000000          2.9873292014844898E-034
  -27.960000000000001          3.7782227639424050E-034
  -27.900000000000002          4.7786903114400386E-034
  -27.840000000000000          6.0436130820883949E-034
  -27.780000000000001          7.6412729499252208E-034
  -27.720000000000002          9.6576453525127437E-034
  -27.660000000000000          1.2201173410780376E-033
  -27.600000000000001          1.5406265351866227E-033
  -27.539999999999999          1.9443212672834867E-033
  -27.480000000000000          2.4524733281339167E-033
  -27.420000000000002          3.0918295097453952E-033
  -27.359999999999999          3.8959656784446842E-033
  -27.300000000000001          4.9068886756601924E-033
  -27.240000000000002          6.1771498981517262E-033
  -27.180000000000000          7.7724746244344395E-033
  -27.120000000000001          9.7750472786280734E-033
  -27.060000000000002          1.2287556402257807E-032
  -27.000000000000000          1.5438231588728327E-032
  -26.940000000000001          1.9387172109606903E-032
  -26.880000000000003          2.4334156207616389E-032
  -26.820000000000000          3.0528360745985850E-032
  -26.760000000000002          3.8280374901589675E-032
  -26.699999999999999          4.7977101448652046E-032
  -26.640000000000001          6.0100351504849312E-032
  -26.580000000000002          7.5249720750243643E-032
  -26.520000000000000          9.4171062955240122E-032
  -26.460000000000001          1.1779171316871266E-031
  -26.400000000000002          1.4726394114112156E-031
  -26.340000000000000          1.8401876287381144E-031
  -26.280000000000001          2.2983272490248175E-031
  -26.220000000000002          2.8690981069330041E-031
  -26.160000000000000          3.5798333726496306E-031
  -26.100000000000001          4.4644111780326029E-031
  -26.039999999999999          5.5647975938977985E-031
  -25.980000000000000          6.9329536214194061E-031
  -25.920000000000002          8.6331859298165953E-031
  -25.859999999999999          1.0745032654932584E-030
  -25.800000000000001          1.3366823179104778E-030
  -25.740000000000002          1.6620050728974022E-030
  -25.680000000000000          2.0654767057685694E-030
  -25.620000000000001          2.5656188661426849E-030
  -25.560000000000002          3.1852822092692594E-030
  -25.500000000000000          3.9526430528788276E-030
  -25.440000000000001          4.9024266975964495E-030
  -25.380000000000003          6.0774072735691432E-030
  -25.320000000000000          7.5302469301298935E-030
  -25.260000000000002          9.3257483114845099E-030
  -25.199999999999999          1.1543612500979756E-029
  -25.140000000000001          1.4281815729096661E-029
  -25.080000000000002          1.7660727929196056E-029
  -25.020000000000000          2.1828160150939070E-029
  -24.960000000000001          2.6965531328857534E-029
  -24.900000000000002          3.3295391277386270E-029
  -24.840000000000000          4.1090599918689795E-029
  -24.780000000000001          5.0685547006693679E-029
  -24.720000000000002          6.2489777958718238E-029
  -24.660000000000000          7.7004643276294220E-029
  -24.600000000000001          9.4843607971032130E-029
  -24.539999999999999          1.1675689986442630E-028
  -24.480000000000000          1.4366139584532398E-028
  -24.420000000000002          1.7667723548910394E-028
  -24.359999999999999          2.1717215528370342E-028
  -24.300000000000001          2.6681513157584563E-028
  -24.240000000000002          3.2764198594338841E-028
  -24.180000000000000          4.0213474302621504E-028
  -24.120000000000001          4.9331747942697024E-028
  -24.060000000000002          6.0487286259626697E-028
  -24.000000000000000          7.4128351137064858E-028
  -23.940000000000001          9.0800274195886540E-028
  -23.880000000000003          1.1116612843474083E-027
  -23.820000000000000          1.3603178188725876E-027
  -23.760000000000002          1.6637611393492442E-027
  -23.699999999999999          2.0338739971806481E-027
  -23.640000000000001          2.4850745668804323E-027
  -23.580000000000002          3.0348485140045849E-027
  -23.520000000000000          3.7043913905441651E-027
  -23.460000000000001          4.5193830788686859E-027
  -23.400000000000002          5.5109147851568732E-027
  -23.340000000000000          6.7166119623333205E-027
  -23.280000000000001          8.1819901504815491E-027
  -23.220000000000002          9.9620695232144484E-027
  -23.160000000000000          1.2123339202018273E-026
  -23.100000000000001          1.4746096824833354E-026
  -23.039999999999999          1.7927244287582979E-026
  -22.980000000000000          2.1783709261581523E-026
  -22.920000000000002          2.6456478705063171E-026
  -22.859999999999999          3.2115436863674298E-026
  -22.800000000000001          3.8965223289811718E-026
  -22.740000000000002          4.7252203523838873E-026
  -22.680000000000000          5.7272786904747062E-026
  -22.620000000000001          6.9383427638644921E-026
  -22.560000000000002          8.4012619297153463E-026
  -22.500000000000000          1.0167509128336459E-025
  -22.440000000000001          1.2298884815185643E-025
  -22.380000000000003          1.4869559657302990E-025
  -22.320000000000000          1.7968489055042739E-025
  -22.260000000000002          2.1702317046307098E-025
  -22.199999999999999          2.6198816470456275E-025
  -22.140000000000001          3.1610999371641906E-025
  -22.080000000000002          3.8122009710068375E-025
  -22.020000000000000          4.5950911421910912E-025
  -21.960000000000001          5.5359614898965954E-025
  -21.900000000000002          6.6661129318744461E-025
  -21.840000000000000          8.0229282708794946E-025
  -21.780000000000001          9.6510298779249014E-025
  -21.720000000000002          1.1603655690666273E-024
  -21.660000000000000          1.3944285908874704E-024
  -21.600000000000001          1.6748575162709950E-024
  -21.540000000000003          2.0106640713233767E-024
  -21.480000000000000          2.4125768345439323E-024
  -21.420000000000002          2.8933609809320668E-024
  -21.359999999999999          3.4681985205457402E-024
  -21.300000000000001          4.1551357703533053E-024
  -21.240000000000002          4.9756105689208116E-024
  -21.180000000000000          5.9550746575964171E-024
  -21.120000000000001          7.1237317887783947E-024
  -21.060000000000002          8.5174074477908117E-024
  -21.000000000000000          1.0178567955584116E-023
  -20.940000000000001          1.2157529080574239E-023
  -20.880000000000003          1.4513870984004925E-023
  -20.820000000000000          1.7318111504773918E-023
  -20.760000000000002          2.0653661231337847E-023
  -20.699999999999999          2.4619125050379378E-023
  -20.640000000000001          2.9331008428251960E-023
  -20.580000000000002          3.4926928175712022E-023
  -20.520000000000000          4.1569262282316555E-023
  -20.460000000000001          4.9449592884889768E-023
  -20.400000000000002          5.8793805016539151E-023
  -20.340000000000000          6.9868045913240868E-023
  -20.280000000000001          8.2985856320582457E-023
  -20.220000000000002          9.8516195134196436E-023
  -20.160000000000000          1.1689324116980771E-022
  -20.100000000000001          1.3862745421326776E-022
  -20.040000000000003          1.6431871248530431E-022
  -19.980000000000000          1.9467167549863419E-022
  -19.920000000000002          2.3051349935576443E-022
  -19.859999999999999          2.7281470103003165E-022
  -19.800000000000001          3.2271318766215224E-022
  -19.740000000000002          3.8154268559921376E-022
  -19.680000000000000          4.5086530616847557E-022
  -19.620000000000001          5.3250968429380879E-022
  -19.560000000000002          6.2861557043593171E-022
  -19.500000000000000          7.4168545690814281E-022
  -19.440000000000001          8.7464375963762690E-022
  -19.380000000000003          1.0309067572803663E-021
  -19.320000000000000          1.2144628036878189E-021
  -19.260000000000002          1.4299659118949124E-021
  -19.200000000000003          1.6828430953503609E-021
  -19.140000000000001          1.9794189215243452E-021
  -19.080000000000002          2.3270622215170539E-021
  -19.020000000000000          2.7343503061192290E-021
  -18.960000000000001          3.2112656493373532E-021
  -18.900000000000002          3.7694164125610560E-021
  -18.840000000000000          4.4222974488021436E-021
  -18.780000000000001          5.1855811747178610E-021
  -18.720000000000002          6.0774656220967425E-021
  -18.660000000000000          7.1190674115095349E-021
  -18.600000000000001          8.3348727590422154E-021
  -18.540000000000003          9.7532643181338880E-021
  -18.480000000000000          1.1407115574139976E-020
  -18.420000000000002          1.3334490594508779E-020
  -18.359999999999999          1.5579429757237984E-020
  -18.300000000000001          1.8192863978069355E-020
  -18.240000000000002          2.1233666383516027E-020
  -18.180000000000000          2.4769839016903754E-020
  -18.120000000000001          2.8879892724702695E-020
  -18.060000000000002          3.3654401880251724E-020
  -18.000000000000000          3.9197844168130592E-020
  -17.940000000000001          4.5630607414689658E-020
  -17.880000000000003          5.3091376697643206E-020
  -17.820000000000000          6.1739835944620254E-020
  -17.760000000000002          7.1759661617048731E-020
  -17.700000000000003          8.3362074387923622E-020
  -17.640000000000001          9.6789827983380359E-020
  -17.580000000000002          1.1232170798428500E-019
  -17.520000000000000          1.3027784897738777E-019
  -17.460000000000001          1.5102540041538351E-019
  -17.400000000000002          1.7498550126039773E-019
  -17.340000000000000          2.0264064769101084E-019
  -17.280000000000001          2.3454356324813529E-019
  -17.220000000000002          2.7132675990934939E-019
  -17.160000000000000          3.1371398407954521E-019
  -17.100000000000001          3.6253264844547545E-019
  -17.040000000000003          4.1872815978647630E-019
  -16.980000000000000          4.8338019835348788E-019
  -16.920000000000002          5.5772081393090006E-019
  -16.859999999999999          6.4315549313588171E-019
  -16.800000000000001          7.4128661056515318E-019
  -16.740000000000002          8.5393968919873176E-019
  -16.680000000000000          9.8319350606691197E-019
  -16.620000000000001          1.1314140652989064E-018
  -16.560000000000002          1.3012928335747722E-018
  -16.500000000000000          1.4958888053944263E-018
  -16.440000000000001          1.7186771671044296E-018
  -16.380000000000003          1.9736039276897095E-018
  -16.320000000000000          2.2651465350087410E-018
  -16.260000000000002          2.5983821157033844E-018
  -16.200000000000003          2.9790651701886240E-018
  -16.140000000000001          3.4137147904952859E-018
  -16.080000000000002          3.9097100020250011E-018
  -16.020000000000000          4.4753997317109808E-018
  -15.960000000000001          5.1202240613812475E-018
  -15.899999999999999          5.8548492677651353E-018
  -15.840000000000003          6.6913208934472469E-018
  -15.780000000000001          7.6432394983066510E-018
  -15.719999999999999          8.7259429151380629E-018
  -15.660000000000004          9.9567277792242431E-018
  -15.600000000000001          1.1355085798810927E-017
  -15.539999999999999          1.2942961059596579E-017
  -15.480000000000004          1.4745056038473893E-017
  -15.420000000000002          1.6789158308649057E-017
  -15.359999999999999          1.9106510627837213E-017